Title
55513
    1DOPE     N    1   5.704   4.135  15.060  0.0888  0.1175 -0.1711
    1DOPE   HN1    2   5.653   4.169  14.976 -1.6977  0.3715  0.9745
    1DOPE   HN2    3   5.691   4.218  15.121 -0.0927 -0.7694  1.0314
    1DOPE   HN3    4   5.805   4.122  15.037  0.2315  0.7050  0.1042
    1DOPE   C12    5   5.642   4.010  15.128  0.1320  0.9616  0.3401
    1DOPE  H12A    6   5.602   4.033  15.229 -1.6314  1.6770 -0.4791
    1DOPE  H12B    7   5.712   3.924  15.127 -1.2992 -0.2531  1.1514
    1DOPE   C11    8   5.524   3.960  15.035  0.0768  0.1990 -0.0690
    1DOPE  H11A    9   5.487   3.859  15.064  1.6982 -0.4047  0.0321
    1DOPE  H11B   10   5.565   3.941  14.933  0.3997  0.6428 -0.0237
    1DOPE     P   11   5.303   4.055  15.106 -0.2405  0.0527  0.2565
    1DOPE   O13   12   5.216   4.159  15.053 -0.6855  0.1172 -0.1222
    1DOPE   O14   13   5.335   4.068  15.249 -0.3276 -0.0451  0.0001
    1DOPE   O11   14   5.245   3.917  15.077  0.3847 -0.5820  0.1379
    1DOPE   O12   15   5.433   4.063  15.023 -0.3741 -0.0933  0.2059
    1DOPE    C1   16   5.209   3.866  14.951  0.1751  0.2033  0.0069
    1DOPE    HA   17   5.261   3.914  14.865 -2.7334  1.4030 -1.1946
    1DOPE    HB   18   5.101   3.881  14.931 -0.0246 -0.8578  0.2462
    1DOPE    C2   19   5.240   3.715  14.939  0.6939 -1.1992 -0.2333
    1DOPE    HS   20   5.347   3.705  14.966  0.6577 -0.4859  0.1913
    1DOPE   O21   21   5.213   3.674  14.804  0.5193 -0.2572 -0.0070
    1DOPE   C21   22   5.278   3.567  14.766  0.1450  0.8919 -0.5785
    1DOPE   O22   23   5.342   3.495  14.843 -0.2951  0.0533 -0.5251
    1DOPE   C22   24   5.269   3.542  14.617  0.0575 -0.8378 -0.1862
    1DOPE   H2R   25   5.373   3.549  14.577  0.0985 -3.3591 -0.7066
    1DOPE   H2S   26   5.192   3.610  14.575  0.6670  2.1451  3.0113
    1DOPE    C3   27   5.164   3.635  15.040  0.1421 -0.0859  0.2183
    1DOPE    HX   28   5.171   3.677  15.142 -0.9256  1.9039 -0.4799
    1DOPE    HY   29   5.200   3.530  15.052 -0.2255 -0.4417 -1.4800
    1DOPE   O31   30   5.023   3.636  14.999  0.4054  0.7012 -0.0723
    1DOPE   C31   31   4.980   3.524  14.941 -0.6108  0.2407 -0.0100
    1DOPE   O32   32   5.045   3.429  14.903  0.3448 -0.1480 -0.3055
    1DOPE   C32   33   4.834   3.541  14.932 -0.4336  0.0554  0.0230
    1DOPE   H2X   34   4.790   3.545  15.033  1.3358  3.0447  0.7969
    1DOPE   H2Y   35   4.814   3.634  14.875 -1.1723 -2.0758 -3.4998
    1DOPE   C23   36   5.224   3.400  14.592  0.1529 -0.8424 -0.4224
    1DOPE   H3R   37   5.128   3.393  14.648  1.3209  1.4936  2.0801
    1DOPE   H3S   38   5.294   3.324  14.630  0.7700  1.2056  2.9471
    1DOPE   C24   39   5.187   3.374  14.445  0.0021  0.0675 -0.5577
    1DOPE   H4R   40   5.100   3.438  14.417 -1.2107 -0.4432  1.8081
    1DOPE   H4S   41   5.166   3.266  14.456  1.0947 -0.0630  0.4283
    1DOPE   C25   42   5.294   3.393  14.343 -0.2851  0.5455 -0.0683
    1DOPE   H5R   43   5.379   3.327  14.371 -1.8316 -1.4200  0.1499
    1DOPE   H5S   44   5.344   3.492  14.354  2.6122 -0.9875  2.2183
    1DOPE   C26   45   5.265   3.352  14.199  0.7933 -0.3291  0.7050
    1DOPE   H6R   46   5.168   3.397  14.169  1.9054  1.5470 -0.2314
    1DOPE   H6S   47   5.271   3.241  14.191  0.3958 -0.2361 -1.7448
    1DOPE   C27   48   5.374   3.392  14.093  1.3416 -0.2737  0.4460
    1DOPE   H7R   49   5.473   3.408  14.141  1.3894  0.0049  0.2551
    1DOPE   H7S   50   5.340   3.488  14.047  0.2833 -1.2026 -0.7705
    1DOPE   C28   51   5.385   3.290  13.977  0.3830  0.3987 -0.5535
    1DOPE   H8R   52   5.281   3.253  13.963 -0.1562  1.7675 -0.3490
    1DOPE   H8S   53   5.439   3.208  14.028 -0.9561 -1.0704 -1.4341
    1DOPE   C29   54   5.455   3.341  13.849 -0.0057  0.1909 -0.7415
    1DOPE   H9R   55   5.554   3.387  13.862 -0.0010  0.0168 -0.1147
    1DOPE  C210   56   5.412   3.321  13.723 -0.3485 -0.1900 -0.1220
    1DOPE  H10R   57   5.481   3.354  13.644  0.1641  0.1129  0.4452
    1DOPE  C211   58   5.284   3.257  13.683 -0.4435 -0.0622  0.5575
    1DOPE  H11R   59   5.222   3.321  13.617 -0.5338 -0.5219  0.1896
    1DOPE  H11S   60   5.212   3.234  13.765 -0.0494  0.0874  0.9467
    1DOPE  C212   61   5.301   3.134  13.586  0.1856 -0.8791 -0.1089
    1DOPE  H12R   62   5.203   3.085  13.571  0.2527 -0.7734 -0.9382
    1DOPE  H12S   63   5.374   3.062  13.631 -0.2622 -2.1327 -1.3362
    1DOPE  C213   64   5.356   3.173  13.443 -0.3112  0.6966 -0.1149
    1DOPE  H13R   65   5.464   3.194  13.462  0.0979  0.7658 -2.3234
    1DOPE  H13S   66   5.312   3.266  13.402  0.2953  0.4349 -1.4055
    1DOPE  C214   67   5.351   3.062  13.340 -0.2931  0.0983 -0.0879
    1DOPE  H14R   68   5.244   3.052  13.310 -0.7647  1.6010  0.9519
    1DOPE  H14S   69   5.400   2.972  13.383 -1.0933 -0.3768 -0.1527
    1DOPE  C215   70   5.421   3.075  13.206 -0.0845  0.0318  0.0253
    1DOPE  H15R   71   5.524   3.116  13.215  0.5961 -1.1730 -1.7382
    1DOPE  H15S   72   5.366   3.139  13.134  1.3259  0.2823 -0.8731
    1DOPE  C216   73   5.421   2.935  13.143  0.2764  0.2694  0.5112
    1DOPE  H16R   74   5.322   2.896  13.108  0.2421  0.4627  0.3946
    1DOPE  H16S   75   5.464   2.872  13.224 -0.4766  0.4335  1.0628
    1DOPE  C217   76   5.507   2.934  13.023 -0.6345 -0.2945  0.2684
    1DOPE  H17R   77   5.531   2.826  13.009  1.3666 -0.1358  1.9828
    1DOPE  H17S   78   5.607   2.983  13.032  1.1387 -3.6653  0.8933
    1DOPE  C218   79   5.441   2.976  12.894 -0.0022  0.2436  0.3859
    1DOPE  H18R   80   5.370   2.901  12.853 -1.8365  1.2926  1.5446
    1DOPE  H18S   81   5.525   2.990  12.822  1.0986 -0.7564  1.4228
    1DOPE  H18T   82   5.396   3.074  12.918 -0.2763  0.1327  0.3288
    1DOPE   C33   83   4.763   3.432  14.842  0.3080  0.0213  0.2182
    1DOPE   H3X   84   4.653   3.443  14.845 -0.3843 -4.6820 -0.6374
    1DOPE   H3Y   85   4.782   3.327  14.872 -2.3285 -0.2163  1.2966
    1DOPE   C34   86   4.806   3.453  14.693 -0.6144 -0.9813  0.2839
    1DOPE   H4X   87   4.761   3.552  14.670 -1.0644 -1.4430 -0.9005
    1DOPE   H4Y   88   4.917   3.460  14.691 -0.7104  0.9492 -0.7621
    1DOPE   C35   89   4.743   3.360  14.588  0.0710  0.0412 -0.2960
    1DOPE   H5X   90   4.633   3.365  14.593  0.1061  2.6901 -0.5464
    1DOPE   H5Y   91   4.772   3.259  14.622 -2.0270 -0.8191 -0.9154
    1DOPE   C36   92   4.799   3.372  14.447 -0.7424  0.0421  0.9336
    1DOPE   H6X   93   4.905   3.344  14.467 -0.8975 -1.6851 -0.3943
    1DOPE   H6Y   94   4.795   3.477  14.412  0.6289  0.8569  3.0140
    1DOPE   C37   95   4.741   3.276  14.341  0.0028 -0.0454  0.2932
    1DOPE   H7X   96   4.727   3.177  14.389 -0.5884  1.0883  2.6034
    1DOPE   H7Y   97   4.633   3.300  14.328 -1.0161 -3.6318  1.0657
    1DOPE   C38   98   4.805   3.261  14.201 -0.2169 -0.8767  0.3591
    1DOPE   H8X   99   4.743   3.209  14.125  0.3918  1.6737 -2.0352
    1DOPE   H8Y  100   4.898   3.201  14.213 -0.0479 -0.4221  1.5084
    1DOPE   C39  101   4.839   3.398  14.143  0.8109 -0.8166 -0.6943
    1DOPE   H9X  102   4.945   3.427  14.142  0.4345  0.7047 -0.0353
    1DOPE  C310  103   4.748   3.481  14.095  0.2372 -0.4277  0.0477
    1DOPE  H10X  104   4.783   3.573  14.045 -1.0335  1.0404  1.7116
    1DOPE  C311  105   4.597   3.452  14.076 -0.2692  0.0055 -0.2736
    1DOPE  H11X  106   4.573   3.353  14.120  0.6988 -0.4778 -0.7953
    1DOPE  H11Y  107   4.538   3.538  14.115  0.0154 -0.5882  1.5677
    1DOPE  C312  108   4.547   3.451  13.924  0.5872 -0.0996 -0.5033
    1DOPE  H12X  109   4.561   3.549  13.873  1.8348 -0.2267 -0.4226
    1DOPE  H12Y  110   4.436   3.445  13.923  0.6070 -0.9734  0.8217
    1DOPE  C313  111   4.613   3.337  13.842  0.2726 -0.1453 -0.2268
    1DOPE  H13X  112   4.721   3.362  13.835  0.1564  0.3135 -0.4045
    1DOPE  H13Y  113   4.609   3.243  13.901  0.3369 -0.9290 -1.4221
    1DOPE  C314  114   4.541   3.318  13.710  0.8538 -0.6046  0.4789
    1DOPE  H14X  115   4.532   3.420  13.667 -0.0804 -1.7530 -2.2646
    1DOPE  H14Y  116   4.447   3.264  13.734  1.7168 -2.4552 -0.1666
    1DOPE  C315  117   4.634   3.244  13.611 -0.0971 -0.5416  0.0378
    1DOPE  H15X  118   4.666   3.147  13.656  0.1652 -0.3961  0.1693
    1DOPE  H15Y  119   4.729   3.302  13.605 -0.7771  0.4801 -1.2068
    1DOPE  C316  120   4.583   3.234  13.469  0.3885 -0.1563  0.3600
    1DOPE  H16X  121   4.509   3.316  13.451  0.0897 -0.5789 -0.3926
    1DOPE  H16Y  122   4.526   3.140  13.453 -0.9494  0.6622  0.1657
    1DOPE  C317  123   4.692   3.231  13.360  0.1650  0.4047 -0.0478
    1DOPE  H17X  124   4.763   3.313  13.384 -0.2495  0.2497  1.9146
    1DOPE  H17Y  125   4.750   3.136  13.367  0.2566  0.4469 -0.2293
    1DOPE  C318  126   4.638   3.241  13.213 -0.1824 -0.2051  0.4226
    1DOPE  H18X  127   4.570   3.155  13.192  1.5337 -1.1586 -1.5902
    1DOPE  H18Y  128   4.588   3.339  13.197  2.4496  0.9321 -1.4945
    1DOPE  H18Z  129   4.724   3.232  13.143 -1.0744  0.5533 -0.8081
    2DOPE     N  130   6.281   3.328  15.130 -0.6470 -0.3127  0.2239
    2DOPE   HN1  131   6.340   3.244  15.118  1.4022  1.3269 -2.2620
    2DOPE   HN2  132   6.299   3.381  15.042  1.1364  1.2091  1.4282
    2DOPE   HN3  133   6.329   3.384  15.203  1.6013 -0.3969 -1.0909
    2DOPE   C12  134   6.134   3.309  15.163 -0.2110 -0.2262 -0.3122
    2DOPE  H12A  135   6.140   3.236  15.247  1.4969 -2.0400 -1.9197
    2DOPE  H12B  136   6.072   3.267  15.081 -1.7047  1.7941 -0.2959
    2DOPE   C11  137   6.066   3.438  15.207 -0.3713 -0.0382  0.4048
    2DOPE  H11A  138   6.135   3.477  15.285  1.1189  1.1666 -1.4210
    2DOPE  H11B  139   5.962   3.418  15.238 -0.9757  0.9467 -0.9029
    2DOPE     P  140   5.960   3.643  15.083 -0.1450  0.4494  0.1006
    2DOPE   O13  141   6.021   3.760  15.023  0.0310  0.1121  0.1380
    2DOPE   O14  142   5.895   3.668  15.213  0.6779 -0.3044  0.6289
    2DOPE   O11  143   5.857   3.583  14.987  0.1632  0.7971 -0.0399
    2DOPE   O12  144   6.074   3.538  15.100  0.2516  1.1649  0.2565
    2DOPE    C1  145   5.886   3.492  14.885  0.1068 -0.1437 -0.0885
    2DOPE    HA  146   5.788   3.452  14.853 -1.0972  0.0330  3.0475
    2DOPE    HB  147   5.943   3.405  14.925  2.6399  1.1094 -0.7017
    2DOPE    C2  148   5.947   3.560  14.760 -0.1291  0.4609  0.0008
    2DOPE    HS  149   6.051   3.580  14.792 -0.4969  1.1425  0.7900
    2DOPE   O21  150   5.871   3.680  14.719  0.2905 -0.1415 -0.3946
    2DOPE   C21  151   5.946   3.787  14.677 -0.2504 -0.2858 -0.1303
    2DOPE   O22  152   6.067   3.778  14.656 -0.3547  0.5082  0.7205
    2DOPE   C22  153   5.858   3.910  14.679 -0.0935 -0.3745  0.2158
    2DOPE   H2R  154   5.841   3.927  14.787  1.0131 -1.7022  0.6231
    2DOPE   H2S  155   5.762   3.895  14.624  0.6886  1.5873 -1.8311
    2DOPE    C3  156   5.964   3.464  14.636  0.1051  0.2803 -0.0632
    2DOPE    HX  157   5.860   3.429  14.620  0.3583 -0.3604 -0.3287
    2DOPE    HY  158   6.015   3.372  14.672  0.0135 -0.0129 -0.6855
    2DOPE   O31  159   6.019   3.526  14.518 -0.3552 -0.5957 -0.2281
    2DOPE   C31  160   6.147   3.524  14.508 -0.3893 -0.3229 -0.6674
    2DOPE   O32  161   6.229   3.473  14.585  0.2861  0.4831 -0.3774
    2DOPE   C32  162   6.189   3.609  14.391 -0.4532  0.4514  0.5851
    2DOPE   H2X  163   6.135   3.706  14.394 -0.2706  0.7127 -2.0979
    2DOPE   H2Y  164   6.299   3.623  14.393 -0.6542  2.5167 -0.7848
    2DOPE   C23  165   5.932   4.030  14.618 -0.1155 -0.4161  0.6113
    2DOPE   H3R  166   6.030   4.045  14.669  0.7211 -1.9331 -0.4546
    2DOPE   H3S  167   5.871   4.120  14.639 -0.6406 -0.6635  0.1627
    2DOPE   C24  168   5.943   4.037  14.464  0.7925  0.8884 -0.8442
    2DOPE   H4R  169   5.845   4.008  14.421 -0.1404 -0.1722  1.7927
    2DOPE   H4S  170   6.022   3.971  14.423  0.7047 -2.4300  3.5933
    2DOPE   C25  171   5.987   4.175  14.410  0.5075  0.4420  0.1539
    2DOPE   H5R  172   6.078   4.206  14.467  0.8806  0.7539 -0.5989
    2DOPE   H5S  173   5.904   4.247  14.423  0.1134 -0.1742  1.2186
    2DOPE   C26  174   6.006   4.176  14.260  0.2768 -0.4707  0.4876
    2DOPE   H6R  175   6.048   4.077  14.234  1.4541 -0.4842  2.2301
    2DOPE   H6S  176   6.086   4.249  14.235  0.0356 -0.1723  0.5864
    2DOPE   C27  177   5.876   4.202  14.183  1.2049 -0.2691 -0.0295
    2DOPE   H7R  178   5.847   4.309  14.197  0.1493 -0.1594 -2.4947
    2DOPE   H7S  179   5.789   4.143  14.216  0.6578  0.6994  0.3162
    2DOPE   C28  180   5.870   4.178  14.029  0.1162 -0.8547 -0.2987
    2DOPE   H8R  181   5.781   4.234  13.992 -0.7954 -1.5968  0.7040
    2DOPE   H8S  182   5.853   4.069  14.017 -1.7758 -0.6975  0.5993
    2DOPE   C29  183   6.008   4.214  13.970  0.6142 -0.0155  0.0402
    2DOPE   H9R  184   6.031   4.317  13.998  0.9227  0.0406 -0.4104
    2DOPE  C210  185   6.073   4.151  13.873 -0.4505 -0.4466  0.5590
    2DOPE  H10R  186   6.172   4.178  13.832 -1.3031 -2.1127 -2.9234
    2DOPE  C211  187   6.023   4.028  13.807 -0.4422  0.0254  0.1070
    2DOPE  H11R  188   5.914   4.033  13.787 -0.5046 -2.2760 -0.3593
    2DOPE  H11S  189   6.041   3.943  13.877 -1.4615  0.8085  1.3709
    2DOPE  C212  190   6.089   4.008  13.667  0.0250 -0.0262  0.0268
    2DOPE  H12R  191   6.198   4.003  13.684 -0.2851 -0.6688  2.0517
    2DOPE  H12S  192   6.061   4.094  13.602 -0.5791 -0.5284 -0.3970
    2DOPE  C213  193   6.044   3.883  13.589  0.7517 -0.3387  0.1755
    2DOPE  H13R  194   5.942   3.861  13.627  0.1902  1.5269 -0.1579
    2DOPE  H13S  195   6.113   3.802  13.620  1.2713  0.6653  1.7501
    2DOPE  C214  196   6.052   3.894  13.438  0.1933 -0.0730 -0.3093
    2DOPE  H14R  197   6.149   3.930  13.398 -0.9184  1.2765 -1.9839
    2DOPE  H14S  198   5.975   3.972  13.418 -1.4749 -1.5976 -0.0873
    2DOPE  C215  199   6.011   3.762  13.362 -0.6482 -0.1804  0.6398
    2DOPE  H15R  200   5.989   3.802  13.260  1.9113  0.5373  0.2944
    2DOPE  H15S  201   5.915   3.732  13.409  0.0402 -2.8438  0.4786
    2DOPE  C216  202   6.112   3.649  13.336 -0.9412  0.3357  0.4166
    2DOPE  H16R  203   6.196   3.687  13.273 -3.2772  1.1827 -2.4490
    2DOPE  H16S  204   6.055   3.577  13.273 -1.6270 -0.2016  1.6356
    2DOPE  C217  205   6.169   3.572  13.460  0.0697 -0.3667  0.1377
    2DOPE  H17R  206   6.208   3.649  13.531 -1.6989  1.0085 -0.3026
    2DOPE  H17S  207   6.262   3.516  13.437 -0.5715 -1.2273 -0.4364
    2DOPE  C218  208   6.075   3.487  13.538 -0.5106 -0.1540  0.1855
    2DOPE  H18R  209   5.982   3.449  13.490 -1.4720 -1.0612  2.6267
    2DOPE  H18S  210   6.029   3.550  13.617  1.4208 -0.7620  1.8999
    2DOPE  H18T  211   6.118   3.394  13.581  1.2029  0.1452 -0.7714
    2DOPE   C33  212   6.149   3.537  14.264 -0.3931  0.0465  0.7819
    2DOPE   H3X  213   6.042   3.506  14.259 -0.5419  0.6824 -0.4633
    2DOPE   H3Y  214   6.204   3.440  14.256  0.2657  0.4136  0.7921
    2DOPE   C34  215   6.184   3.620  14.144 -0.1495  0.3277  1.0386
    2DOPE   H4X  216   6.135   3.720  14.152 -4.2200 -1.2417 -1.3525
    2DOPE   H4Y  217   6.294   3.635  14.144 -0.2211  0.9085  1.1034
    2DOPE   C35  218   6.126   3.557  14.023  0.0608 -0.3777 -0.6043
    2DOPE   H5X  219   6.015   3.554  14.024  0.0490  0.0917  0.3865
    2DOPE   H5Y  220   6.173   3.457  14.006 -2.3632 -1.9143  1.1022
    2DOPE   C36  221   6.164   3.630  13.897  0.5751 -0.1622  1.0603
    2DOPE   H6X  222   6.148   3.739  13.910  0.1684  0.3662 -2.7645
    2DOPE   H6Y  223   6.094   3.612  13.813  1.7192 -2.1274  0.4404
    2DOPE   C37  224   6.306   3.613  13.851  0.3371  0.0735 -0.5213
    2DOPE   H7X  225   6.362   3.575  13.939  1.0620  0.6431 -0.7180
    2DOPE   H7Y  226   6.310   3.537  13.771 -1.9568 -2.7095  1.8026
    2DOPE   C38  227   6.381   3.748  13.810 -1.1882  0.3814 -0.5071
    2DOPE   H8X  228   6.389   3.810  13.902 -1.9398 -2.3676  1.5640
    2DOPE   H8Y  229   6.316   3.797  13.734 -0.8161 -1.5441 -2.1381
    2DOPE   C39  230   6.520   3.737  13.760 -0.6272 -0.1570 -0.5312
    2DOPE   H9X  231   6.585   3.689  13.835 -1.5268 -1.4209 -0.5136
    2DOPE  C310  232   6.568   3.788  13.649 -0.2064 -0.5401 -0.2682
    2DOPE  H10X  233   6.671   3.770  13.616 -0.6128 -0.4165 -1.6710
    2DOPE  C311  234   6.490   3.861  13.538 -0.1853 -0.0996 -0.1162
    2DOPE  H11X  235   6.462   3.785  13.462  1.4212 -0.8779  0.0403
    2DOPE  H11Y  236   6.396   3.906  13.578 -0.2230 -0.7216  0.4959
    2DOPE  C312  237   6.573   3.991  13.490  0.6838  0.5385 -0.1050
    2DOPE  H12X  238   6.660   3.946  13.438 -0.0914  0.7306 -1.6525
    2DOPE  H12Y  239   6.609   4.060  13.569  1.6670 -0.7556  0.6123
    2DOPE  C313  240   6.489   4.061  13.378  0.7291  0.0573 -0.4821
    2DOPE  H13X  241   6.403   4.114  13.424 -0.4144 -1.0245 -1.2938
    2DOPE  H13Y  242   6.548   4.143  13.333  0.0614  0.0731 -1.3619
    2DOPE  C314  243   6.431   3.970  13.271  0.2970  0.1179  0.0278
    2DOPE  H14X  244   6.354   3.905  13.316 -3.5039  2.3311 -2.6123
    2DOPE  H14Y  245   6.511   3.909  13.223  0.1548  1.7490 -2.5120
    2DOPE  C315  246   6.350   4.039  13.157 -0.0083 -0.3979  0.3837
    2DOPE  H15X  247   6.413   4.114  13.104 -2.0080  1.4266  0.4667
    2DOPE  H15Y  248   6.267   4.104  13.192  0.3778 -0.3934  1.3288
    2DOPE  C316  249   6.280   3.944  13.067 -0.0051  0.2571 -0.0302
    2DOPE  H16X  250   6.243   3.860  13.129  0.9662 -0.5338 -0.5017
    2DOPE  H16Y  251   6.357   3.895  13.004 -1.1648 -1.9843  0.2066
    2DOPE  C317  252   6.184   4.012  12.964  0.9954 -0.0674  0.4929
    2DOPE  H17X  253   6.161   3.942  12.881  3.6718  1.9588 -2.2242
    2DOPE  H17Y  254   6.094   4.045  13.020  0.6006 -0.2082 -0.0461
    2DOPE  C318  255   6.237   4.141  12.911 -0.0844 -0.0010  0.3903
    2DOPE  H18X  256   6.338   4.122  12.869  0.2023 -0.6353  1.3330
    2DOPE  H18Y  257   6.172   4.175  12.827  2.7204 -0.9551 -2.3776
    2DOPE  H18Z  258   6.238   4.218  12.992 -1.0173 -1.7746  2.1639
    3DOPE     N  259   4.216   4.503  14.956  0.1107 -0.3020 -0.2091
    3DOPE   HN1  260   4.242   4.592  15.004  1.1757 -1.4304  1.4190
    3DOPE   HN2  261   4.140   4.456  15.009 -0.0275  0.2193  0.0610
    3DOPE   HN3  262   4.307   4.452  14.967  0.5838  0.5380 -0.1441
    3DOPE   C12  263   4.175   4.535  14.819  0.0598  0.0315  0.0992
    3DOPE  H12A  264   4.163   4.445  14.755  0.3787  1.2026 -1.6681
    3DOPE  H12B  265   4.261   4.590  14.775  0.4028  0.4595  1.2745
    3DOPE   C11  266   4.038   4.609  14.823  0.1787  0.0063  0.6049
    3DOPE  H11A  267   3.955   4.546  14.860 -0.2142 -1.2026 -2.0896
    3DOPE  H11B  268   4.009   4.619  14.716  0.9949 -1.0527  0.2616
    3DOPE     P  269   3.945   4.843  14.908 -0.4153 -0.3876  0.3223
    3DOPE   O13  270   3.941   4.864  15.054  0.0435 -0.0581  0.0873
    3DOPE   O14  271   3.824   4.804  14.831  0.5641 -0.1476 -0.2269
    3DOPE   O11  272   4.015   4.965  14.824 -0.6515 -0.4381  0.0172
    3DOPE   O12  273   4.056   4.727  14.895 -0.5812  0.3987 -0.1395
    3DOPE    C1  274   4.123   4.945  14.733  0.1606  0.5677  0.2386
    3DOPE    HA  275   4.184   4.857  14.764 -1.2033 -0.4542  0.1280
    3DOPE    HB  276   4.183   5.037  14.751 -1.9896  1.9566  0.7238
    3DOPE    C2  277   4.072   4.938  14.584 -0.6625 -0.0898  0.4951
    3DOPE    HS  278   4.039   5.042  14.564  0.0437  0.3194  1.4136
    3DOPE   O21  279   3.970   4.839  14.572  0.1136 -0.1613 -0.1193
    3DOPE   C21  280   3.872   4.877  14.486 -0.1653  0.1515 -0.6874
    3DOPE   O22  281   3.857   4.990  14.437  0.1736  0.0561 -0.1342
    3DOPE   C22  282   3.765   4.769  14.472 -0.0912 -0.2362 -0.3192
    3DOPE   H2R  283   3.669   4.820  14.446  1.8770  2.8485 -2.2020
    3DOPE   H2S  284   3.756   4.719  14.571  1.1027 -0.6944 -0.4336
    3DOPE    C3  285   4.187   4.893  14.490  0.6646  0.1445  0.9544
    3DOPE    HX  286   4.248   4.811  14.533  0.2233 -1.0643 -0.6362
    3DOPE    HY  287   4.251   4.984  14.483  0.3594  0.2383 -1.3442
    3DOPE   O31  288   4.151   4.858  14.354  0.1573  0.0808  0.1482
    3DOPE   C31  289   4.233   4.880  14.252  0.0408  0.1433 -0.5025
    3DOPE   O32  290   4.353   4.909  14.259  0.6456 -0.2780 -0.7422
    3DOPE   C32  291   4.154   4.870  14.124 -0.0241  0.3083 -0.0174
    3DOPE   H2X  292   4.109   4.768  14.119  0.6099 -0.0764  1.5996
    3DOPE   H2Y  293   4.077   4.949  14.117 -1.6306 -1.3240 -2.2772
    3DOPE   C23  294   3.790   4.677  14.357 -0.0060 -0.3224 -0.0305
    3DOPE   H3R  295   3.720   4.590  14.348  0.6361 -0.8594  0.0982
    3DOPE   H3S  296   3.896   4.647  14.371  0.6868  1.2891 -1.5219
    3DOPE   C24  297   3.782   4.747  14.219 -0.4619 -0.9913  0.1436
    3DOPE   H4R  298   3.862   4.824  14.217  1.4475 -2.8984  0.1957
    3DOPE   H4S  299   3.691   4.811  14.210  1.0310  1.2663  0.3281
    3DOPE   C25  300   3.800   4.659  14.093  0.0454  0.2734  0.5929
    3DOPE   H5R  301   3.711   4.597  14.067  0.5678 -0.8516  1.3968
    3DOPE   H5S  302   3.884   4.590  14.114  0.4627  1.3663  2.8682
    3DOPE   C26  303   3.829   4.737  13.962  0.2924 -0.1600  0.8133
    3DOPE   H6R  304   3.830   4.668  13.876  1.3812 -1.3555  1.7467
    3DOPE   H6S  305   3.933   4.777  13.958  0.0680  0.2974 -1.8301
    3DOPE   C27  306   3.726   4.846  13.923  0.6046 -0.1660  1.1882
    3DOPE   H7R  307   3.728   4.925  14.002 -1.3244 -0.1933  1.3123
    3DOPE   H7S  308   3.621   4.813  13.932  0.9357 -1.4484  0.5828
    3DOPE   C28  309   3.752   4.899  13.782  0.2572  0.7479 -0.1865
    3DOPE   H8R  310   3.861   4.907  13.766  0.2698  1.6009  0.2862
    3DOPE   H8S  311   3.722   5.004  13.759 -0.1033  0.3073 -1.9238
    3DOPE   C29  312   3.681   4.821  13.674 -0.0503  0.2614  0.0353
    3DOPE   H9R  313   3.572   4.813  13.688 -0.1461  0.6363 -0.4661
    3DOPE  C210  314   3.740   4.746  13.575  1.1558 -0.2719 -0.1412
    3DOPE  H10R  315   3.684   4.690  13.498 -0.1834 -0.2021  0.7480
    3DOPE  C211  316   3.883   4.736  13.557 -0.5863 -0.5344 -0.6818
    3DOPE  H11R  317   3.912   4.670  13.642 -0.6470 -1.0398 -1.0513
    3DOPE  H11S  318   3.941   4.829  13.577 -1.0454 -0.5352  0.8075
    3DOPE  C212  319   3.933   4.677  13.424 -0.6196 -0.1594 -0.0204
    3DOPE  H12R  320   3.889   4.730  13.337  2.1709  0.1685 -1.3490
    3DOPE  H12S  321   3.919   4.566  13.419  0.0089 -0.2535  0.2569
    3DOPE  C213  322   4.081   4.702  13.416 -0.3362 -0.2582  1.3925
    3DOPE  H13R  323   4.141   4.640  13.487  0.7436  0.2747  0.9664
    3DOPE  H13S  324   4.115   4.804  13.442  2.4698 -0.6169 -0.4347
    3DOPE  C214  325   4.142   4.683  13.268  0.5864 -0.0301 -0.1197
    3DOPE  H14R  326   4.252   4.693  13.275  0.5270 -0.1166  1.0585
    3DOPE  H14S  327   4.100   4.768  13.210  0.0210 -0.4664 -0.3653
    3DOPE  C215  328   4.099   4.548  13.204 -0.3458 -0.3618 -0.1681
    3DOPE  H15R  329   3.988   4.543  13.199 -0.4189  1.4798 -1.3351
    3DOPE  H15S  330   4.141   4.463  13.262  0.8265 -0.4866 -1.1598
    3DOPE  C216  331   4.155   4.517  13.067  0.3116  0.4172 -0.7407
    3DOPE  H16R  332   4.138   4.407  13.062  0.8163  0.2267  1.0461
    3DOPE  H16S  333   4.263   4.543  13.070  0.0425  1.5393  0.1471
    3DOPE  C217  334   4.083   4.598  12.950 -0.0779 -0.0083 -0.2792
    3DOPE  H17R  335   4.089   4.706  12.973  1.6079 -0.1945  0.3210
    3DOPE  H17S  336   3.976   4.568  12.956 -0.0453 -0.1866 -0.5992
    3DOPE  C218  337   4.135   4.569  12.813 -0.2866 -0.0986  0.5382
    3DOPE  H18R  338   4.083   4.480  12.772 -0.9293  0.4172  0.2147
    3DOPE  H18S  339   4.244   4.549  12.809  0.3553  3.0711 -1.9354
    3DOPE  H18T  340   4.115   4.647  12.737 -2.1560 -1.8438 -0.8607
    3DOPE   C33  341   4.241   4.876  13.996 -0.5733  0.1144 -0.2292
    3DOPE   H3X  342   4.321   4.800  14.006 -1.5507 -0.8944  0.2279
    3DOPE   H3Y  343   4.283   4.978  13.996  1.6435 -0.7141  1.5627
    3DOPE   C34  344   4.172   4.859  13.870  0.4675 -0.0164 -0.4894
    3DOPE   H4X  345   4.143   4.752  13.859  0.3530 -0.2530  1.6688
    3DOPE   H4Y  346   4.080   4.920  13.881  0.6750 -0.1284  2.5142
    3DOPE   C35  347   4.252   4.897  13.747  0.5893 -0.3689  0.0314
    3DOPE   H5X  348   4.280   5.004  13.761 -1.0185 -0.0148  0.7935
    3DOPE   H5Y  349   4.174   4.900  13.668  0.2551 -0.2662  0.3629
    3DOPE   C36  350   4.356   4.798  13.693  0.0419 -0.4033  0.2370
    3DOPE   H6X  351   4.310   4.699  13.676 -0.7338  0.4582 -3.3096
    3DOPE   H6Y  352   4.442   4.788  13.763  0.4199 -2.0640 -0.4128
    3DOPE   C37  353   4.426   4.853  13.564  0.2246 -0.4140 -0.4468
    3DOPE   H7X  354   4.341   4.863  13.493  0.3806  3.4128 -0.3204
    3DOPE   H7Y  355   4.468   4.952  13.591  2.0393 -0.8898 -1.3625
    3DOPE   C38  356   4.533   4.756  13.501  0.2244  0.4355 -0.5238
    3DOPE   H8X  357   4.618   4.754  13.573  0.0467  0.3414 -0.3171
    3DOPE   H8Y  358   4.571   4.801  13.406 -1.3023 -0.6062 -1.6816
    3DOPE   C39  359   4.495   4.609  13.485  0.5900  0.5090 -0.0183
    3DOPE   H9X  360   4.445   4.564  13.572  1.6102 -0.9578 -0.1569
    3DOPE  C310  361   4.524   4.525  13.384  0.8397 -0.7224 -0.2046
    3DOPE  H10X  362   4.508   4.416  13.390  2.4349 -0.9123  1.7246
    3DOPE  C311  363   4.607   4.564  13.262 -0.2365 -0.7608  0.5014
    3DOPE  H11X  364   4.543   4.572  13.171  1.0179  1.9465 -0.2129
    3DOPE  H11Y  365   4.666   4.657  13.276  1.3824 -1.8360  1.0985
    3DOPE  C312  366   4.710   4.454  13.236 -0.3713  0.3082  0.5174
    3DOPE  H12X  367   4.658   4.357  13.222 -1.0135  0.5987  0.8571
    3DOPE  H12Y  368   4.774   4.448  13.326 -0.3552  0.4442  0.5147
    3DOPE  C313  369   4.788   4.485  13.104  1.0512  0.0179 -0.7386
    3DOPE  H13X  370   4.717   4.485  13.019 -1.8189  2.1794  1.4690
    3DOPE  H13Y  371   4.829   4.587  13.091  0.4445  0.5495  1.2199
    3DOPE  C314  372   4.886   4.373  13.058  0.2922 -0.3077  0.4592
    3DOPE  H14X  373   4.840   4.272  13.056  0.5246 -0.4678 -2.7056
    3DOPE  H14Y  374   4.975   4.391  13.122  0.0421  0.2334  0.6610
    3DOPE  C315  375   4.932   4.378  12.913 -0.6571 -0.3773  0.7924
    3DOPE  H15X  376   4.833   4.374  12.863 -0.2879 -2.8289  0.1112
    3DOPE  H15Y  377   5.002   4.299  12.877  2.3423  2.6229 -0.5931
    3DOPE  C316  378   4.993   4.516  12.875  0.6180 -0.0498 -0.0342
    3DOPE  H16X  379   5.087   4.536  12.930  2.6957  0.0456 -3.3250
    3DOPE  H16Y  380   4.925   4.601  12.897  0.8573  0.7725 -2.1953
    3DOPE  C317  381   5.035   4.529  12.729 -0.0734 -0.0763  0.3335
    3DOPE  H17X  382   4.948   4.547  12.662  0.1637 -1.0306 -0.2430
    3DOPE  H17Y  383   5.084   4.628  12.721  1.9454 -0.9990  0.7494
    3DOPE  C318  384   5.135   4.426  12.689 -0.3647 -0.0978 -0.7585
    3DOPE  H18X  385   5.077   4.331  12.682 -0.1629 -0.2042 -0.9774
    3DOPE  H18Y  386   5.169   4.445  12.585  2.8963  1.4426  0.4616
    3DOPE  H18Z  387   5.212   4.401  12.764 -0.4257  0.2003 -0.5982
    4DOPE     N  388   5.788   2.052  15.141 -0.4977  0.5827 -0.1976
    4DOPE   HN1  389   5.795   2.132  15.207 -1.6941 -0.1765  0.8962
    4DOPE   HN2  390   5.699   2.006  15.167 -1.0419  1.7090  0.0203
    4DOPE   HN3  391   5.863   1.982  15.157 -0.2121  0.5692 -1.4853
    4DOPE   C12  392   5.790   2.093  14.996 -0.6330 -0.4133  0.3835
    4DOPE  H12A  393   5.894   2.120  14.967 -0.6805  0.6843  1.1409
    4DOPE  H12B  394   5.736   2.190  14.988  0.7631  0.3537 -0.2695
    4DOPE   C11  395   5.718   1.987  14.909  0.4196  0.4237  0.0267
    4DOPE  H11A  396   5.785   1.898  14.905  2.5791  1.9697  0.4130
    4DOPE  H11B  397   5.717   2.029  14.806 -0.8763 -0.1794 -0.2250
    4DOPE     P  398   5.477   1.874  14.874 -0.2566  0.1308  0.4076
    4DOPE   O13  399   5.342   1.909  14.914 -0.1080 -0.5927  0.1433
    4DOPE   O14  400   5.524   1.732  14.902  0.0761 -0.7514 -0.1897
    4DOPE   O11  401   5.516   1.908  14.720  0.6007  0.2566  0.0215
    4DOPE   O12  402   5.579   1.969  14.944 -0.0570  0.2249 -0.6823
    4DOPE    C1  403   5.479   2.040  14.672  0.0927  0.4976  0.4352
    4DOPE    HA  404   5.550   2.116  14.711 -1.3816  1.1680  1.9388
    4DOPE    HB  405   5.377   2.071  14.704  0.3607  2.9577 -0.7848
    4DOPE    C2  406   5.480   2.036  14.518  1.1911  0.2906  0.2137
    4DOPE    HS  407   5.585   2.020  14.484  0.5442 -1.4185 -1.0854
    4DOPE   O21  408   5.426   2.152  14.453  0.0666 -0.1524 -0.1803
    4DOPE   C21  409   5.495   2.268  14.488  1.0877  0.7099  0.5623
    4DOPE   O22  410   5.596   2.280  14.553 -0.5766  0.5368 -0.1694
    4DOPE   C22  411   5.417   2.386  14.430  0.0686  0.1534 -0.1715
    4DOPE   H2R  412   5.462   2.472  14.484  0.4089 -0.7938  1.1014
    4DOPE   H2S  413   5.312   2.376  14.465 -0.0125 -0.2087 -0.5136
    4DOPE    C3  414   5.400   1.909  14.458 -1.0222 -0.2626 -0.3716
    4DOPE    HX  415   5.299   1.903  14.504 -1.4680  1.1883 -1.1176
    4DOPE    HY  416   5.458   1.819  14.489  3.6348  2.1397 -1.1677
    4DOPE   O31  417   5.399   1.909  14.315  0.3675 -0.1152 -0.4902
    4DOPE   C31  418   5.279   1.903  14.256  0.0563 -0.8125 -0.3062
    4DOPE   O32  419   5.173   1.874  14.314 -0.8390 -0.2966  0.3233
    4DOPE   C32  420   5.291   1.928  14.106 -0.8739 -0.4809  0.2224
    4DOPE   H2X  421   5.352   1.841  14.075 -0.7194 -0.5120  0.6066
    4DOPE   H2Y  422   5.188   1.938  14.066 -0.5457 -3.5005 -1.7422
    4DOPE   C23  423   5.433   2.408  14.276  0.2308 -0.0095 -0.3409
    4DOPE   H3R  424   5.367   2.332  14.229  0.5561 -1.2012  1.0817
    4DOPE   H3S  425   5.538   2.384  14.247 -0.1315 -1.6108 -0.4269
    4DOPE   C24  426   5.400   2.550  14.221  0.2955 -0.5897  0.3779
    4DOPE   H4R  427   5.292   2.570  14.205  0.7268  3.8753  1.6992
    4DOPE   H4S  428   5.442   2.552  14.118  1.2657 -0.8087  0.7536
    4DOPE   C25  429   5.463   2.673  14.290 -0.6559  0.3980 -0.4318
    4DOPE   H5R  430   5.568   2.639  14.301 -0.9548  0.0747  1.9808
    4DOPE   H5S  431   5.423   2.674  14.394  2.2779 -1.6912  0.8634
    4DOPE   C26  432   5.455   2.810  14.222  0.3173  0.1476  0.0501
    4DOPE   H6R  433   5.350   2.847  14.219  0.2971  0.1661  0.8714
    4DOPE   H6S  434   5.489   2.801  14.116  1.5335  2.1475  0.2187
    4DOPE   C27  435   5.537   2.913  14.291 -0.1759  0.0591  0.6419
    4DOPE   H7R  436   5.641   2.876  14.280  0.4636  1.6084  1.1644
    4DOPE   H7S  437   5.512   2.917  14.400 -4.1830 -1.0164 -0.0703
    4DOPE   C28  438   5.533   3.055  14.226 -0.2572 -0.1654 -0.3836
    4DOPE   H8R  439   5.437   3.109  14.243 -0.3356 -0.2886 -0.4310
    4DOPE   H8S  440   5.548   3.034  14.118 -1.2332 -2.4138 -0.1341
    4DOPE   C29  441   5.643   3.143  14.288  0.5122 -0.0626 -0.2613
    4DOPE   H9R  442   5.636   3.163  14.396  1.6968  1.7278 -0.4815
    4DOPE  C210  443   5.748   3.190  14.218  0.1158 -0.4603  0.2707
    4DOPE  H10R  444   5.821   3.254  14.269  1.5046  0.6059 -2.8287
    4DOPE  C211  445   5.789   3.169  14.077  0.4985  0.1066 -0.4131
    4DOPE  H11R  446   5.710   3.117  14.017 -1.3392  1.5537  0.6570
    4DOPE  H11S  447   5.882   3.110  14.065 -0.2186 -0.9342 -1.1137
    4DOPE  C212  448   5.799   3.305  14.011  0.3145 -0.0148 -0.0725
    4DOPE  H12R  449   5.836   3.388  14.076 -1.0854 -0.0773  0.8377
    4DOPE  H12S  450   5.696   3.338  13.985  0.8311  0.5666 -1.4753
    4DOPE  C213  451   5.877   3.321  13.873  0.0957 -0.9337  0.2405
    4DOPE  H13R  452   5.984   3.323  13.900 -0.1627  1.9605  1.3303
    4DOPE  H13S  453   5.845   3.419  13.831  1.6137 -1.3288 -2.0011
    4DOPE  C214  454   5.832   3.209  13.784  0.3269  0.0775 -0.3666
    4DOPE  H14R  455   5.721   3.203  13.787  0.2317  1.2545 -0.8065
    4DOPE  H14S  456   5.886   3.122  13.826  2.1282  1.3965  0.1932
    4DOPE  C215  457   5.863   3.236  13.633 -0.4545  0.3301 -0.9549
    4DOPE  H15R  458   5.971   3.222  13.612  0.1046  0.9109  1.2330
    4DOPE  H15S  459   5.844   3.341  13.600  2.5190  1.7866  1.4908
    4DOPE  C216  460   5.789   3.137  13.543 -0.5981 -0.4697  0.5818
    4DOPE  H16R  461   5.682   3.166  13.546 -0.8205 -1.3438  1.8960
    4DOPE  H16S  462   5.800   3.033  13.583  0.7861 -1.1174 -1.3239
    4DOPE  C217  463   5.839   3.140  13.396  0.7635  0.3207 -0.4789
    4DOPE  H17R  464   5.828   3.246  13.362 -1.0731  0.2519 -0.1878
    4DOPE  H17S  465   5.761   3.089  13.336 -0.4655  0.4134  0.9844
    4DOPE  C218  466   5.980   3.080  13.368 -0.1217  0.2882 -0.1153
    4DOPE  H18R  467   6.011   3.083  13.261 -0.3269 -0.3343 -0.1989
    4DOPE  H18S  468   5.976   2.969  13.380 -1.0859  0.2264 -0.8647
    4DOPE  H18T  469   6.059   3.128  13.430 -0.3308  0.0282  0.3583
    4DOPE   C33  470   5.366   2.053  14.082 -0.1789  0.2031  0.3395
    4DOPE   H3X  471   5.475   2.032  14.078  0.0201  1.2869 -0.2973
    4DOPE   H3Y  472   5.347   2.136  14.154  0.3295  2.1475 -1.6809
    4DOPE   C34  473   5.324   2.114  13.944  0.2203 -0.4879 -0.4134
    4DOPE   H4X  474   5.214   2.129  13.946  0.4708  1.8558 -0.5512
    4DOPE   H4Y  475   5.381   2.210  13.942 -0.4116 -0.0271  1.5977
    4DOPE   C35  476   5.371   2.020  13.835  0.3628  0.0475 -0.1958
    4DOPE   H5X  477   5.318   1.922  13.838 -0.7343  0.5958 -0.9328
    4DOPE   H5Y  478   5.480   2.004  13.850  0.2423  0.4333  1.2840
    4DOPE   C36  479   5.352   2.091  13.699  0.4614  0.2322 -0.4842
    4DOPE   H6X  480   5.391   2.195  13.711 -1.0345  0.5845  1.8756
    4DOPE   H6Y  481   5.246   2.097  13.666  0.7498  0.4924 -1.4077
    4DOPE   C37  482   5.411   2.004  13.586 -0.2196  0.2337  0.1155
    4DOPE   H7X  483   5.515   1.975  13.612 -0.3729 -0.6379 -0.1841
    4DOPE   H7Y  484   5.357   1.906  13.585  0.1272  0.0366 -0.8772
    4DOPE   C38  485   5.405   2.061  13.444  0.1744  0.3466 -0.0132
    4DOPE   H8X  486   5.312   2.122  13.436  0.0656  0.0719 -0.9690
    4DOPE   H8Y  487   5.391   1.969  13.383 -0.3712 -1.6811  2.9750
    4DOPE   C39  488   5.517   2.153  13.410  0.4743 -0.1199  0.0780
    4DOPE   H9X  489   5.534   2.230  13.487 -1.3074  0.5355 -0.1436
    4DOPE  C310  490   5.599   2.161  13.307 -0.2797 -0.5189 -0.1035
    4DOPE  H10X  491   5.669   2.246  13.303 -2.3264  1.2108 -1.1012
    4DOPE  C311  492   5.581   2.065  13.194 -0.7096  0.3710 -0.9201
    4DOPE  H11X  493   5.670   2.056  13.128 -0.1832  0.2860 -0.2133
    4DOPE  H11Y  494   5.562   1.961  13.230 -0.8378  0.1060 -1.7158
    4DOPE  C312  495   5.462   2.108  13.109  0.9193  0.1399  0.1154
    4DOPE  H12X  496   5.472   2.215  13.080 -0.9479 -0.0476 -1.4487
    4DOPE  H12Y  497   5.371   2.103  13.173  1.5359 -0.3642  0.9713
    4DOPE  C313  498   5.412   2.024  12.988  0.6631 -0.2442 -0.2214
    4DOPE  H13X  499   5.376   1.925  13.024 -1.0677  1.0443  1.8404
    4DOPE  H13Y  500   5.327   2.076  12.940  1.6892  2.6962  0.8754
    4DOPE  C314  501   5.513   2.004  12.879 -0.5696 -0.0132  0.4573
    4DOPE  H14X  502   5.619   2.005  12.911 -0.5004  2.4949  0.3605
    4DOPE  H14Y  503   5.510   2.084  12.801  1.9580  2.3158  2.5343
    4DOPE  C315  504   5.472   1.875  12.805  0.3421  0.4035 -0.7628
    4DOPE  H15X  505   5.365   1.877  12.776  0.5449 -1.2900 -1.8218
    4DOPE  H15Y  506   5.487   1.790  12.876  1.9138  0.7066 -0.6925
    4DOPE  C316  507   5.560   1.851  12.679 -0.0903 -0.0314  0.4192
    4DOPE  H16X  508   5.652   1.797  12.710 -0.4264 -1.4085 -0.8747
    4DOPE  H16Y  509   5.592   1.952  12.646  1.7433  0.0413  2.2304
    4DOPE  C317  510   5.503   1.774  12.554 -0.8462 -0.4576 -1.3177
    4DOPE  H17X  511   5.476   1.669  12.578 -0.1612 -0.4064 -0.2311
    4DOPE  H17Y  512   5.407   1.823  12.526 -2.9599 -1.3198  3.3149
    4DOPE  C318  513   5.600   1.769  12.436  0.6945 -0.3175  0.0987
    4DOPE  H18X  514   5.687   1.709  12.472  0.7896 -0.8906 -1.0444
    4DOPE  H18Y  515   5.563   1.712  12.348  0.8396  0.0427 -0.1965
    4DOPE  H18Z  516   5.640   1.865  12.396  1.8654 -0.1499  1.5771
    5DOPE     N  517   3.338   4.597  14.596  0.1605  0.3730 -0.3040
    5DOPE   HN1  518   3.371   4.670  14.662  0.5237 -0.5465  0.5526
    5DOPE   HN2  519   3.235   4.612  14.595 -0.2241 -1.4500  2.0177
    5DOPE   HN3  520   3.351   4.501  14.634 -2.1922 -0.2926 -0.9794
    5DOPE   C12  521   3.403   4.618  14.462 -0.7803  0.0443 -0.0097
    5DOPE  H12A  522   3.348   4.557  14.387 -0.5123 -0.8532  0.5198
    5DOPE  H12B  523   3.510   4.591  14.479 -0.9850  1.0714  3.8042
    5DOPE   C11  524   3.392   4.768  14.424  0.1291  0.6003 -1.1064
    5DOPE  H11A  525   3.290   4.805  14.403  0.0787  0.2467 -1.4964
    5DOPE  H11B  526   3.466   4.776  14.341  2.7013 -2.5808  0.6063
    5DOPE     P  527   3.439   4.996  14.543 -0.1412 -0.6669  0.2038
    5DOPE   O13  528   3.529   5.038  14.654  0.1527  0.3610  0.1249
    5DOPE   O14  529   3.294   5.038  14.566 -0.1584 -0.3291 -0.1246
    5DOPE   O11  530   3.486   5.051  14.402 -0.0539 -0.1951 -0.3121
    5DOPE   O12  531   3.441   4.841  14.530  0.5420 -0.4505  0.0292
    5DOPE    C1  532   3.440   5.170  14.345 -0.0477  0.6094  0.0063
    5DOPE    HA  533   3.512   5.253  14.362 -1.8926  2.1233  0.8420
    5DOPE    HB  534   3.343   5.204  14.387 -0.5085  3.6059 -3.0158
    5DOPE    C2  535   3.430   5.144  14.190  0.3163 -0.4468  0.4834
    5DOPE    HS  536   3.387   5.233  14.140  0.7238 -0.8290 -0.5719
    5DOPE   O21  537   3.354   5.021  14.157 -0.1793  0.1576  0.0006
    5DOPE   C21  538   3.225   5.036  14.166  0.1182 -0.3599 -0.2010
    5DOPE   O22  539   3.169   5.148  14.186 -0.6537  0.5426  0.6948
    5DOPE   C22  540   3.157   4.887  14.136 -0.1584 -0.1824  0.3378
    5DOPE   H2R  541   3.052   4.897  14.170 -0.3779 -1.6140  0.1414
    5DOPE   H2S  542   3.203   4.813  14.206 -3.1625 -3.2170 -0.6445
    5DOPE    C3  543   3.574   5.125  14.139  0.5556 -0.1618  0.5956
    5DOPE    HX  544   3.609   5.025  14.175 -0.7808 -0.5171  0.9605
    5DOPE    HY  545   3.634   5.198  14.197 -2.1085  1.7054  1.1942
    5DOPE   O31  546   3.575   5.138  13.994 -0.1190 -0.2833  0.0506
    5DOPE   C31  547   3.594   5.262  13.945 -0.1800 -0.5536 -0.1142
    5DOPE   O32  548   3.616   5.358  14.018 -0.3012 -0.4846  0.2896
    5DOPE   C32  549   3.590   5.262  13.791  0.9680 -0.2672  0.2380
    5DOPE   H2X  550   3.686   5.227  13.746 -1.3129 -1.6040 -4.0993
    5DOPE   H2Y  551   3.517   5.184  13.761  1.2902 -1.4474  2.2974
    5DOPE   C23  552   3.163   4.835  13.987 -0.1104 -0.4797  0.6602
    5DOPE   H3R  553   3.160   4.918  13.914  2.0926 -0.9834 -0.0564
    5DOPE   H3S  554   3.084   4.758  13.973  0.7292 -1.1496 -0.4584
    5DOPE   C24  555   3.305   4.760  13.967  0.7712  0.3617 -0.2072
    5DOPE   H4R  556   3.300   4.665  14.025  1.4787  0.3838 -0.1081
    5DOPE   H4S  557   3.395   4.817  13.997  0.0689  0.6347  1.5574
    5DOPE   C25  558   3.329   4.696  13.820  0.2326  0.5193  0.3934
    5DOPE   H5R  559   3.407   4.617  13.815 -0.6259 -0.3124  0.0619
    5DOPE   H5S  560   3.359   4.784  13.759 -2.2095 -0.3754 -2.2808
    5DOPE   C26  561   3.194   4.641  13.759  0.3891  0.2078 -0.6269
    5DOPE   H6R  562   3.135   4.730  13.728 -1.5649 -1.4676 -1.9718
    5DOPE   H6S  563   3.138   4.577  13.831  0.3346  1.8744  0.8720
    5DOPE   C27  564   3.218   4.558  13.631 -0.3444 -0.7084  0.5014
    5DOPE   H7R  565   3.113   4.533  13.604  0.0220 -0.5664 -1.2220
    5DOPE   H7S  566   3.282   4.472  13.659  0.6230 -0.7160 -1.5435
    5DOPE   C28  567   3.283   4.624  13.502  0.5548 -0.2514 -0.3746
    5DOPE   H8R  568   3.286   4.539  13.431 -1.2809 -1.2340  0.6548
    5DOPE   H8S  569   3.385   4.662  13.522 -0.1658  0.0702  3.4684
    5DOPE   C29  570   3.216   4.743  13.433 -0.1495  0.4511  0.1250
    5DOPE   H9R  571   3.191   4.825  13.502 -0.5133 -0.4708  1.1220
    5DOPE  C210  572   3.177   4.741  13.306 -0.1925 -0.0561 -0.0381
    5DOPE  H10R  573   3.117   4.822  13.262 -0.3710 -0.2867 -0.2249
    5DOPE  C211  574   3.198   4.628  13.210  0.0173 -0.7922  0.5823
    5DOPE  H11R  575   3.098   4.582  13.194  0.0552  0.0930 -3.1134
    5DOPE  H11S  576   3.257   4.539  13.243  0.6682 -1.6180 -2.4689
    5DOPE  C212  577   3.262   4.658  13.074  0.2195 -0.5684  0.3960
    5DOPE  H12R  578   3.297   4.563  13.029 -0.0174  0.4545 -2.1549
    5DOPE  H12S  579   3.356   4.710  13.104 -0.7041  1.4093  0.0779
    5DOPE  C213  580   3.180   4.742  12.978 -0.5951  0.2888 -0.0813
    5DOPE  H13R  581   3.173   4.843  13.023 -0.5015  0.1160  0.3282
    5DOPE  H13S  582   3.080   4.699  12.956 -0.1183 -0.0552 -1.7431
    5DOPE  C214  583   3.254   4.733  12.838  0.0355 -0.5882 -0.0115
    5DOPE  H14R  584   3.265   4.625  12.813 -2.5224 -0.7506 -0.7209
    5DOPE  H14S  585   3.350   4.790  12.839 -1.0159  1.2817  1.8539
    5DOPE  C215  586   3.161   4.789  12.727  0.1641  0.2107  0.0980
    5DOPE  H15R  587   3.130   4.892  12.756  0.3229  0.3296 -0.1409
    5DOPE  H15S  588   3.063   4.736  12.719  1.3866 -2.5156  1.9223
    5DOPE  C216  589   3.227   4.810  12.591  0.8133 -0.7461  0.0388
    5DOPE  H16R  590   3.329   4.855  12.598  1.0245 -1.1850 -0.1569
    5DOPE  H16S  591   3.166   4.880  12.531  1.2048  0.2690  0.7959
    5DOPE  C217  592   3.236   4.675  12.523 -0.4403  0.2542  0.1854
    5DOPE  H17R  593   3.135   4.630  12.535 -0.0663 -0.2509  1.6849
    5DOPE  H17S  594   3.315   4.617  12.575  0.8775  1.9045  0.1066
    5DOPE  C218  595   3.268   4.677  12.379 -0.0714 -0.0682  0.7535
    5DOPE  H18R  596   3.339   4.757  12.350  3.1672 -3.1782 -0.5651
    5DOPE  H18S  597   3.181   4.686  12.311  0.6530  1.2832 -0.0305
    5DOPE  H18T  598   3.310   4.581  12.342 -0.2739  0.2636 -0.3726
    5DOPE   C33  599   3.535   5.397  13.736 -0.6415 -0.8947 -0.3426
    5DOPE   H3X  600   3.620   5.469  13.738 -1.6543  0.3743  3.1042
    5DOPE   H3Y  601   3.456   5.440  13.801  1.1080  0.8010  0.7932
    5DOPE   C34  602   3.489   5.390  13.591  0.4743 -0.4495 -0.4261
    5DOPE   H4X  603   3.403   5.319  13.583 -0.6112  0.8367 -0.5597
    5DOPE   H4Y  604   3.452   5.485  13.547 -3.3500 -2.6936 -2.7160
    5DOPE   C35  605   3.606   5.343  13.499  0.9248 -0.1628  0.8360
    5DOPE   H5X  606   3.694   5.392  13.546  1.1393  2.1313 -1.6877
    5DOPE   H5Y  607   3.592   5.395  13.402  0.6696 -1.4430  0.1654
    5DOPE   C36  608   3.628   5.189  13.487 -0.4848 -0.3424 -0.2029
    5DOPE   H6X  609   3.558   5.127  13.547 -0.3260 -0.6998 -0.3879
    5DOPE   H6Y  610   3.731   5.170  13.525  0.7078 -3.1165 -4.2309
    5DOPE   C37  611   3.622   5.132  13.344 -0.4228 -0.2875  0.0743
    5DOPE   H7X  612   3.519   5.160  13.312 -0.8401 -1.9041 -0.0618
    5DOPE   H7Y  613   3.697   5.187  13.284 -1.2091  0.0037 -0.6620
    5DOPE   C38  614   3.628   4.981  13.336  0.6319 -0.2655  0.4770
    5DOPE   H8X  615   3.538   4.950  13.395 -0.9149 -0.0812 -1.6550
    5DOPE   H8Y  616   3.723   4.952  13.384  0.3726 -0.1919  1.0434
    5DOPE   C39  617   3.616   4.920  13.197 -0.1042 -0.4886  0.0358
    5DOPE   H9X  618   3.519   4.870  13.180  0.2509 -0.5234 -2.0821
    5DOPE  C310  619   3.688   4.940  13.088 -0.2385 -0.1039  0.9867
    5DOPE  H10X  620   3.662   4.893  12.992 -2.2331  2.6634  0.0539
    5DOPE  C311  621   3.817   5.021  13.087 -0.2607  0.5740 -0.0044
    5DOPE  H11X  622   3.799   5.098  13.010 -2.0584 -0.2095 -0.4213
    5DOPE  H11Y  623   3.831   5.071  13.185 -1.7219 -2.8722  2.1731
    5DOPE  C312  624   3.938   4.935  13.065 -0.5699 -0.0995 -0.6479
    5DOPE  H12X  625   3.941   4.866  12.978  2.1705 -2.6306  1.2537
    5DOPE  H12Y  626   3.943   4.866  13.151 -2.2928 -0.5842 -0.8923
    5DOPE  C313  627   4.061   5.020  13.030 -0.2353 -0.4736 -0.0683
    5DOPE  H13X  628   4.058   5.109  13.097  0.5692 -1.0918  0.8083
    5DOPE  H13Y  629   4.144   4.948  13.046 -0.2863 -0.3787  0.6472
    5DOPE  C314  630   4.057   5.066  12.881  0.7338 -0.1280  0.2925
    5DOPE  H14X  631   4.139   5.139  12.865  0.9517 -0.8339 -2.3121
    5DOPE  H14Y  632   3.965   5.124  12.855  0.7813  0.4097  1.2777
    5DOPE  C315  633   4.089   4.963  12.772 -0.3262 -0.0469 -0.2975
    5DOPE  H15X  634   4.014   4.880  12.770 -0.7233  0.2697  1.0303
    5DOPE  H15Y  635   4.192   4.931  12.799  0.1293  1.4040 -0.2312
    5DOPE  C316  636   4.091   5.029  12.629 -0.0299 -0.2356  0.1278
    5DOPE  H16X  637   4.155   5.118  12.645  1.9482 -1.5892  0.1724
    5DOPE  H16Y  638   3.991   5.068  12.601  0.1309 -0.7320 -1.2094
    5DOPE  C317  639   4.147   4.938  12.522 -0.4123  0.2396 -0.3154
    5DOPE  H17X  640   4.248   4.903  12.552 -0.7287 -0.6889 -0.2887
    5DOPE  H17Y  641   4.091   4.842  12.532 -0.0960  0.1491  0.7315
    5DOPE  C318  642   4.149   4.994  12.386  0.3354 -0.3490  0.4801
    5DOPE  H18X  643   4.209   5.087  12.380  1.9191 -1.3649 -0.2028
    5DOPE  H18Y  644   4.191   4.925  12.309  0.7603  1.0402 -0.5538
    5DOPE  H18Z  645   4.044   5.020  12.360  1.0947 -0.9326 -3.8415
    6DOPE     N  646   3.567   5.668  14.318 -0.0823  0.1983  0.0310
    6DOPE   HN1  647   3.509   5.686  14.233  0.4936 -0.2112 -0.4566
    6DOPE   HN2  648   3.615   5.757  14.345 -1.3284  0.5068  1.3279
    6DOPE   HN3  649   3.642   5.599  14.297 -0.6555 -0.9448  1.5821
    6DOPE   C12  650   3.491   5.619  14.437 -0.4347 -0.3229 -1.0916
    6DOPE  H12A  651   3.456   5.703  14.502  1.8176 -1.1538  1.3430
    6DOPE  H12B  652   3.555   5.563  14.508 -1.8705  0.7864  1.2238
    6DOPE   C11  653   3.376   5.528  14.396  0.2864  0.5193 -0.4070
    6DOPE  H11A  654   3.330   5.476  14.482 -1.5990  1.9113 -0.4973
    6DOPE  H11B  655   3.413   5.452  14.324 -0.3915 -0.0673 -0.1515
    6DOPE     P  656   3.159   5.682  14.382  0.3272  0.1705  0.1500
    6DOPE   O13  657   3.202   5.815  14.420 -0.6421  0.3869  0.6191
    6DOPE   O14  658   3.087   5.612  14.491  0.7458  0.0090 -0.0078
    6DOPE   O11  659   3.057   5.698  14.264  0.1175 -0.2941 -0.1207
    6DOPE   O12  660   3.280   5.603  14.324  0.2336  0.5550  0.0102
    6DOPE    C1  661   2.988   5.582  14.205  0.1458  0.5616 -0.0681
    6DOPE    HA  662   2.881   5.604  14.187 -0.0548 -0.9405 -0.8134
    6DOPE    HB  663   2.975   5.506  14.284 -2.9516  0.8706 -0.1619
    6DOPE    C2  664   3.061   5.518  14.086 -0.3353 -0.1154 -0.2262
    6DOPE    HS  665   3.161   5.481  14.116 -0.4680  0.9347  1.6303
    6DOPE   O21  666   3.053   5.599  13.972  0.1321  0.3786 -0.0554
    6DOPE   C21  667   3.156   5.605  13.895  0.3809 -0.5310  0.5067
    6DOPE   O22  668   3.263   5.545  13.910 -0.4730 -0.4952 -0.4175
    6DOPE   C22  669   3.129   5.691  13.774 -0.7581 -0.3858 -0.3716
    6DOPE   H2R  670   3.141   5.797  13.802 -0.2981 -0.7650  0.9613
    6DOPE   H2S  671   3.022   5.674  13.748 -0.8352  2.3171 -2.1427
    6DOPE    C3  672   2.986   5.389  14.051 -0.0717 -0.3017 -0.1186
    6DOPE    HX  673   2.881   5.407  14.018 -0.5510  1.6934  2.1824
    6DOPE    HY  674   2.976   5.327  14.142 -0.8030  2.9360  2.1808
    6DOPE   O31  675   3.052   5.322  13.944 -0.3850  0.0445  0.5180
    6DOPE   C31  676   3.009   5.198  13.919 -0.0853 -0.2152  0.1300
    6DOPE   O32  677   2.956   5.118  13.994 -0.1413 -0.2530  0.1695
    6DOPE   C32  678   3.043   5.155  13.772  0.0302 -0.0528 -0.3513
    6DOPE   H2X  679   3.023   5.046  13.776  3.4888 -0.9109 -2.1141
    6DOPE   H2Y  680   2.973   5.203  13.701 -1.8588  0.5080  1.7932
    6DOPE   C23  681   3.218   5.647  13.653  0.0635  0.3924  0.2366
    6DOPE   H3R  682   3.194   5.540  13.633  1.6016 -0.4786  2.5630
    6DOPE   H3S  683   3.328   5.644  13.669 -0.3472 -1.8760  3.8762
    6DOPE   C24  684   3.171   5.713  13.522 -0.5097  0.3563 -0.0087
    6DOPE   H4R  685   3.198   5.821  13.517  0.0968  0.2354  0.4647
    6DOPE   H4S  686   3.060   5.705  13.520 -0.4744 -0.8621  1.2099
    6DOPE   C25  687   3.225   5.636  13.393 -0.0480  0.5717  0.1671
    6DOPE   H5R  688   3.186   5.532  13.396 -1.2992  0.9825  3.9061
    6DOPE   H5S  689   3.336   5.626  13.391  0.1691  2.5286 -0.3671
    6DOPE   C26  690   3.170   5.702  13.261 -0.5180  0.8854 -0.3800
    6DOPE   H6R  691   3.215   5.802  13.246  2.2347 -0.3862 -1.3139
    6DOPE   H6S  692   3.059   5.703  13.265 -0.4836  1.4756  0.6788
    6DOPE   C27  693   3.208   5.607  13.140 -0.5483 -0.1435 -0.0997
    6DOPE   H7R  694   3.155   5.646  13.051  1.0938 -0.5870 -1.3185
    6DOPE   H7S  695   3.180   5.502  13.164 -0.9278 -0.1706 -0.6333
    6DOPE   C28  696   3.364   5.597  13.109 -0.4681 -0.3182 -0.6559
    6DOPE   H8R  697   3.381   5.520  13.030 -1.9427 -2.1190  0.7049
    6DOPE   H8S  698   3.412   5.551  13.198 -0.0350 -1.5899 -1.5185
    6DOPE   C29  699   3.421   5.728  13.081 -0.2039 -0.9288 -0.0700
    6DOPE   H9R  700   3.449   5.782  13.172  1.0557  0.0689 -1.0246
    6DOPE  C210  701   3.455   5.784  12.966  0.5396  0.0949  0.0606
    6DOPE  H10R  702   3.498   5.885  12.962  3.5679 -1.0797 -0.4424
    6DOPE  C211  703   3.459   5.710  12.836  0.3815  0.3610 -0.0581
    6DOPE  H11R  704   3.441   5.601  12.842 -0.2331  0.5108  1.0498
    6DOPE  H11S  705   3.565   5.711  12.805 -0.0234 -0.1918 -1.5568
    6DOPE  C212  706   3.364   5.769  12.730 -0.7276 -0.1927  0.7282
    6DOPE  H12R  707   3.398   5.874  12.717 -3.4095  0.6835  0.1418
    6DOPE  H12S  708   3.261   5.783  12.770 -1.0350  1.0079 -0.4054
    6DOPE  C213  709   3.340   5.685  12.603  0.5889  0.4504 -0.0292
    6DOPE  H13R  710   3.336   5.582  12.645  0.3881  1.2119  1.9520
    6DOPE  H13S  711   3.420   5.695  12.527  0.0060 -1.1762 -0.8897
    6DOPE  C214  712   3.206   5.703  12.532  0.0797  0.2146  0.2629
    6DOPE  H14R  713   3.199   5.807  12.495  0.2856 -0.3810 -1.5126
    6DOPE  H14S  714   3.136   5.694  12.618  1.1895 -2.2429  1.0022
    6DOPE  C215  715   3.162   5.612  12.420 -0.2083  0.6732 -0.3316
    6DOPE  H15R  716   3.057   5.621  12.385 -0.2845 -1.2619 -0.7402
    6DOPE  H15S  717   3.165   5.504  12.448 -2.7533  0.2591 -1.4264
    6DOPE  C216  718   3.253   5.626  12.292 -0.5257  0.6483 -0.2136
    6DOPE  H16R  719   3.354   5.622  12.340 -0.2219  0.7688 -0.8342
    6DOPE  H16S  720   3.260   5.731  12.256  2.3641  0.1746 -1.3700
    6DOPE  C217  721   3.236   5.527  12.177 -1.0569  0.2562 -0.3795
    6DOPE  H17R  722   3.222   5.428  12.226 -2.0867  0.5802  0.0174
    6DOPE  H17S  723   3.325   5.525  12.111  0.3993 -0.9804  1.5396
    6DOPE  C218  724   3.106   5.549  12.095 -0.1270 -0.5079 -0.0064
    6DOPE  H18R  725   3.019   5.558  12.164 -0.2072 -3.4521  0.3910
    6DOPE  H18S  726   3.074   5.469  12.026 -0.7448 -0.5434  0.3199
    6DOPE  H18T  727   3.115   5.642  12.034  0.1578  0.1201  0.9692
    6DOPE   C33  728   3.195   5.177  13.746 -0.3264  0.2300  0.2406
    6DOPE   H3X  729   3.257   5.136  13.829 -0.8331 -0.9154  0.0711
    6DOPE   H3Y  730   3.224   5.284  13.743 -1.7786  0.6726  1.0493
    6DOPE   C34  731   3.241   5.121  13.611 -0.3281 -0.0061 -0.5639
    6DOPE   H4X  732   3.351   5.136  13.597 -0.6188  3.5646 -0.0468
    6DOPE   H4Y  733   3.231   5.011  13.617 -0.0248 -0.0018  0.1297
    6DOPE   C35  734   3.162   5.185  13.496  0.9015  0.1361 -0.3299
    6DOPE   H5X  735   3.167   5.296  13.497  0.3540  0.1643  1.1137
    6DOPE   H5Y  736   3.057   5.149  13.500  0.6062 -0.3321 -5.1850
    6DOPE   C36  737   3.212   5.133  13.358  0.3201 -0.1923  0.1264
    6DOPE   H6X  738   3.168   5.032  13.347 -0.0063  0.0555 -0.9204
    6DOPE   H6Y  739   3.324   5.131  13.359  0.3076 -1.5321  0.1449
    6DOPE   C37  740   3.165   5.232  13.253 -1.0893 -0.6384  0.2531
    6DOPE   H7X  741   3.060   5.257  13.277 -0.9330 -0.2732  0.5721
    6DOPE   H7Y  742   3.229   5.321  13.272 -1.7204 -0.2978  0.7852
    6DOPE   C38  743   3.173   5.177  13.108 -0.5674 -0.5663  0.2154
    6DOPE   H8X  744   3.125   5.250  13.038 -1.4835 -0.8908  0.4912
    6DOPE   H8Y  745   3.107   5.089  13.099 -0.1873 -0.9748  1.2576
    6DOPE   C39  746   3.308   5.144  13.057 -0.1336  0.0186 -0.2422
    6DOPE   H9X  747   3.359   5.065  13.114  1.3459  0.9278 -0.2341
    6DOPE  C310  748   3.369   5.201  12.946  0.4409 -0.4879  0.4802
    6DOPE  H10X  749   3.459   5.155  12.902  1.2739  1.2927  0.2565
    6DOPE  C311  750   3.329   5.326  12.873  0.1720 -0.3713  0.2680
    6DOPE  H11X  751   3.255   5.375  12.940  0.2482  2.0283 -1.3197
    6DOPE  H11Y  752   3.408   5.401  12.857 -1.0047  0.6574 -0.9926
    6DOPE  C312  753   3.255   5.304  12.749  0.1346  0.2232  0.1612
    6DOPE  H12X  754   3.225   5.402  12.708  0.7473  0.3414 -0.0047
    6DOPE  H12Y  755   3.159   5.250  12.767 -0.2203  0.5224 -0.8242
    6DOPE  C313  756   3.327   5.221  12.638 -0.6730 -0.0990 -0.9570
    6DOPE  H13X  757   3.373   5.137  12.695  0.1063  0.9034 -0.0536
    6DOPE  H13Y  758   3.248   5.187  12.569 -0.5466  1.5883 -1.9999
    6DOPE  C314  759   3.438   5.300  12.570  0.2652 -0.3948 -0.2402
    6DOPE  H14X  760   3.502   5.338  12.653 -1.1332  2.5860 -0.3907
    6DOPE  H14Y  761   3.403   5.389  12.513  1.9636 -0.2699 -1.1428
    6DOPE  C315  762   3.529   5.224  12.471 -0.0807 -0.0539  0.1037
    6DOPE  H15X  763   3.608   5.287  12.426  1.1373 -1.0300  0.7850
    6DOPE  H15Y  764   3.463   5.192  12.387 -0.7894  0.3829  0.4872
    6DOPE  C316  765   3.586   5.098  12.538 -0.1799 -0.2236 -0.1985
    6DOPE  H16X  766   3.504   5.028  12.568 -1.3837  2.1470  2.6103
    6DOPE  H16Y  767   3.645   5.122  12.629 -1.1638 -1.9390  0.9671
    6DOPE  C317  768   3.682   5.022  12.448  0.5539  0.1145  0.1553
    6DOPE  H17X  769   3.626   4.993  12.356  0.5604 -2.2571  0.8339
    6DOPE  H17Y  770   3.770   5.088  12.431  2.1242 -1.0930  2.9499
    6DOPE  C318  771   3.735   4.887  12.511 -0.4109  0.0367  0.5658
    6DOPE  H18X  772   3.800   4.908  12.599 -0.4941  0.4696  0.5250
    6DOPE  H18Y  773   3.659   4.813  12.544  0.9868 -2.0755 -0.6829
    6DOPE  H18Z  774   3.797   4.825  12.443  1.2790  0.1580  1.9180
    7DOPE     N  775   5.174   5.321  14.582 -0.6089 -0.3655 -0.1338
    7DOPE   HN1  776   5.097   5.284  14.522 -1.6858 -2.1641  2.2059
    7DOPE   HN2  777   5.149   5.318  14.683  2.2694  1.3902  0.7543
    7DOPE   HN3  778   5.184   5.421  14.557  1.8117  0.0371  2.0918
    7DOPE   C12  779   5.306   5.259  14.548  0.2430  0.7436  0.4501
    7DOPE  H12A  780   5.375   5.337  14.511 -2.1136  2.4809 -0.5703
    7DOPE  H12B  781   5.289   5.180  14.471 -0.4916 -0.5801  1.9104
    7DOPE   C11  782   5.363   5.203  14.683  0.9158  0.0462  0.1459
    7DOPE  H11A  783   5.379   5.286  14.755  1.2298 -0.0288  0.1608
    7DOPE  H11B  784   5.466   5.169  14.659  0.5385 -0.5194 -0.7305
    7DOPE     P  785   5.311   5.002  14.839 -0.0073  0.0025  0.2449
    7DOPE   O13  786   5.203   4.912  14.868  0.4556  0.2937  0.2942
    7DOPE   O14  787   5.358   5.072  14.962  0.0518  0.2200  0.0606
    7DOPE   O11  788   5.430   4.923  14.768  0.1892 -0.2200  0.7580
    7DOPE   O12  789   5.270   5.112  14.730 -0.0945  0.1563  0.2480
    7DOPE    C1  790   5.414   4.831  14.659  0.1617 -0.0144 -0.1097
    7DOPE    HA  791   5.307   4.827  14.626  0.1351  4.0294 -0.9743
    7DOPE    HB  792   5.441   4.725  14.679 -1.4746 -0.4992 -0.2601
    7DOPE    C2  793   5.497   4.884  14.541 -0.0981  0.3757  0.1843
    7DOPE    HS  794   5.490   4.995  14.543 -1.7110  0.2883  0.4227
    7DOPE   O21  795   5.441   4.837  14.419  0.4223 -0.1807  0.4278
    7DOPE   C21  796   5.465   4.912  14.309 -0.5993 -0.2349  0.1954
    7DOPE   O22  797   5.512   5.025  14.305 -0.2214  0.7731  0.1726
    7DOPE   C22  798   5.436   4.828  14.189  0.0883  0.3275  0.1013
    7DOPE   H2R  799   5.326   4.820  14.176  0.1464  0.9287 -0.8139
    7DOPE   H2S  800   5.468   4.726  14.219 -1.1347  0.2100  1.0904
    7DOPE    C3  801   5.644   4.842  14.551 -0.4937  0.3656 -0.8840
    7DOPE    HX  802   5.648   4.732  14.563  2.2819  0.4472 -0.4925
    7DOPE    HY  803   5.689   4.875  14.647  2.3264 -0.6234 -1.7582
    7DOPE   O31  804   5.724   4.881  14.442  0.3510  0.0849 -0.9664
    7DOPE   C31  805   5.786   5.003  14.447  0.0182 -0.7481  0.3772
    7DOPE   O32  806   5.784   5.080  14.541  0.7921  0.1556 -0.2803
    7DOPE   C32  807   5.876   5.026  14.322  0.0123  0.4322 -0.0680
    7DOPE   H2X  808   5.982   5.042  14.351  0.3516  1.7309 -1.8520
    7DOPE   H2Y  809   5.859   4.933  14.263 -2.3032 -1.5810  3.4018
    7DOPE   C23  810   5.504   4.869  14.052 -0.0925  0.4717 -0.1785
    7DOPE   H3R  811   5.487   4.783  13.984  0.9822  0.6218 -0.6557
    7DOPE   H3S  812   5.615   4.879  14.062 -0.0343  0.7106 -0.9732
    7DOPE   C24  813   5.455   4.994  13.986 -0.4662 -0.4618 -0.2083
    7DOPE   H4R  814   5.491   5.079  14.048 -2.4584  0.0379  0.3337
    7DOPE   H4S  815   5.345   5.010  13.986 -0.4983 -0.6576  0.3144
    7DOPE   C25  816   5.519   5.011  13.841  0.2345 -0.5985  0.4368
    7DOPE   H5R  817   5.624   4.975  13.838 -0.2819 -2.1184 -0.0899
    7DOPE   H5S  818   5.521   5.120  13.821 -0.2789 -0.7085 -0.2218
    7DOPE   C26  819   5.440   4.949  13.729 -0.3519  0.5149 -0.5451
    7DOPE   H6R  820   5.335   4.986  13.727 -1.1940 -1.7150 -1.3489
    7DOPE   H6S  821   5.427   4.840  13.747 -0.1561  0.6375  0.3702
    7DOPE   C27  822   5.500   4.986  13.592  0.7156 -0.0167 -0.0838
    7DOPE   H7R  823   5.601   4.941  13.590 -0.0025 -1.8358  1.5397
    7DOPE   H7S  824   5.502   5.097  13.599 -0.4646  0.1503 -1.7287
    7DOPE   C28  825   5.425   4.922  13.475  0.0762  0.1854  0.4311
    7DOPE   H8R  826   5.471   4.972  13.387  1.4445 -1.2692  0.2726
    7DOPE   H8S  827   5.316   4.945  13.472  0.3161  1.6296  1.7612
    7DOPE   C29  828   5.435   4.769  13.471  0.6319 -0.6266  0.4568
    7DOPE   H9R  829   5.375   4.713  13.545  1.4771  0.0595  1.7062
    7DOPE  C210  830   5.487   4.694  13.369 -0.7016 -0.3354 -0.0690
    7DOPE  H10R  831   5.499   4.585  13.374 -0.2846 -0.2417  1.3491
    7DOPE  C211  832   5.544   4.763  13.244 -0.1403 -0.3656  0.1372
    7DOPE  H11R  833   5.620   4.696  13.199 -1.7513 -2.4931  0.3779
    7DOPE  H11S  834   5.604   4.845  13.287  0.6666 -0.5461 -0.6235
    7DOPE  C212  835   5.445   4.819  13.145  0.8040  0.4018 -0.2207
    7DOPE  H12R  836   5.502   4.876  13.069  0.0489  3.3117  1.2405
    7DOPE  H12S  837   5.379   4.894  13.194 -0.4261 -1.8768  1.8120
    7DOPE  C213  838   5.369   4.706  13.079  0.2695 -0.2706  0.0435
    7DOPE  H13R  839   5.295   4.659  13.147  0.0898  0.5302  0.4178
    7DOPE  H13S  840   5.439   4.622  13.061 -2.7234 -2.8893 -0.1727
    7DOPE  C214  841   5.317   4.749  12.940 -0.4382 -0.0679 -0.7790
    7DOPE  H14R  842   5.272   4.851  12.948 -2.1691 -0.5422 -3.2904
    7DOPE  H14S  843   5.228   4.692  12.905 -1.7878  2.1341 -1.1326
    7DOPE  C215  844   5.425   4.752  12.837  0.5017  0.1964 -0.4091
    7DOPE  H15R  845   5.477   4.654  12.834  0.8914  0.3793  0.1578
    7DOPE  H15S  846   5.493   4.833  12.873 -0.1586  1.7045 -2.3240
    7DOPE  C216  847   5.372   4.794  12.701 -0.3752  0.0376 -0.2638
    7DOPE  H16R  848   5.311   4.885  12.719  1.1307  1.1427 -0.5215
    7DOPE  H16S  849   5.308   4.712  12.663 -1.2443  0.1556  0.9045
    7DOPE  C217  850   5.489   4.821  12.614 -0.2568 -0.0360  0.7417
    7DOPE  H17R  851   5.545   4.726  12.595 -0.5339 -1.0793  4.4003
    7DOPE  H17S  852   5.560   4.893  12.659 -0.2977  0.1830  0.4635
    7DOPE  C218  853   5.449   4.879  12.482 -0.0630  0.4773  0.3468
    7DOPE  H18R  854   5.409   4.791  12.427 -0.5258  0.4571  0.7180
    7DOPE  H18S  855   5.537   4.926  12.433 -0.4426  0.2260 -0.6077
    7DOPE  H18T  856   5.364   4.949  12.492  0.6347  1.4886 -0.5175
    7DOPE   C33  857   5.821   5.152  14.248 -0.3476  0.1657 -0.3709
    7DOPE   H3X  858   5.810   5.229  14.327 -2.2973 -0.5929  0.1586
    7DOPE   H3Y  859   5.729   5.131  14.188  0.4040  0.0040 -1.5130
    7DOPE   C34  860   5.927   5.202  14.144 -0.0567 -0.3929 -0.0342
    7DOPE   H4X  861   5.885   5.290  14.090 -0.2191 -0.4340  0.0236
    7DOPE   H4Y  862   6.018   5.237  14.197  1.5720 -1.0154 -2.2815
    7DOPE   C35  863   5.954   5.092  14.044 -0.2570  0.8309 -0.7666
    7DOPE   H5X  864   5.860   5.036  14.024  0.0347 -0.9354  2.1259
    7DOPE   H5Y  865   6.016   5.011  14.089 -1.5803 -0.5136 -1.2772
    7DOPE   C36  866   6.018   5.127  13.912  0.1723 -0.1611 -0.4209
    7DOPE   H6X  867   6.122   5.161  13.931  0.9386 -2.4176 -0.3158
    7DOPE   H6Y  868   5.955   5.205  13.864 -0.1884 -0.2441 -0.0886
    7DOPE   C37  869   6.010   5.002  13.823 -0.2711  0.4655  1.3472
    7DOPE   H7X  870   6.056   4.917  13.877  3.2556  0.8886 -0.6572
    7DOPE   H7Y  871   5.905   4.976  13.801  0.0280  0.9063 -0.7505
    7DOPE   C38  872   6.096   5.020  13.700 -0.0938 -0.3847  0.1515
    7DOPE   H8X  873   6.191   5.061  13.740  0.4281 -2.7242  1.4840
    7DOPE   H8Y  874   6.053   5.101  13.637  0.7853 -1.1306 -1.4951
    7DOPE   C39  875   6.117   4.901  13.617  0.2965  0.3500  0.1918
    7DOPE   H9X  876   6.213   4.849  13.633  0.8690  1.8047  1.6926
    7DOPE  C310  877   6.025   4.841  13.542 -0.2700  0.0326  0.0367
    7DOPE  H10X  878   6.059   4.759  13.476  0.9766  0.2347  0.3887
    7DOPE  C311  879   5.881   4.878  13.520  0.0718  0.1914 -0.2114
    7DOPE  H11X  880   5.809   4.794  13.520  1.4670 -1.0571 -0.9451
    7DOPE  H11Y  881   5.837   4.941  13.601  0.8825  1.6071 -0.8301
    7DOPE  C312  882   5.874   4.955  13.385  0.0122  0.5910  0.1723
    7DOPE  H12X  883   5.934   5.048  13.374 -0.0425  0.6113  0.0378
    7DOPE  H12Y  884   5.770   4.992  13.370 -0.1089  0.2996  0.2979
    7DOPE  C313  885   5.912   4.861  13.276  0.3173  0.2171  0.3634
    7DOPE  H13X  886   6.004   4.799  13.284  0.7609  0.8840  0.5420
    7DOPE  H13Y  887   5.822   4.796  13.267 -0.0260  0.8765 -1.5175
    7DOPE  C314  888   5.921   4.943  13.145 -0.2927 -0.3093  0.3983
    7DOPE  H14X  889   5.996   5.025  13.138 -2.4877  1.7401 -0.3556
    7DOPE  H14Y  890   5.832   5.009  13.137  1.8843  2.6187 -2.7615
    7DOPE  C315  891   5.931   4.862  13.017 -0.0075  0.1682 -0.0418
    7DOPE  H15X  892   5.846   4.791  13.020  1.0173 -1.1069 -0.1645
    7DOPE  H15Y  893   6.030   4.811  13.016 -0.2171 -0.2399 -0.0466
    7DOPE  C316  894   5.925   4.946  12.888 -0.5902  0.4015  0.1852
    7DOPE  H16X  895   6.026   4.991  12.896  0.7978 -2.5619  0.6563
    7DOPE  H16Y  896   5.848   5.026  12.897 -2.9359 -1.5637 -1.1337
    7DOPE  C317  897   5.916   4.871  12.752  0.2184  0.2580 -0.6215
    7DOPE  H17X  898   5.914   4.948  12.672 -1.4721  0.1613 -0.7203
    7DOPE  H17Y  899   6.002   4.802  12.743 -0.4586 -0.5537 -1.0136
    7DOPE  C318  900   5.791   4.780  12.760 -0.2326 -0.4172  0.5344
    7DOPE  H18X  901   5.767   4.741  12.658  1.3764  0.2169 -0.1264
    7DOPE  H18Y  902   5.811   4.695  12.828  3.1836  0.6039  0.9550
    7DOPE  H18Z  903   5.697   4.828  12.794 -0.7606  0.6000 -2.1232
    8DOPE     N  904   4.717   5.846  14.497 -0.3778  0.0138 -0.4007
    8DOPE   HN1  905   4.699   5.872  14.398  0.1601  0.1847 -0.4585
    8DOPE   HN2  906   4.640   5.874  14.561  0.0017  0.4662 -0.1353
    8DOPE   HN3  907   4.795   5.903  14.534  0.2027 -1.3337  0.5649
    8DOPE   C12  908   4.749   5.701  14.510  0.0687 -0.2271  0.1671
    8DOPE  H12A  909   4.653   5.645  14.506  0.0954 -0.3190  0.7628
    8DOPE  H12B  910   4.798   5.684  14.608  1.5471  0.5461 -0.4056
    8DOPE   C11  911   4.840   5.656  14.399 -0.5880  0.0097 -0.5563
    8DOPE  H11A  912   4.787   5.633  14.304  1.1630 -0.4765 -1.4433
    8DOPE  H11B  913   4.867   5.551  14.422 -2.0701 -0.4670 -0.8775
    8DOPE     P  914   5.091   5.724  14.450  0.0441 -0.2813 -0.4244
    8DOPE   O13  915   5.109   5.582  14.478 -0.4371  0.2969 -0.0823
    8DOPE   O14  916   5.097   5.819  14.565 -0.2581 -0.0463 -0.0739
    8DOPE   O11  917   5.194   5.771  14.342 -0.1815 -0.0126  0.6826
    8DOPE   O12  918   4.955   5.744  14.374  0.0568  0.2323 -0.8373
    8DOPE    C1  919   5.200   5.686  14.224  0.2545 -0.0239 -0.2722
    8DOPE    HA  920   5.102   5.686  14.173 -0.6550  3.5643  1.1490
    8DOPE    HB  921   5.228   5.583  14.254  2.1361  1.0793  2.1468
    8DOPE    C2  922   5.301   5.744  14.123 -0.9427  0.3657 -0.6378
    8DOPE    HS  923   5.383   5.787  14.184 -0.3850  0.8245 -1.6965
    8DOPE   O21  924   5.237   5.839  14.038  0.0894  0.3145  0.6724
    8DOPE   C21  925   5.313   5.944  14.000  0.5203 -0.0989 -0.4450
    8DOPE   O22  926   5.426   5.970  14.048  0.7542 -0.3769  0.0034
    8DOPE   C22  927   5.232   6.032  13.904  0.6671  0.3418 -0.4313
    8DOPE   H2R  928   5.290   6.123  13.875  0.3462  0.7650  0.2405
    8DOPE   H2S  929   5.145   6.073  13.959  1.2085 -0.7128  1.2717
    8DOPE    C3  930   5.354   5.631  14.042 -0.1231 -1.0254  0.0497
    8DOPE    HX  931   5.267   5.583  13.992  0.8197 -0.1714 -2.5630
    8DOPE    HY  932   5.407   5.556  14.105 -0.0189 -3.1672 -2.4093
    8DOPE   O31  933   5.442   5.674  13.937 -0.0202 -0.8142  0.3776
    8DOPE   C31  934   5.570   5.690  13.975 -0.0087 -0.1562  0.2667
    8DOPE   O32  935   5.618   5.656  14.078 -0.3296 -0.2322  0.0615
    8DOPE   C32  936   5.645   5.761  13.854  0.9159 -0.2510 -0.4013
    8DOPE   H2X  937   5.587   5.856  13.843  1.4561  0.0842 -0.4000
    8DOPE   H2Y  938   5.751   5.782  13.882  0.8521 -1.3873  0.7689
    8DOPE   C23  939   5.184   5.953  13.784  0.2311 -0.4219 -0.2567
    8DOPE   H3R  940   5.107   6.016  13.736 -0.1360  0.4588  1.4038
    8DOPE   H3S  941   5.124   5.869  13.827  0.3130 -1.1235 -1.4757
    8DOPE   C24  942   5.288   5.898  13.692 -0.0346 -0.6113  0.0858
    8DOPE   H4R  943   5.336   5.802  13.722  2.9811  0.5731 -0.5696
    8DOPE   H4S  944   5.372   5.970  13.677 -2.1083  1.3993 -2.8238
    8DOPE   C25  945   5.224   5.877  13.549 -0.0733 -0.0310 -0.5525
    8DOPE   H5R  946   5.189   5.973  13.505 -3.2147 -0.9518 -0.3013
    8DOPE   H5S  947   5.122   5.834  13.565 -0.1356  0.7925  1.5798
    8DOPE   C26  948   5.309   5.790  13.455 -0.2677 -0.1539 -0.0450
    8DOPE   H6R  949   5.341   5.694  13.501  0.8400  0.8985  1.4645
    8DOPE   H6S  950   5.403   5.847  13.438  0.0676  0.0091  2.1199
    8DOPE   C27  951   5.244   5.767  13.322 -0.4757  0.4984 -0.3598
    8DOPE   H7R  952   5.228   5.864  13.270  0.9190  2.5307  2.7181
    8DOPE   H7S  953   5.151   5.706  13.317 -0.5421  0.4149  1.3552
    8DOPE   C28  954   5.346   5.694  13.232  0.8900  0.1238 -0.2218
    8DOPE   H8R  955   5.365   5.594  13.276 -0.2453  0.4448  1.0679
    8DOPE   H8S  956   5.442   5.750  13.226  0.6164  0.8124  1.5169
    8DOPE   C29  957   5.295   5.674  13.089  0.3456  0.3106  0.2236
    8DOPE   H9R  958   5.190   5.640  13.082  0.6676 -1.0314  1.4045
    8DOPE  C210  959   5.361   5.703  12.974 -0.0845  0.5963 -0.9668
    8DOPE  H10R  960   5.309   5.694  12.878 -1.0241  0.4033 -0.4569
    8DOPE  C211  961   5.504   5.751  12.965  0.1322 -0.0308  0.5629
    8DOPE  H11R  962   5.566   5.712  13.049 -0.5157  2.7984  2.5363
    8DOPE  H11S  963   5.500   5.860  12.986 -0.2485  0.1216 -0.2661
    8DOPE  C212  964   5.580   5.728  12.834  0.0985 -0.2374 -0.1555
    8DOPE  H12R  965   5.584   5.618  12.819  0.8014 -0.5425  1.9252
    8DOPE  H12S  966   5.683   5.768  12.851 -0.1549  0.2440  0.2517
    8DOPE  C213  967   5.520   5.802  12.709  0.6991  0.0052  0.0297
    8DOPE  H13R  968   5.410   5.788  12.711  1.1030 -4.2703  0.7387
    8DOPE  H13S  969   5.558   5.754  12.617 -0.8407  2.7513 -2.1921
    8DOPE  C214  970   5.566   5.949  12.699  0.1753 -0.3298 -0.0146
    8DOPE  H14R  971   5.677   5.953  12.707  0.0356  0.8794  2.2310
    8DOPE  H14S  972   5.550   6.015  12.786 -0.8161  0.7498 -0.9973
    8DOPE  C215  973   5.527   6.031  12.570 -0.1417 -0.2492 -0.5151
    8DOPE  H15R  974   5.568   6.134  12.577 -0.5634  0.0102 -1.7239
    8DOPE  H15S  975   5.417   6.048  12.569 -0.0568  0.3433 -0.4152
    8DOPE  C216  976   5.586   5.969  12.436  0.2359  0.3772  0.5145
    8DOPE  H16R  977   5.555   5.863  12.425  3.0673 -0.4935  0.0710
    8DOPE  H16S  978   5.696   5.965  12.421 -0.1188  0.0819 -2.6953
    8DOPE  C217  979   5.558   6.045  12.306 -0.0629  0.1154  0.0754
    8DOPE  H17R  980   5.624   6.017  12.221 -0.2441 -1.3340  0.3903
    8DOPE  H17S  981   5.578   6.153  12.321  1.2765 -0.3555  2.0722
    8DOPE  C218  982   5.410   6.035  12.260  0.6596  0.1673  0.0161
    8DOPE  H18R  983   5.343   6.071  12.340  0.7123  0.4517 -0.0649
    8DOPE  H18S  984   5.394   5.927  12.239 -0.3540 -0.2384  2.5766
    8DOPE  H18T  985   5.399   6.093  12.166  1.0781  0.9286  0.4215
    8DOPE   C33  986   5.643   5.678  13.721  0.3159 -0.3181  0.3604
    8DOPE   H3X  987   5.659   5.730  13.625  2.1484 -0.9422  0.2881
    8DOPE   H3Y  988   5.542   5.634  13.708  0.6299 -2.1312  3.1860
    8DOPE   C34  989   5.737   5.557  13.727  0.0101  0.6866 -0.1110
    8DOPE   H4X  990   5.842   5.577  13.697  1.0571 -1.1323  2.0531
    8DOPE   H4Y  991   5.735   5.521  13.832 -1.3930  0.0901 -0.3175
    8DOPE   C35  992   5.681   5.439  13.636  0.4784 -0.2400 -0.1684
    8DOPE   H5X  993   5.578   5.410  13.666 -0.4706  1.3018 -1.7597
    8DOPE   H5Y  994   5.744   5.347  13.644  0.0601 -0.4560  0.8020
    8DOPE   C36  995   5.661   5.485  13.487  0.9782  0.5299  0.0109
    8DOPE   H6X  996   5.742   5.554  13.456 -0.1575  1.9412  0.1010
    8DOPE   H6Y  997   5.567   5.544  13.476 -0.3611 -1.5139 -0.1491
    8DOPE   C37  998   5.669   5.366  13.386 -0.0641 -0.3444 -0.6879
    8DOPE   H7X  999   5.773   5.329  13.380  0.1266  0.3973 -2.8661
    8DOPE   H7Y 1000   5.604   5.282  13.422  1.0873 -0.7564  0.5161
    8DOPE   C38 1001   5.628   5.417  13.243 -0.0568  0.4483 -0.5466
    8DOPE   H8X 1002   5.534   5.475  13.255  0.4928  1.1219  0.6177
    8DOPE   H8Y 1003   5.597   5.319  13.201 -0.4958  0.2666  0.1739
    8DOPE   C39 1004   5.738   5.483  13.169  0.1788  0.8436  0.2051
    8DOPE   H9X 1005   5.750   5.585  13.208 -1.2484  1.7635 -1.6008
    8DOPE  C310 1006   5.806   5.431  13.060  0.0756  0.8685  0.1505
    8DOPE  H10X 1007   5.872   5.500  13.006  0.4364  0.8137  0.5146
    8DOPE  C311 1008   5.773   5.298  12.988  0.1633 -0.5209 -0.2956
    8DOPE  H11X 1009   5.865   5.237  12.979 -0.5386 -2.0117  1.8255
    8DOPE  H11Y 1010   5.690   5.236  13.028 -0.9150 -0.3375 -2.1187
    8DOPE  C312 1011   5.723   5.345  12.853  0.6078  0.3942 -0.3748
    8DOPE  H12X 1012   5.639   5.417  12.859 -1.3764 -1.7758 -0.5882
    8DOPE  H12Y 1013   5.695   5.251  12.800 -0.3999 -0.0599  0.9082
    8DOPE  C313 1014   5.826   5.405  12.758 -0.4533 -0.1250  0.6455
    8DOPE  H13X 1015   5.881   5.499  12.783  0.2354  0.0024 -1.2273
    8DOPE  H13Y 1016   5.897   5.322  12.739  1.1537  1.5986 -1.3563
    8DOPE  C314 1017   5.750   5.447  12.629  0.2823  0.5804 -0.1922
    8DOPE  H14X 1018   5.690   5.538  12.649  0.0271  0.4759 -0.4673
    8DOPE  H14Y 1019   5.678   5.365  12.608 -0.0380  0.8638 -0.2162
    8DOPE  C315 1020   5.829   5.469  12.497 -0.3148 -0.6844 -0.0781
    8DOPE  H15X 1021   5.901   5.386  12.479  0.6482 -0.0406  0.7345
    8DOPE  H15Y 1022   5.885   5.564  12.506 -0.2102 -0.9010  1.8977
    8DOPE  C316 1023   5.733   5.476  12.373  0.1049  0.4036  0.5820
    8DOPE  H16X 1024   5.680   5.571  12.396 -0.9741 -0.5495  2.1676
    8DOPE  H16Y 1025   5.674   5.382  12.373  2.1889 -1.0217  2.6687
    8DOPE  C317 1026   5.810   5.489  12.244  0.6935  0.2570  0.2353
    8DOPE  H17X 1027   5.900   5.423  12.252  0.2870 -0.8753 -3.0222
    8DOPE  H17Y 1028   5.751   5.462  12.154  1.1363  1.8087 -0.5678
    8DOPE  C318 1029   5.864   5.633  12.210  0.4232 -0.1614 -0.5236
    8DOPE  H18X 1030   5.782   5.705  12.193  1.0320  0.2805 -1.7016
    8DOPE  H18Y 1031   5.920   5.627  12.114  0.1854 -1.3988 -0.6031
    8DOPE  H18Z 1032   5.929   5.679  12.288 -0.5219  2.2403 -1.0632
    9DOPE     N 1033   2.700   4.877  14.694  0.1597  0.0964  0.0834
    9DOPE   HN1 1034   2.704   4.938  14.610 -0.8708 -0.6672 -0.5400
    9DOPE   HN2 1035   2.627   4.919  14.755  0.9660 -0.4304  1.4610
    9DOPE   HN3 1036   2.790   4.885  14.746  0.0121  1.1034  0.2204
    9DOPE   C12 1037   2.667   4.735  14.655 -0.1234 -0.1951  0.4007
    9DOPE  H12A 1038   2.556   4.742  14.652 -0.1131 -0.0940  0.2529
    9DOPE  H12B 1039   2.698   4.669  14.739  0.7085 -1.8983 -1.1692
    9DOPE   C11 1040   2.718   4.709  14.517 -0.2088  0.4092 -0.0169
    9DOPE  H11A 1041   2.682   4.787  14.448 -0.8663  1.1647  1.1450
    9DOPE  H11B 1042   2.678   4.606  14.500  0.1025 -0.0237  1.6570
    9DOPE     P 1043   2.950   4.586  14.568 -0.4123  0.1783 -0.4202
    9DOPE   O13 1044   2.862   4.485  14.635  0.5505 -0.3789  0.2633
    9DOPE   O14 1045   3.064   4.638  14.652  0.0384 -0.2273  0.2714
    9DOPE   O11 1046   3.010   4.528  14.438 -0.2659 -0.0489  0.3674
    9DOPE   O12 1047   2.870   4.710  14.515 -0.2865  0.4666 -0.4504
    9DOPE    C1 1048   2.944   4.416  14.363  0.0043 -0.5452  0.1183
    9DOPE    HA 1049   2.837   4.398  14.387 -0.2396 -0.7952 -1.1243
    9DOPE    HB 1050   3.003   4.325  14.390 -0.2945 -0.6541  0.4169
    9DOPE    C2 1051   2.953   4.445  14.214  0.0298  0.1496  0.7797
    9DOPE    HS 1052   2.904   4.366  14.153  0.0045  1.5640 -1.1603
    9DOPE   O21 1053   3.093   4.464  14.177  0.7860  0.3532  0.4701
    9DOPE   C21 1054   3.156   4.355  14.132  0.0792 -0.0838  0.4100
    9DOPE   O22 1055   3.103   4.246  14.096  0.0982  0.1883  0.2358
    9DOPE   C22 1056   3.306   4.380  14.129  0.0822  0.0002 -0.1412
    9DOPE   H2R 1057   3.347   4.316  14.210 -3.3484 -1.9221  0.2449
    9DOPE   H2S 1058   3.315   4.489  14.150 -1.0143  0.0196  0.2782
    9DOPE    C3 1059   2.880   4.572  14.171 -0.0538  0.3927  0.2089
    9DOPE    HX 1060   2.940   4.659  14.203 -0.8986  1.0206  0.1239
    9DOPE    HY 1061   2.790   4.562  14.236  1.2567 -1.7112  1.8466
    9DOPE   O31 1062   2.865   4.582  14.023 -0.2639 -0.5436 -0.4084
    9DOPE   C31 1063   2.737   4.589  13.983  0.3814 -1.1797  0.4646
    9DOPE   O32 1064   2.642   4.594  14.058 -0.1769 -0.0714 -0.0181
    9DOPE   C32 1065   2.729   4.628  13.838  0.5478 -0.3225 -0.4723
    9DOPE   H2X 1066   2.623   4.650  13.815 -0.5309 -4.1780  0.2344
    9DOPE   H2Y 1067   2.796   4.717  13.825 -0.2621  0.2375 -0.9020
    9DOPE   C23 1068   3.365   4.340  13.990  0.2871  0.5584 -0.4216
    9DOPE   H3R 1069   3.317   4.394  13.906 -1.8438 -0.1168  0.2893
    9DOPE   H3S 1070   3.336   4.234  13.973  1.1660  0.0236  1.2118
    9DOPE   C24 1071   3.518   4.344  13.980  0.1245 -0.0970 -0.4766
    9DOPE   H4R 1072   3.565   4.293  14.067  1.5669 -0.0381 -1.1977
    9DOPE   H4S 1073   3.555   4.448  13.975  1.0313 -0.4526 -1.7959
    9DOPE   C25 1074   3.565   4.273  13.847 -0.5835  0.5834 -0.4022
    9DOPE   H5R 1075   3.493   4.194  13.818 -0.2755  0.5281 -1.0327
    9DOPE   H5S 1076   3.661   4.227  13.877 -0.6659  0.3268 -0.5302
    9DOPE   C26 1077   3.587   4.382  13.731 -0.1011  0.0049 -0.1731
    9DOPE   H6R 1078   3.662   4.453  13.772  0.3423 -0.9086  0.6371
    9DOPE   H6S 1079   3.488   4.424  13.701 -0.4397  0.4136  1.3958
    9DOPE   C27 1080   3.639   4.311  13.601 -0.2110 -0.6514 -0.0320
    9DOPE   H7R 1081   3.559   4.250  13.555 -0.0825 -0.6986 -0.1959
    9DOPE   H7S 1082   3.734   4.258  13.628  1.1103  1.2054 -0.8343
    9DOPE   C28 1083   3.682   4.405  13.489  0.3316 -0.4357  0.3867
    9DOPE   H8R 1084   3.750   4.482  13.533  2.2015  0.0299 -2.9657
    9DOPE   H8S 1085   3.597   4.474  13.470  0.3721 -0.4497  0.1544
    9DOPE   C29 1086   3.747   4.346  13.364 -0.1943  0.5798 -0.1636
    9DOPE   H9R 1087   3.819   4.266  13.389 -1.4526 -1.0414 -1.4933
    9DOPE  C210 1088   3.698   4.346  13.240 -0.0556 -0.3555  0.2660
    9DOPE  H10R 1089   3.762   4.301  13.163 -0.6464  0.7921 -0.9291
    9DOPE  C211 1090   3.578   4.424  13.182 -0.5240  0.3437  0.1346
    9DOPE  H11R 1091   3.529   4.484  13.261 -2.0578 -1.5326  0.7027
    9DOPE  H11S 1092   3.501   4.355  13.140  0.7772 -0.6630 -0.6936
    9DOPE  C212 1093   3.624   4.518  13.071  0.2092  0.0426 -0.4994
    9DOPE  H12R 1094   3.723   4.564  13.091 -0.1363  1.2530 -1.4481
    9DOPE  H12S 1095   3.547   4.597  13.060 -0.2032 -0.3551 -0.5325
    9DOPE  C213 1096   3.639   4.451  12.932 -0.6765  0.9245  0.1799
    9DOPE  H13R 1097   3.542   4.407  12.898  0.9985 -2.1684 -1.0299
    9DOPE  H13S 1098   3.721   4.376  12.940 -0.3836  0.8146 -2.6886
    9DOPE  C214 1099   3.690   4.554  12.832  0.1424 -0.2085  0.4523
    9DOPE  H14R 1100   3.785   4.600  12.867  0.7025 -0.8578 -0.1789
    9DOPE  H14S 1101   3.609   4.629  12.821  0.8494  0.6069  0.7217
    9DOPE  C215 1102   3.727   4.502  12.697 -0.1128 -0.4960  0.1218
    9DOPE  H15R 1103   3.797   4.416  12.698  1.3414  0.5980 -1.0335
    9DOPE  H15S 1104   3.777   4.596  12.663 -1.5583  1.1508  2.2582
    9DOPE  C216 1105   3.615   4.467  12.598  0.3087 -0.0075 -0.1861
    9DOPE  H16R 1106   3.538   4.545  12.617  0.1871 -0.2764  0.4647
    9DOPE  H16S 1107   3.566   4.371  12.625 -0.3574 -0.2653 -2.1626
    9DOPE  C217 1108   3.644   4.486  12.450 -0.3750 -0.2985  0.2414
    9DOPE  H17R 1109   3.742   4.538  12.440 -0.2223 -0.9125 -1.8198
    9DOPE  H17S 1110   3.570   4.553  12.402 -1.1673 -0.5522  1.0793
    9DOPE  C218 1111   3.657   4.351  12.372 -0.6080  0.0991  0.3820
    9DOPE  H18R 1112   3.753   4.301  12.398 -0.1705  0.2367 -0.9079
    9DOPE  H18S 1113   3.654   4.372  12.263  2.8572 -1.9434 -0.2593
    9DOPE  H18T 1114   3.577   4.277  12.392  0.0911 -0.1065  2.6251
    9DOPE   C33 1115   2.767   4.518  13.743 -0.6799  0.0182 -0.6009
    9DOPE   H3X 1116   2.686   4.441  13.743 -0.9107  0.1704  2.0724
    9DOPE   H3Y 1117   2.855   4.459  13.775 -0.6853  0.0564 -0.5167
    9DOPE   C34 1118   2.782   4.567  13.601  0.1105 -0.1731 -0.4094
    9DOPE   H4X 1119   2.688   4.610  13.561  0.3191  0.8559  0.1611
    9DOPE   H4Y 1120   2.866   4.640  13.599 -0.3327  0.3279 -1.1820
    9DOPE   C35 1121   2.821   4.451  13.513 -0.1884 -0.1633  0.5964
    9DOPE   H5X 1122   2.755   4.362  13.524  1.8662 -1.9030 -0.4988
    9DOPE   H5Y 1123   2.913   4.409  13.559 -0.0538  0.6084  1.0468
    9DOPE   C36 1124   2.862   4.478  13.365 -0.2775 -0.0918 -0.0893
    9DOPE   H6X 1125   2.935   4.401  13.333  3.0180  2.5445  0.4285
    9DOPE   H6Y 1126   2.918   4.573  13.353  3.1048 -1.9241 -0.0699
    9DOPE   C37 1127   2.747   4.464  13.267 -0.6270  0.0760  0.4003
    9DOPE   H7X 1128   2.702   4.364  13.289 -1.1826  0.3280  0.4209
    9DOPE   H7Y 1129   2.674   4.544  13.294 -2.3826 -0.4799 -2.2809
    9DOPE   C38 1130   2.782   4.486  13.121  0.4769  0.7157 -0.4585
    9DOPE   H8X 1131   2.873   4.425  13.099  1.3423  2.7555 -3.1481
    9DOPE   H8Y 1132   2.813   4.592  13.107  2.4462  0.2755  0.2066
    9DOPE   C39 1133   2.676   4.437  13.022  0.5425 -0.4469 -0.2996
    9DOPE   H9X 1134   2.576   4.429  13.066  0.5179  0.6546 -0.1188
    9DOPE  C310 1135   2.696   4.425  12.891 -0.2392  0.3204 -0.3180
    9DOPE  H10X 1136   2.627   4.362  12.833  0.6005 -0.2416 -0.7216
    9DOPE  C311 1137   2.829   4.447  12.830 -0.1907 -0.2486  0.3788
    9DOPE  H11X 1138   2.903   4.496  12.896 -0.0404 -1.5777  1.2247
    9DOPE  H11Y 1139   2.887   4.353  12.827 -0.4258 -0.3848 -0.3361
    9DOPE  C312 1140   2.813   4.514  12.692 -0.0516 -0.1394  0.0740
    9DOPE  H12X 1141   2.909   4.526  12.637 -0.1447 -0.3120 -0.1274
    9DOPE  H12Y 1142   2.753   4.608  12.696 -1.9234 -1.0982 -2.3813
    9DOPE  C313 1143   2.731   4.428  12.594 -0.3923  0.5504  0.8772
    9DOPE  H13X 1144   2.769   4.323  12.590  3.4261  1.8234 -0.5840
    9DOPE  H13Y 1145   2.625   4.431  12.626 -0.8483 -0.3869 -0.4677
    9DOPE  C314 1146   2.731   4.467  12.446 -0.5890 -0.4218  0.2478
    9DOPE  H14X 1147   2.680   4.399  12.374  1.7884  0.2418 -2.2410
    9DOPE  H14Y 1148   2.834   4.459  12.406 -1.1363 -1.0222 -1.1611
    9DOPE  C315 1149   2.653   4.598  12.416 -0.6813  0.4503 -0.4416
    9DOPE  H15X 1150   2.699   4.676  12.481  0.0030 -0.4578  0.1858
    9DOPE  H15Y 1151   2.545   4.592  12.441 -1.0696  1.3240 -1.8003
    9DOPE  C316 1152   2.665   4.631  12.260 -0.1788  0.5953 -0.0968
    9DOPE  H16X 1153   2.646   4.540  12.199 -1.2623  0.7849 -0.0565
    9DOPE  H16Y 1154   2.771   4.666  12.256 -0.1315  0.5613  0.5943
    9DOPE  C317 1155   2.574   4.749  12.217  0.2970 -0.3074 -0.5497
    9DOPE  H17X 1156   2.606   4.780  12.116  2.6435  0.8224  0.4572
    9DOPE  H17Y 1157   2.468   4.715  12.215  0.3522 -0.5285  0.0837
    9DOPE  C318 1158   2.589   4.868  12.309 -0.4997 -0.0872 -0.0526
    9DOPE  H18X 1159   2.573   4.843  12.416 -0.1865  0.1130  0.0443
    9DOPE  H18Y 1160   2.690   4.914  12.303 -0.6709  0.1752 -1.0566
    9DOPE  H18Z 1161   2.515   4.949  12.293  0.7565  1.2046  0.4050
   10DOPE     N 1162   3.695   0.233  14.139 -0.6036  0.5353 -0.1829
   10DOPE   HN1 1163   3.595   0.251  14.162 -0.9822 -0.9454 -0.5954
   10DOPE   HN2 1164   3.743   0.291  14.211  1.3892 -1.0757 -0.1259
   10DOPE   HN3 1165   3.720   0.261  14.042  1.2895 -0.4380 -0.0085
   10DOPE   C12 1166   3.733   0.085  14.148 -0.4002  0.6486 -0.3431
   10DOPE  H12A 1167   3.708   0.053  14.251 -1.6458 -0.1517 -0.8720
   10DOPE  H12B 1168   3.840   0.071  14.121 -0.4360 -1.1229  0.3329
   10DOPE   C11 1169   3.651  -0.009  14.060  0.0317  0.2990  0.4358
   10DOPE  H11A 1170   3.669   0.028  13.957  3.8571  0.0678  0.8656
   10DOPE  H11B 1171   3.547   0.004  14.095 -0.3602  1.0582 -0.9656
   10DOPE     P 1172   3.629  -0.254  14.174  0.0737  0.1425  0.2700
   10DOPE   O13 1173   3.590  -0.178  14.296 -0.3254  0.3184  0.3546
   10DOPE   O14 1174   3.722  -0.369  14.188  0.6849  0.3808  0.6929
   10DOPE   O11 1175   3.503  -0.320  14.108 -0.1627 -0.1592  0.3115
   10DOPE   O12 1176   3.683  -0.150  14.061  0.0942  0.4800 -0.3941
   10DOPE    C1 1177   3.496  -0.345  13.963  0.0573  0.0291  0.3831
   10DOPE    HA 1178   3.545  -0.263  13.907  0.5618  1.4011  2.7196
   10DOPE    HB 1179   3.388  -0.349  13.935  0.3607 -1.0782 -0.7013
   10DOPE    C2 1180   3.544  -0.487  13.921 -0.2850 -0.3641 -0.5861
   10DOPE    HS 1181   3.655  -0.488  13.933 -0.2845  1.1734 -0.1952
   10DOPE   O21 1182   3.503  -0.499  13.778  0.0653  0.0044 -0.2103
   10DOPE   C21 1183   3.598  -0.505  13.684  0.1916 -0.3292  0.2437
   10DOPE   O22 1184   3.716  -0.489  13.695 -0.3722 -0.3256 -0.0096
   10DOPE   C22 1185   3.530  -0.526  13.546  0.1706  0.1008  0.5081
   10DOPE   H2R 1186   3.598  -0.590  13.485  1.5602  1.2001  0.8464
   10DOPE   H2S 1187   3.543  -0.430  13.492  2.9454 -0.9205 -0.8774
   10DOPE    C3 1188   3.477  -0.600  13.999  0.3878  0.5200 -0.4620
   10DOPE    HX 1189   3.367  -0.586  14.013  0.4728  0.0325  0.8838
   10DOPE    HY 1190   3.508  -0.590  14.105 -2.3838 -2.8256  0.8719
   10DOPE   O31 1191   3.500  -0.733  13.945  0.4738 -0.0924  0.0381
   10DOPE   C31 1192   3.624  -0.764  13.943  0.1631  0.5744 -0.0541
   10DOPE   O32 1193   3.716  -0.711  14.006 -0.4750  0.0523  0.0747
   10DOPE   C32 1194   3.641  -0.869  13.830  0.0706 -0.0704 -0.8732
   10DOPE   H2X 1195   3.646  -0.966  13.883 -1.3864  0.3719  0.1372
   10DOPE   H2Y 1196   3.541  -0.875  13.783 -0.6912  2.2799  0.2966
   10DOPE   C23 1197   3.384  -0.591  13.536  0.6586 -0.1701  0.2332
   10DOPE   H3R 1198   3.306  -0.517  13.559  1.3487  0.3869  0.8027
   10DOPE   H3S 1199   3.388  -0.672  13.612 -0.6963  0.6174  1.1631
   10DOPE   C24 1200   3.374  -0.646  13.391 -0.3937 -0.5170  0.1770
   10DOPE   H4R 1201   3.284  -0.711  13.393  0.3754 -1.6338 -0.5504
   10DOPE   H4S 1202   3.453  -0.719  13.364  0.9379  0.7203  0.6077
   10DOPE   C25 1203   3.355  -0.541  13.284 -0.1213 -0.5143 -0.3063
   10DOPE   H5R 1204   3.449  -0.485  13.263 -1.2878  1.6667  0.0177
   10DOPE   H5S 1205   3.280  -0.464  13.314  0.7277  0.5588 -0.8482
   10DOPE   C26 1206   3.311  -0.599  13.147 -0.3191  0.6208  0.4115
   10DOPE   H6R 1207   3.209  -0.642  13.157  0.4472 -1.2854  0.2724
   10DOPE   H6S 1208   3.382  -0.679  13.118  0.0919  1.7144 -1.8764
   10DOPE   C27 1209   3.306  -0.493  13.033 -0.2558 -0.4367  0.2063
   10DOPE   H7R 1210   3.387  -0.418  13.040 -0.6012  0.0917 -1.1745
   10DOPE   H7S 1211   3.204  -0.449  13.037 -1.4116 -2.9683  0.8868
   10DOPE   C28 1212   3.329  -0.574  12.905  0.3106  0.0018  0.5419
   10DOPE   H8R 1213   3.255  -0.657  12.912  2.4377 -2.1089 -0.5770
   10DOPE   H8S 1214   3.429  -0.620  12.892  0.5170  0.7645 -0.7432
   10DOPE   C29 1215   3.302  -0.481  12.788 -0.2048 -0.5443 -0.3326
   10DOPE   H9R 1216   3.228  -0.402  12.807  1.3654  0.8564  0.2019
   10DOPE  C210 1217   3.362  -0.485  12.672  0.7406  0.1741  0.6670
   10DOPE  H10R 1218   3.323  -0.418  12.594  2.6194  1.6344  0.8881
   10DOPE  C211 1219   3.472  -0.580  12.620 -0.6767  0.3187  0.4935
   10DOPE  H11R 1220   3.521  -0.653  12.688  1.6426  0.5285 -0.8315
   10DOPE  H11S 1221   3.558  -0.516  12.588  0.1679 -0.8554  0.3430
   10DOPE  C212 1222   3.432  -0.651  12.489 -0.3143  0.3151 -0.0035
   10DOPE  H12R 1223   3.400  -0.578  12.411  2.4789 -0.1090 -1.7084
   10DOPE  H12S 1224   3.348  -0.721  12.504  1.2026 -1.6268 -0.1257
   10DOPE  C213 1225   3.550  -0.733  12.439 -0.3629 -0.1987 -0.4142
   10DOPE  H13R 1226   3.550  -0.831  12.491 -0.6447  0.5609  1.0878
   10DOPE  H13S 1227   3.645  -0.685  12.471 -1.4960  1.3112  0.8344
   10DOPE  C214 1228   3.539  -0.752  12.292 -0.3188 -0.3302  0.1943
   10DOPE  H14R 1229   3.535  -0.652  12.244  1.3331 -0.9083 -1.2556
   10DOPE  H14S 1230   3.451  -0.816  12.267  0.2159 -0.6911 -0.8212
   10DOPE  C215 1231   3.649  -0.833  12.226 -0.6416  0.5321  0.4036
   10DOPE  H15R 1232   3.636  -0.943  12.227  2.8021  0.0134  0.6992
   10DOPE  H15S 1233   3.738  -0.810  12.288 -0.5643 -0.7555  0.7918
   10DOPE  C216 1234   3.667  -0.806  12.079  0.0376  0.5518  0.3616
   10DOPE  H16R 1235   3.681  -0.696  12.070 -0.5268  0.5839 -0.2354
   10DOPE  H16S 1236   3.578  -0.839  12.021 -0.4554  0.5852  1.0970
   10DOPE  C217 1237   3.791  -0.879  12.020 -0.2358 -0.0035  0.6538
   10DOPE  H17R 1238   3.771  -0.866  11.911  1.1105 -1.6174  0.1736
   10DOPE  H17S 1239   3.777  -0.987  12.039 -0.1907 -0.3002 -0.8727
   10DOPE  C218 1240   3.928  -0.821  12.053 -0.3504 -0.6587 -0.6819
   10DOPE  H18R 1241   3.948  -0.740  11.980  0.7727  0.3103  0.6452
   10DOPE  H18S 1242   4.010  -0.892  12.031  0.4849  0.2109 -0.4167
   10DOPE  H18T 1243   3.935  -0.776  12.155  0.9676  0.3949 -1.2153
   10DOPE   C33 1244   3.754  -0.849  13.729 -1.0400 -0.1281  0.0936
   10DOPE   H3X 1245   3.854  -0.833  13.775 -1.8682 -1.2543  2.4268
   10DOPE   H3Y 1246   3.744  -0.762  13.661 -0.7171 -0.1664 -0.0076
   10DOPE   C34 1247   3.765  -0.972  13.635  0.0710  0.1553  0.2354
   10DOPE   H4X 1248   3.857  -0.975  13.574 -0.8058 -0.9552 -1.0903
   10DOPE   H4Y 1249   3.760  -1.059  13.704  1.6563  0.8378  1.2562
   10DOPE   C35 1250   3.647  -0.990  13.546  0.5886  0.1767 -0.0800
   10DOPE   H5X 1251   3.605  -0.890  13.522  0.7086  0.6883  1.7330
   10DOPE   H5Y 1252   3.570  -1.043  13.606  2.8974 -1.5143  1.5875
   10DOPE   C36 1253   3.673  -1.063  13.408  0.0641  0.6248 -0.5277
   10DOPE   H6X 1254   3.577  -1.088  13.357 -0.1385  0.9395 -0.3081
   10DOPE   H6Y 1255   3.738  -1.151  13.427  1.3608  1.6008 -0.3677
   10DOPE   C37 1256   3.749  -0.976  13.302  0.0984  1.1823 -0.5852
   10DOPE   H7X 1257   3.698  -0.878  13.289  1.9231  1.8715 -3.2619
   10DOPE   H7Y 1258   3.851  -0.952  13.339  0.7451 -0.8674 -0.9062
   10DOPE   C38 1259   3.787  -1.046  13.168 -0.0906  0.2101 -0.8288
   10DOPE   H8X 1260   3.841  -0.973  13.103 -0.1783 -1.2176 -2.5890
   10DOPE   H8Y 1261   3.691  -1.060  13.113 -0.4316 -0.0668 -0.1698
   10DOPE   C39 1262   3.863  -1.173  13.193 -0.3572  0.4932  0.5268
   10DOPE   H9X 1263   3.954  -1.163  13.254 -0.3530 -1.6637  0.9796
   10DOPE  C310 1264   3.837  -1.297  13.135 -0.5213  0.1073  0.4307
   10DOPE  H10X 1265   3.917  -1.372  13.141  2.6522  2.7454 -3.3341
   10DOPE  C311 1266   3.724  -1.332  13.037  0.6152 -0.1627  0.0553
   10DOPE  H11X 1267   3.722  -1.443  13.045  2.2183 -0.1621  0.9372
   10DOPE  H11Y 1268   3.631  -1.281  13.069 -1.0140 -3.6145  1.3315
   10DOPE  C312 1269   3.737  -1.279  12.892 -0.2229 -0.3854  0.4994
   10DOPE  H12X 1270   3.773  -1.174  12.895  0.7271 -0.6364 -1.1417
   10DOPE  H12Y 1271   3.632  -1.274  12.856 -0.2360  1.3230  0.6739
   10DOPE  C313 1272   3.838  -1.355  12.810  0.0976  0.4207  0.0755
   10DOPE  H13X 1273   3.923  -1.394  12.871  1.6391 -2.3862 -3.4770
   10DOPE  H13Y 1274   3.790  -1.449  12.776 -1.0332  0.6862  0.9034
   10DOPE  C314 1275   3.901  -1.279  12.694  0.2130  0.2316 -0.1118
   10DOPE  H14X 1276   3.965  -1.347  12.633  2.3265  0.9533  1.1753
   10DOPE  H14Y 1277   3.959  -1.189  12.725  0.8954  0.5177 -2.0560
   10DOPE  C315 1278   3.784  -1.235  12.605 -0.1412  0.7210  0.1918
   10DOPE  H15X 1279   3.726  -1.163  12.667  0.7544 -0.0570  2.0198
   10DOPE  H15Y 1280   3.725  -1.327  12.583 -0.0243  0.9574 -1.1797
   10DOPE  C316 1281   3.837  -1.168  12.479 -0.3360  0.9892 -0.0148
   10DOPE  H16X 1282   3.911  -1.092  12.515 -1.5062  2.0349  0.2410
   10DOPE  H16Y 1283   3.749  -1.111  12.443 -0.7243  0.5115  0.1798
   10DOPE  C317 1284   3.897  -1.260  12.373  0.4186 -0.3121  0.0204
   10DOPE  H17X 1285   4.007  -1.276  12.377  0.9867  1.5388 -3.7767
   10DOPE  H17Y 1286   3.854  -1.360  12.397 -1.1393  0.4645  0.6157
   10DOPE  C318 1287   3.878  -1.221  12.229 -0.0984  0.4570 -0.0039
   10DOPE  H18X 1288   3.941  -1.136  12.194 -1.2251  2.5936  2.7283
   10DOPE  H18Y 1289   3.910  -1.307  12.168  0.7116  0.2497  0.6938
   10DOPE  H18Z 1290   3.772  -1.205  12.199  0.0129  3.4825  0.8014
   11DOPE     N 1291   1.367   3.144  15.270  1.0998  0.9204  0.3900
   11DOPE   HN1 1292   1.283   3.203  15.260 -0.5298 -1.3625 -0.1290
   11DOPE   HN2 1293   1.346   3.051  15.229  0.6263  1.4954 -0.6898
   11DOPE   HN3 1294   1.385   3.133  15.372  0.8206 -1.9305  0.2254
   11DOPE   C12 1295   1.484   3.212  15.201  0.2567  0.3056  0.2056
   11DOPE  H12A 1296   1.458   3.226  15.094  2.1040 -0.2826 -0.3677
   11DOPE  H12B 1297   1.568   3.139  15.203  0.4454  0.4620 -0.9812
   11DOPE   C11 1298   1.523   3.336  15.280  0.1840  0.5449  0.3418
   11DOPE  H11A 1299   1.621   3.377  15.250  0.0269 -0.7347 -2.2119
   11DOPE  H11B 1300   1.530   3.301  15.385  0.7767 -2.7944 -0.6861
   11DOPE     P 1301   1.413   3.533  15.142  0.2202  0.4729 -0.4458
   11DOPE   O13 1302   1.454   3.662  15.201 -0.4043 -0.3042 -0.4057
   11DOPE   O14 1303   1.275   3.522  15.086  0.2486 -0.9093  0.6228
   11DOPE   O11 1304   1.515   3.469  15.034 -0.4419 -0.1422  0.2688
   11DOPE   O12 1305   1.422   3.434  15.263  0.0120  0.1719  0.4338
   11DOPE    C1 1306   1.617   3.550  14.972 -0.1625  0.5119 -0.2390
   11DOPE    HA 1307   1.698   3.577  15.044 -2.4415  1.4457  2.1735
   11DOPE    HB 1308   1.573   3.646  14.936 -0.6561  0.5664  0.4768
   11DOPE    C2 1309   1.693   3.487  14.847 -0.0602  0.1679  0.6310
   11DOPE    HS 1310   1.776   3.551  14.810 -0.0090 -0.0564  0.3528
   11DOPE   O21 1311   1.609   3.462  14.733  0.2265  0.1789 -0.2582
   11DOPE   C21 1312   1.544   3.558  14.682 -0.5742  0.0747 -0.0273
   11DOPE   O22 1313   1.569   3.678  14.696  0.2761 -0.0707  0.5271
   11DOPE   C22 1314   1.426   3.509  14.602  0.5605  0.0684 -0.7644
   11DOPE   H2R 1315   1.354   3.477  14.680  1.1471 -1.4455 -0.8104
   11DOPE   H2S 1316   1.451   3.415  14.547 -2.0640 -1.5032  0.5372
   11DOPE    C3 1317   1.751   3.348  14.884 -0.1344 -0.4660 -0.4757
   11DOPE    HX 1318   1.671   3.287  14.930 -0.4835  0.3947  0.0850
   11DOPE    HY 1319   1.824   3.360  14.967  0.6681 -0.0663 -1.2213
   11DOPE   O31 1320   1.809   3.285  14.763 -0.6430 -0.5425  0.1314
   11DOPE   C31 1321   1.926   3.336  14.724 -0.2980  0.3609  0.1624
   11DOPE   O32 1322   1.999   3.421  14.776 -0.0176 -0.1946  0.1838
   11DOPE   C32 1323   1.965   3.258  14.592 -0.1697 -0.0471 -0.6149
   11DOPE   H2X 1324   2.068   3.224  14.616 -0.0208 -0.1669 -1.3808
   11DOPE   H2Y 1325   1.889   3.179  14.577 -0.5328  0.0165  0.7655
   11DOPE   C23 1326   1.355   3.616  14.515  0.1911 -0.0182 -0.0703
   11DOPE   H3R 1327   1.399   3.636  14.415 -0.6490  0.0394 -0.4404
   11DOPE   H3S 1328   1.340   3.712  14.569  1.2748  0.0665  0.0971
   11DOPE   C24 1329   1.216   3.565  14.479 -0.3205  0.1540 -0.9398
   11DOPE   H4R 1330   1.166   3.516  14.566  0.0637  1.7113  0.2171
   11DOPE   H4S 1331   1.211   3.488  14.400 -0.8918 -0.8590  0.0503
   11DOPE   C25 1332   1.136   3.690  14.434  0.7940 -0.5355  0.1331
   11DOPE   H5R 1333   1.123   3.759  14.520  0.1834 -0.1631 -0.2497
   11DOPE   H5S 1334   1.035   3.657  14.400  1.0958 -0.9043 -0.4298
   11DOPE   C26 1335   1.201   3.766  14.313 -0.0871  0.4467 -0.6212
   11DOPE   H6R 1336   1.298   3.815  14.336  1.4724 -1.1493 -3.2260
   11DOPE   H6S 1337   1.140   3.852  14.278 -0.5922  0.5356  0.4431
   11DOPE   C27 1338   1.236   3.674  14.190 -0.0475 -0.6419  0.2053
   11DOPE   H7R 1339   1.146   3.620  14.153  0.3604 -1.4240  0.3413
   11DOPE   H7S 1340   1.305   3.593  14.222  1.4179  0.7378  0.6365
   11DOPE   C28 1341   1.295   3.752  14.064  0.4260 -0.3166 -0.3522
   11DOPE   H8R 1342   1.397   3.784  14.094  0.1081  0.2920  0.1011
   11DOPE   H8S 1343   1.226   3.839  14.055 -0.2770 -0.7889  0.3401
   11DOPE   C29 1344   1.297   3.662  13.942 -0.1498 -0.0239 -0.1759
   11DOPE   H9R 1345   1.206   3.673  13.880  0.4429 -1.6196 -1.4141
   11DOPE  C210 1346   1.391   3.576  13.904  0.1930  0.6645  0.9063
   11DOPE  H10R 1347   1.379   3.527  13.807  1.3895  0.3117  0.9203
   11DOPE  C211 1348   1.521   3.553  13.974  0.6022 -0.2706  0.0918
   11DOPE  H11R 1349   1.525   3.616  14.066 -0.9894  1.8703 -1.2341
   11DOPE  H11S 1350   1.614   3.571  13.916  1.9609  0.1810  2.2818
   11DOPE  C212 1351   1.527   3.406  14.019  0.5233  0.0700 -0.9813
   11DOPE  H12R 1352   1.630   3.380  14.050 -0.3164  0.2264  2.4166
   11DOPE  H12S 1353   1.499   3.341  13.934 -1.0810 -2.6742  1.4445
   11DOPE  C213 1354   1.427   3.363  14.128 -0.3867 -0.4021 -0.1243
   11DOPE  H13R 1355   1.328   3.365  14.078 -0.0391  0.5303 -0.8087
   11DOPE  H13S 1356   1.428   3.430  14.217  0.3101 -2.3095  1.3615
   11DOPE  C214 1357   1.460   3.220  14.178  0.3940  0.9909  0.1351
   11DOPE  H14R 1358   1.555   3.233  14.235  0.2516  2.0580  0.1503
   11DOPE  H14S 1359   1.476   3.169  14.080 -0.4401 -0.0538  0.5243
   11DOPE  C215 1360   1.359   3.142  14.266  0.1948 -0.4071 -0.6189
   11DOPE  H15R 1361   1.407   3.047  14.299  0.0934 -0.0888  0.4667
   11DOPE  H15S 1362   1.271   3.111  14.205  0.1703 -0.4547 -0.5590
   11DOPE  C216 1363   1.304   3.211  14.383 -0.1555 -0.4660  0.0780
   11DOPE  H16R 1364   1.239   3.298  14.358 -1.0388 -0.6904  1.4791
   11DOPE  H16S 1365   1.379   3.245  14.458  0.5473  1.1860 -1.3224
   11DOPE  C217 1366   1.208   3.111  14.460  0.0769 -0.6361  0.0621
   11DOPE  H17R 1367   1.266   3.019  14.480  0.7370 -0.2879 -0.1949
   11DOPE  H17S 1368   1.125   3.082  14.392  1.0983 -1.4200 -0.8752
   11DOPE  C218 1369   1.140   3.176  14.576 -0.6691  0.6589 -0.2325
   11DOPE  H18R 1370   1.086   3.103  14.639  3.5474 -0.3610  2.6940
   11DOPE  H18S 1371   1.078   3.263  14.545 -2.3177 -0.2651  0.3802
   11DOPE  H18T 1372   1.219   3.225  14.637  2.0580 -1.0721 -2.0965
   11DOPE   C33 1373   1.959   3.356  14.472 -0.2221 -0.0678  0.0041
   11DOPE   H3X 1374   1.983   3.312  14.373 -0.1648  2.4417 -1.1645
   11DOPE   H3Y 1375   2.041   3.431  14.468  0.6938 -1.0413 -0.0680
   11DOPE   C34 1376   1.825   3.424  14.457 -0.3998  0.4623  0.2022
   11DOPE   H4X 1377   1.749   3.345  14.437  0.5293 -0.2563 -0.5962
   11DOPE   H4Y 1378   1.787   3.460  14.554 -1.4159  0.2272 -0.0920
   11DOPE   C35 1379   1.816   3.524  14.345 -0.1193 -0.0535  0.0314
   11DOPE   H5X 1380   1.789   3.472  14.250  0.0952  0.5409 -0.3599
   11DOPE   H5Y 1381   1.908   3.583  14.328  1.1459 -2.2811 -1.4637
   11DOPE   C36 1382   1.696   3.617  14.370  0.1339  0.0838 -0.1799
   11DOPE   H6X 1383   1.704   3.660  14.472 -0.8548 -0.6697  0.2289
   11DOPE   H6Y 1384   1.613   3.543  14.381 -2.4981  2.7797 -0.7633
   11DOPE   C37 1385   1.661   3.726  14.265 -0.3367 -0.2973  0.7054
   11DOPE   H7X 1386   1.687   3.679  14.168 -2.9896 -0.1329 -0.1875
   11DOPE   H7Y 1387   1.552   3.745  14.254 -0.0358  1.3094  0.1338
   11DOPE   C38 1388   1.727   3.865  14.280  1.1569 -0.0338 -0.4961
   11DOPE   H8X 1389   1.838   3.865  14.283  1.2026 -1.1745 -1.5597
   11DOPE   H8Y 1390   1.704   3.902  14.383 -1.3880 -3.4406  0.3577
   11DOPE   C39 1391   1.666   3.956  14.170  0.1651 -0.1435 -0.3750
   11DOPE   H9X 1392   1.564   3.991  14.192  0.4063  0.5916 -0.3682
   11DOPE  C310 1393   1.726   4.001  14.059  0.2290  0.1024  0.7341
   11DOPE  H10X 1394   1.666   4.063  13.991  0.2202 -2.4891 -1.8033
   11DOPE  C311 1395   1.867   3.969  14.001  0.3852  0.4743  1.0861
   11DOPE  H11X 1396   1.932   3.931  14.084  1.6613  1.0758  0.3997
   11DOPE  H11Y 1397   1.860   3.898  13.917 -1.9315  1.5359  0.3035
   11DOPE  C312 1398   1.940   4.102  13.950 -0.5156  0.0486 -0.1674
   11DOPE  H12X 1399   2.050   4.095  13.938 -0.0850  1.8679  2.0386
   11DOPE  H12Y 1400   1.928   4.184  14.024  1.1927  0.0745  0.1315
   11DOPE  C313 1401   1.879   4.151  13.818 -0.0741 -0.2875 -0.1255
   11DOPE  H13X 1402   1.769   4.163  13.831 -0.7800 -2.2623 -3.2183
   11DOPE  H13Y 1403   1.912   4.255  13.802  0.9271 -0.6963 -0.8241
   11DOPE  C314 1404   1.927   4.060  13.696  0.4897 -0.4289  0.3386
   11DOPE  H14X 1405   1.887   3.959  13.716 -0.0289 -0.3899 -0.5043
   11DOPE  H14Y 1406   2.038   4.057  13.695  0.5060 -0.1528  0.8436
   11DOPE  C315 1407   1.877   4.113  13.556  0.0478 -0.1292 -0.3794
   11DOPE  H15X 1408   1.928   4.211  13.545 -0.9812  0.2674 -1.8220
   11DOPE  H15Y 1409   1.771   4.146  13.569  0.8285  1.4365  3.4334
   11DOPE  C316 1410   1.913   4.017  13.443 -0.1200  0.1884 -0.2916
   11DOPE  H16X 1411   1.843   3.932  13.460 -2.6533  2.1571 -0.4391
   11DOPE  H16Y 1412   2.015   3.972  13.453 -0.8700 -1.4596  0.4463
   11DOPE  C317 1413   1.889   4.071  13.300  0.1169 -0.5549 -0.2695
   11DOPE  H17X 1414   1.783   4.095  13.276  0.4561 -0.9505 -2.3570
   11DOPE  H17Y 1415   1.945   4.167  13.296  1.0375 -1.1167 -1.4727
   11DOPE  C318 1416   1.938   3.993  13.178  0.0906 -0.0403  1.3869
   11DOPE  H18X 1417   1.909   4.052  13.088 -0.1234 -0.5998  1.0796
   11DOPE  H18Y 1418   2.049   3.997  13.175  0.0960  1.3250 -2.3105
   11DOPE  H18Z 1419   1.900   3.889  13.171  3.8662 -1.5938  1.1035
   12DOPE     N 1420   4.153   0.291  14.339  0.3389 -0.2824  0.0551
   12DOPE   HN1 1421   4.214   0.360  14.388 -0.1694  0.1237  0.1306
   12DOPE   HN2 1422   4.059   0.332  14.321  0.2855 -0.9233 -1.2794
   12DOPE   HN3 1423   4.130   0.217  14.409 -0.3029  1.0144  1.2717
   12DOPE   C12 1424   4.199   0.250  14.203  0.1581 -0.1493 -0.3081
   12DOPE  H12A 1425   4.303   0.215  14.216  0.1066 -0.2757 -0.2363
   12DOPE  H12B 1426   4.195   0.346  14.147 -0.6489 -0.8565 -1.5060
   12DOPE   C11 1427   4.103   0.139  14.148  0.0118  0.0706 -0.2695
   12DOPE  H11A 1428   4.154   0.086  14.065 -0.3272  0.6549 -0.8575
   12DOPE  H11B 1429   4.011   0.193  14.116 -0.4756  0.2179  1.2879
   12DOPE     P 1430   4.140  -0.080  14.310  0.1333 -0.1934  0.1393
   12DOPE   O13 1431   4.086  -0.107  14.447 -0.3308  0.0384 -0.0792
   12DOPE   O14 1432   4.286  -0.056  14.302  0.1208  0.4954 -0.2822
   12DOPE   O11 1433   4.105  -0.194  14.202 -0.2011  0.1350 -0.7059
   12DOPE   O12 1434   4.059   0.047  14.250 -0.1124  0.9605 -0.2847
   12DOPE    C1 1435   4.010  -0.196  14.098 -0.2502  0.2862  0.1013
   12DOPE    HA 1436   3.983  -0.091  14.074  0.5689  0.2193 -1.2291
   12DOPE    HB 1437   3.927  -0.257  14.138  0.3189 -0.7303 -0.2391
   12DOPE    C2 1438   4.069  -0.255  13.966 -0.4375  0.6783 -0.4695
   12DOPE    HS 1439   4.107  -0.356  13.990  0.9611  1.6170  1.6137
   12DOPE   O21 1440   4.168  -0.172  13.908 -0.3230 -0.0528  0.7359
   12DOPE   C21 1441   4.289  -0.216  13.894 -0.7681  0.2907  0.0273
   12DOPE   O22 1442   4.326  -0.331  13.919 -0.2743 -0.0436  0.1044
   12DOPE   C22 1443   4.381  -0.116  13.829 -0.3460  0.3068  0.1396
   12DOPE   H2R 1444   4.437  -0.055  13.903  0.6361  0.1026 -0.4178
   12DOPE   H2S 1445   4.312  -0.047  13.776  0.7553  1.3005 -0.0505
   12DOPE    C3 1446   3.961  -0.279  13.854  0.7071 -0.1091  0.2402
   12DOPE    HX 1447   3.916  -0.177  13.855 -0.5211 -0.6290  0.1645
   12DOPE    HY 1448   3.888  -0.357  13.884 -2.3078  1.3529 -2.5855
   12DOPE   O31 1449   4.015  -0.306  13.721  0.1990  0.3773 -0.1412
   12DOPE   C31 1450   4.026  -0.435  13.687  0.2231  0.1695  0.0663
   12DOPE   O32 1451   4.014  -0.533  13.758 -0.3365  0.1950 -0.0423
   12DOPE   C32 1452   4.100  -0.427  13.558 -0.4001 -0.5205  0.4096
   12DOPE   H2X 1453   4.160  -0.334  13.556  0.5218 -1.0078  2.7302
   12DOPE   H2Y 1454   4.170  -0.513  13.556  1.5183  0.9994 -0.5752
   12DOPE   C23 1455   4.478  -0.167  13.715 -0.4914  0.6513 -0.4360
   12DOPE   H3R 1456   4.552  -0.241  13.752  1.5171  2.3678 -0.8543
   12DOPE   H3S 1457   4.540  -0.078  13.693 -1.0782  1.4742  1.0813
   12DOPE   C24 1458   4.399  -0.221  13.598 -0.9806  0.1053  0.2462
   12DOPE   H4R 1459   4.323  -0.145  13.570 -0.3232  0.0465 -1.9177
   12DOPE   H4S 1460   4.344  -0.312  13.632 -2.2617  0.5145 -0.6268
   12DOPE   C25 1461   4.482  -0.261  13.475 -0.2610  0.4026 -0.2092
   12DOPE   H5R 1462   4.541  -0.352  13.497 -1.2473 -0.2486 -0.1713
   12DOPE   H5S 1463   4.554  -0.182  13.446  0.4897 -0.0994  0.2488
   12DOPE   C26 1464   4.394  -0.292  13.350  0.2261  0.1961  0.7687
   12DOPE   H6R 1465   4.350  -0.197  13.314  0.4668 -0.0174 -0.1327
   12DOPE   H6S 1466   4.308  -0.361  13.359 -1.4436  2.1753  0.6992
   12DOPE   C27 1467   4.480  -0.342  13.231  0.2966  0.1628 -0.0216
   12DOPE   H7R 1468   4.501  -0.451  13.228 -1.9808 -0.3734 -4.1511
   12DOPE   H7S 1469   4.574  -0.284  13.238 -0.3600  1.3481 -0.7473
   12DOPE   C28 1470   4.416  -0.314  13.091  0.1719 -0.0836  0.6343
   12DOPE   H8R 1471   4.413  -0.204  13.072  1.8616 -0.4099 -2.0449
   12DOPE   H8S 1472   4.322  -0.373  13.087 -0.7481  0.9992  3.4972
   12DOPE   C29 1473   4.510  -0.376  12.997 -0.0054 -0.5132  0.0925
   12DOPE   H9R 1474   4.618  -0.372  13.020  0.5465 -2.0939 -1.8922
   12DOPE  C210 1475   4.478  -0.439  12.883  0.3103  0.0467  0.6283
   12DOPE  H10R 1476   4.556  -0.481  12.818 -2.4714 -1.7749 -1.8071
   12DOPE  C211 1477   4.339  -0.450  12.825  0.4519 -0.5281 -0.3279
   12DOPE  H11R 1478   4.268  -0.404  12.898 -0.4814  1.6355 -2.4558
   12DOPE  H11S 1479   4.310  -0.557  12.819  0.2499 -0.5461  0.7305
   12DOPE  C212 1480   4.322  -0.378  12.691  0.5061 -0.3347  0.1823
   12DOPE  H12R 1481   4.372  -0.280  12.709 -0.5279  0.3752 -0.6324
   12DOPE  H12S 1482   4.213  -0.360  12.677 -0.0052 -0.8502  2.9823
   12DOPE  C213 1483   4.384  -0.443  12.567  0.2030 -0.1693 -0.4743
   12DOPE  H13R 1484   4.320  -0.531  12.541 -0.6219  0.1839  0.2985
   12DOPE  H13S 1485   4.483  -0.481  12.599  0.7343  0.2080 -1.5926
   12DOPE  C214 1486   4.390  -0.352  12.449 -0.5859  0.0182  0.4356
   12DOPE  H14R 1487   4.442  -0.254  12.461 -1.1642  0.1371  2.2272
   12DOPE  H14S 1488   4.283  -0.332  12.428 -0.6412 -0.3497  0.3588
   12DOPE  C215 1489   4.445  -0.420  12.319 -0.0411  0.5767  0.1694
   12DOPE  H15R 1490   4.356  -0.439  12.255  0.0389  0.2590  0.1523
   12DOPE  H15S 1491   4.486  -0.522  12.336 -0.3671  0.6733  1.6915
   12DOPE  C216 1492   4.550  -0.334  12.242  0.2865 -0.1447 -0.3113
   12DOPE  H16R 1493   4.634  -0.304  12.308 -0.6051 -0.6216  1.0748
   12DOPE  H16S 1494   4.502  -0.237  12.218  0.8345  0.2117 -0.0065
   12DOPE  C217 1495   4.604  -0.405  12.124  0.3285 -0.4647 -0.2417
   12DOPE  H17R 1496   4.527  -0.453  12.059 -0.9164  2.0964 -0.7545
   12DOPE  H17S 1497   4.670  -0.485  12.164 -0.1880 -1.0166 -0.4717
   12DOPE  C218 1498   4.690  -0.320  12.022  0.2526  0.3736  0.2214
   12DOPE  H18R 1499   4.632  -0.230  11.994  1.3831  0.3936 -2.3181
   12DOPE  H18S 1500   4.708  -0.383  11.932 -0.7635 -1.4465  1.2323
   12DOPE  H18T 1501   4.787  -0.297  12.071  0.2731 -0.1463  0.4265
   12DOPE   C33 1502   3.994  -0.436  13.448  0.2636 -0.0162  0.1453
   12DOPE   H3X 1503   3.939  -0.339  13.439 -0.6820 -0.6094 -0.6558
   12DOPE   H3Y 1504   3.917  -0.515  13.462  0.5448 -0.6767 -1.8054
   12DOPE   C34 1505   4.040  -0.475  13.304  0.6047 -0.6791 -0.1415
   12DOPE   H4X 1506   4.118  -0.409  13.260 -1.2637  0.3558 -2.0707
   12DOPE   H4Y 1507   4.091  -0.574  13.306 -0.6215 -1.3258 -0.1268
   12DOPE   C35 1508   3.911  -0.472  13.219  0.3322 -0.0098  0.2474
   12DOPE   H5X 1509   3.941  -0.442  13.117  1.1693 -2.1387 -0.1750
   12DOPE   H5Y 1510   3.842  -0.391  13.252 -0.6599 -1.8621  3.1171
   12DOPE   C36 1511   3.833  -0.600  13.225 -0.1477  0.3867  0.4517
   12DOPE   H6X 1512   3.772  -0.602  13.318 -1.3689 -1.3691 -0.3275
   12DOPE   H6Y 1513   3.902  -0.687  13.223 -2.9511 -2.0683  2.3758
   12DOPE   C37 1514   3.728  -0.608  13.116 -1.0040  0.4189  0.2983
   12DOPE   H7X 1515   3.658  -0.693  13.132  0.1091 -0.3966  0.9272
   12DOPE   H7Y 1516   3.656  -0.523  13.113 -0.7910  0.6447  1.2398
   12DOPE   C38 1517   3.771  -0.613  12.970  0.0054  0.0544 -0.3884
   12DOPE   H8X 1518   3.868  -0.560  12.963 -1.2880  2.5935 -0.1552
   12DOPE   H8Y 1519   3.698  -0.558  12.906 -0.8208  1.1096  1.3849
   12DOPE   C39 1520   3.785  -0.756  12.924 -0.2480  0.2075  0.7281
   12DOPE   H9X 1521   3.698  -0.818  12.950  0.0297 -0.9079 -0.8154
   12DOPE  C310 1522   3.886  -0.823  12.865  0.0093  0.3007 -0.7282
   12DOPE  H10X 1523   3.878  -0.924  12.822 -0.0876  0.2525 -0.5968
   12DOPE  C311 1524   4.017  -0.752  12.818  0.2335 -0.4602 -0.0006
   12DOPE  H11X 1525   4.043  -0.660  12.875 -0.1271 -1.9385  2.7247
   12DOPE  H11Y 1526   4.101  -0.819  12.846  0.4467 -0.7593 -1.3117
   12DOPE  C312 1527   4.021  -0.718  12.674  0.1021 -0.7097 -0.1717
   12DOPE  H12X 1528   3.998  -0.804  12.608 -1.7644 -1.2215  1.0877
   12DOPE  H12Y 1529   4.124  -0.682  12.650 -0.4712  0.9581 -0.2437
   12DOPE  C313 1530   3.928  -0.607  12.627 -0.3795 -0.0371 -0.1807
   12DOPE  H13X 1531   3.828  -0.643  12.659  1.0003 -2.8941  1.3178
   12DOPE  H13Y 1532   3.950  -0.513  12.681 -2.7708  0.5913 -0.2229
   12DOPE  C314 1533   3.944  -0.570  12.473  0.0176 -0.3721  0.0557
   12DOPE  H14X 1534   3.912  -0.649  12.402 -0.2936  0.7192 -1.0480
   12DOPE  H14Y 1535   4.050  -0.545  12.452  0.2768 -3.1020 -2.3927
   12DOPE  C315 1536   3.855  -0.451  12.429  0.4656 -0.0763  0.2407
   12DOPE  H15X 1537   3.880  -0.356  12.480 -1.3008  2.0046 -2.4286
   12DOPE  H15Y 1538   3.759  -0.477  12.479  1.3494 -0.4668  1.7916
   12DOPE  C316 1539   3.838  -0.432  12.274  0.1608  0.4391  0.1923
   12DOPE  H16X 1540   3.743  -0.375  12.268  0.2276  0.7863  1.9069
   12DOPE  H16Y 1541   3.826  -0.527  12.216 -0.6924  0.5883  0.1097
   12DOPE  C317 1542   3.959  -0.355  12.214 -0.0598 -0.6652 -0.0158
   12DOPE  H17X 1543   3.993  -0.279  12.288 -1.2965 -0.0877 -0.0092
   12DOPE  H17Y 1544   4.028  -0.442  12.206  0.7285 -0.1262  0.7406
   12DOPE  C318 1545   3.943  -0.285  12.089 -0.0221  0.2794 -0.2315
   12DOPE  H18X 1546   3.882  -0.193  12.094  1.6365  1.3567  2.5184
   12DOPE  H18Y 1547   4.038  -0.263  12.035 -0.2981  0.2423 -0.7365
   12DOPE  H18Z 1548   3.885  -0.348  12.019  1.3463 -0.2880 -0.8976
   13DOPE     N 1549   3.280   2.360  14.940  0.1082 -0.1505 -0.1101
   13DOPE   HN1 1550   3.275   2.453  14.893  0.1080 -0.9705 -1.7975
   13DOPE   HN2 1551   3.202   2.335  15.005 -0.3845 -0.3690 -0.7677
   13DOPE   HN3 1552   3.373   2.350  14.985 -0.4746 -0.5966  1.0423
   13DOPE   C12 1553   3.280   2.257  14.831  0.1075 -0.2116  0.2327
   13DOPE  H12A 1554   3.272   2.163  14.890 -0.8793  0.1932  0.7523
   13DOPE  H12B 1555   3.376   2.255  14.774 -0.4697  1.7726 -0.8841
   13DOPE   C11 1556   3.158   2.280  14.741 -0.8126  0.0553 -0.0225
   13DOPE  H11A 1557   3.148   2.194  14.671 -2.1832 -2.4982  3.0337
   13DOPE  H11B 1558   3.178   2.371  14.681  0.2240 -0.9984 -1.3447
   13DOPE     P 1559   2.912   2.359  14.760  0.3621 -0.2170 -0.0325
   13DOPE   O13 1560   2.951   2.497  14.729  0.2117 -0.6209  0.3237
   13DOPE   O14 1561   2.799   2.335  14.854  0.3392 -0.4497 -0.3695
   13DOPE   O11 1562   2.875   2.280  14.629  0.4020 -0.0642  0.2438
   13DOPE   O12 1563   3.042   2.286  14.815 -0.2726  0.9078 -0.5459
   13DOPE    C1 1564   2.939   2.310  14.505  0.5020  0.2118  0.5599
   13DOPE    HA 1565   2.932   2.220  14.441 -0.3136  0.3649  0.4246
   13DOPE    HB 1566   3.046   2.340  14.510  0.7628 -0.3652 -1.0641
   13DOPE    C2 1567   2.865   2.426  14.431 -0.0769  0.1303  0.5008
   13DOPE    HS 1568   2.883   2.512  14.500  1.2019 -0.5200  1.0095
   13DOPE   O21 1569   2.728   2.401  14.436  0.6089  0.5432 -0.4421
   13DOPE   C21 1570   2.643   2.503  14.444  0.3474 -0.9280 -0.0452
   13DOPE   O22 1571   2.668   2.619  14.479  0.0823 -0.1080  0.2134
   13DOPE   C22 1572   2.507   2.446  14.396 -0.0382 -0.1990  0.0380
   13DOPE   H2R 1573   2.445   2.396  14.473 -2.7291  2.9830  0.1656
   13DOPE   H2S 1574   2.536   2.370  14.320 -3.7266  1.1274 -3.0278
   13DOPE    C3 1575   2.919   2.457  14.292  0.5463  0.0744  0.1576
   13DOPE    HX 1576   2.917   2.357  14.243 -0.0044  1.1606 -2.1215
   13DOPE    HY 1577   3.025   2.492  14.290  0.9808 -1.0445  1.4658
   13DOPE   O31 1578   2.830   2.542  14.212  0.1597  0.0441 -0.4619
   13DOPE   C31 1579   2.879   2.573  14.100  0.1093  0.1933  0.5533
   13DOPE   O32 1580   2.976   2.522  14.044 -0.6434 -0.0527  0.3572
   13DOPE   C32 1581   2.797   2.680  14.043 -0.4229  0.1905 -0.3749
   13DOPE   H2X 1582   2.690   2.651  14.057 -0.7403  1.3096 -0.3537
   13DOPE   H2Y 1583   2.800   2.771  14.106 -0.7654  0.2268 -0.4060
   13DOPE   C23 1584   2.422   2.542  14.317  0.4760  0.0575 -0.0865
   13DOPE   H3R 1585   2.436   2.640  14.367  0.2577 -0.6913  1.5105
   13DOPE   H3S 1586   2.313   2.519  14.315 -0.0555  2.1796  1.4677
   13DOPE   C24 1587   2.475   2.554  14.173 -0.0537 -0.5084  0.6486
   13DOPE   H4R 1588   2.452   2.458  14.121 -0.7832  1.6605 -3.4472
   13DOPE   H4S 1589   2.584   2.571  14.185 -0.0461  1.2865 -1.3367
   13DOPE   C25 1590   2.418   2.671  14.100  0.0843 -0.4045  0.2945
   13DOPE   H5R 1591   2.471   2.680  14.002  0.8838  2.5440  0.9110
   13DOPE   H5S 1592   2.436   2.767  14.152  2.4933 -1.4840  1.6255
   13DOPE   C26 1593   2.265   2.657  14.083  0.0601  0.9057  0.5619
   13DOPE   H6R 1594   2.211   2.646  14.180 -0.0408 -1.4180  0.2875
   13DOPE   H6S 1595   2.234   2.567  14.026 -0.5639  2.6074 -1.9248
   13DOPE   C27 1596   2.206   2.778  14.006  0.4219 -0.1741  0.0377
   13DOPE   H7R 1597   2.205   2.857  14.084 -0.5366 -0.6280  0.4992
   13DOPE   H7S 1598   2.100   2.754  13.982  0.6798 -2.0833  0.6427
   13DOPE   C28 1599   2.286   2.825  13.884  0.3549 -0.4803  0.0316
   13DOPE   H8R 1600   2.390   2.849  13.912  1.4670 -3.7920 -0.8027
   13DOPE   H8S 1601   2.230   2.915  13.849 -0.8675 -0.4294  1.9395
   13DOPE   C29 1602   2.290   2.704  13.792  0.9196 -0.2324  0.0304
   13DOPE   H9R 1603   2.353   2.623  13.831  1.0024 -0.4785 -0.6189
   13DOPE  C210 1604   2.243   2.706  13.665  0.3883  0.4683 -0.0877
   13DOPE  H10R 1605   2.278   2.634  13.590  1.8660  2.1166 -1.0604
   13DOPE  C211 1606   2.166   2.814  13.606  0.0547  0.3350 -0.3394
   13DOPE  H11R 1607   2.233   2.898  13.575  0.8706 -0.1452  0.1014
   13DOPE  H11S 1608   2.084   2.848  13.673  1.7001  0.3973  1.7467
   13DOPE  C212 1609   2.097   2.764  13.480  0.3284 -0.1140 -0.2549
   13DOPE  H12R 1610   2.031   2.852  13.467  1.0484  0.5422  0.4167
   13DOPE  H12S 1611   2.041   2.670  13.500 -1.4436  0.9838  0.1785
   13DOPE  C213 1612   2.191   2.765  13.359  0.6294  0.1952  0.8017
   13DOPE  H13R 1613   2.263   2.681  13.353  0.2856 -0.0340 -0.2843
   13DOPE  H13S 1614   2.242   2.863  13.365 -2.0195  1.7306  0.0701
   13DOPE  C214 1615   2.107   2.757  13.233 -0.5626 -0.3043 -0.4567
   13DOPE  H14R 1616   2.023   2.829  13.240  1.0261  1.4584  2.2724
   13DOPE  H14S 1617   2.070   2.652  13.227  0.0935 -0.4839 -1.7450
   13DOPE  C215 1618   2.192   2.792  13.110 -0.3803  0.4371 -0.4335
   13DOPE  H15R 1619   2.249   2.700  13.087 -1.7636 -0.5565 -0.0129
   13DOPE  H15S 1620   2.254   2.881  13.135  1.9328 -1.2997  0.3303
   13DOPE  C216 1621   2.115   2.816  12.987  0.0188 -0.3553  0.1688
   13DOPE  H16R 1622   2.041   2.899  12.996 -0.9635 -0.9134 -2.0918
   13DOPE  H16S 1623   2.055   2.729  12.952  1.4914 -1.6824  0.8036
   13DOPE  C217 1624   2.203   2.854  12.873 -0.6223 -0.1553 -0.5786
   13DOPE  H17R 1625   2.291   2.788  12.862 -2.4563 -2.5055 -2.1000
   13DOPE  H17S 1626   2.218   2.964  12.884 -2.0065 -0.1321  1.6059
   13DOPE  C218 1627   2.127   2.836  12.739  0.0087  0.1899  0.0958
   13DOPE  H18R 1628   2.060   2.748  12.729 -0.0149  0.0737  1.2020
   13DOPE  H18S 1629   2.196   2.836  12.651  0.4705  0.1588  0.4543
   13DOPE  H18T 1630   2.059   2.923  12.736 -0.0231  0.1687  0.2316
   13DOPE   C33 1631   2.818   2.706  13.895  0.2916 -0.7197  0.3026
   13DOPE   H3X 1632   2.818   2.612  13.837  0.6562 -0.6034  0.1129
   13DOPE   H3Y 1633   2.919   2.750  13.881 -0.8901  2.3030  0.4818
   13DOPE   C34 1634   2.707   2.797  13.835  0.0977  0.7155  0.3615
   13DOPE   H4X 1635   2.610   2.752  13.864  0.3189 -0.8437 -1.1546
   13DOPE   H4Y 1636   2.716   2.898  13.882  0.6577  0.4490  0.8420
   13DOPE   C35 1637   2.725   2.793  13.682  0.5911 -0.6750 -0.5880
   13DOPE   H5X 1638   2.707   2.688  13.651 -0.4348 -0.6874  0.0055
   13DOPE   H5Y 1639   2.832   2.808  13.656  0.1989 -0.5620 -2.2636
   13DOPE   C36 1640   2.627   2.887  13.609  0.1606 -0.5944  0.1741
   13DOPE   H6X 1641   2.684   2.982  13.610  0.4272 -0.7315  2.0720
   13DOPE   H6Y 1642   2.534   2.916  13.663  1.4729  2.4543  1.0131
   13DOPE   C37 1643   2.577   2.831  13.469 -0.4476  0.2457 -0.4320
   13DOPE   H7X 1644   2.500   2.753  13.485 -0.5607  0.2649 -0.8534
   13DOPE   H7Y 1645   2.530   2.917  13.416 -0.6694 -0.2008 -0.9756
   13DOPE   C38 1646   2.675   2.773  13.365  0.2239  0.6291 -0.1101
   13DOPE   H8X 1647   2.610   2.734  13.284  1.1417 -3.0237  0.7646
   13DOPE   H8Y 1648   2.725   2.686  13.411  0.7629  0.9812 -0.0159
   13DOPE   C39 1649   2.775   2.878  13.320 -0.2374  0.5297  0.6789
   13DOPE   H9X 1650   2.840   2.918  13.399  0.3885 -1.8098  1.4326
   13DOPE  C310 1651   2.789   2.930  13.200  0.0259  0.4876  0.6696
   13DOPE  H10X 1652   2.870   3.001  13.178 -0.2331  0.2546 -1.1377
   13DOPE  C311 1653   2.714   2.890  13.073  0.2444 -0.3328  0.9271
   13DOPE  H11X 1654   2.766   2.807  13.020 -0.0901 -0.4718  0.8093
   13DOPE  H11Y 1655   2.609   2.860  13.093 -0.4899  0.8788 -0.7938
   13DOPE  C312 1656   2.700   3.010  12.974 -0.0729 -0.5358 -0.8092
   13DOPE  H12X 1657   2.801   3.044  12.943 -0.8191  2.4673 -0.2830
   13DOPE  H12Y 1658   2.645   3.091  13.027  0.3248 -1.6150  1.3731
   13DOPE  C313 1659   2.624   2.973  12.847 -0.0296  0.1473  0.2662
   13DOPE  H13X 1660   2.675   2.892  12.790 -1.9891 -0.8177 -0.1783
   13DOPE  H13Y 1661   2.527   2.922  12.860  0.5708 -1.3365 -0.8224
   13DOPE  C314 1662   2.602   3.098  12.753  0.4826 -0.4066  0.0982
   13DOPE  H14X 1663   2.700   3.127  12.710  0.7242 -0.6558  0.4768
   13DOPE  H14Y 1664   2.557   3.184  12.807 -3.5180 -1.4994 -1.0934
   13DOPE  C315 1665   2.505   3.073  12.638  0.3100  0.7298 -0.0449
   13DOPE  H15X 1666   2.418   3.017  12.679 -0.2188  0.3423 -1.5950
   13DOPE  H15Y 1667   2.558   3.000  12.573  2.0081 -0.2239  2.3041
   13DOPE  C316 1668   2.463   3.201  12.569  0.8065 -0.2290 -0.3422
   13DOPE  H16X 1669   2.461   3.287  12.638 -0.0119  1.1205 -1.9659
   13DOPE  H16Y 1670   2.358   3.186  12.534 -1.0015  1.7581  3.5977
   13DOPE  C317 1671   2.551   3.256  12.458 -0.4214 -0.1548  0.1670
   13DOPE  H17X 1672   2.649   3.283  12.502 -0.9462 -1.2751  2.1245
   13DOPE  H17Y 1673   2.562   3.177  12.381 -1.2915  0.1064 -0.2451
   13DOPE  C318 1674   2.486   3.379  12.390  0.3579  0.5841 -1.0154
   13DOPE  H18X 1675   2.397   3.340  12.337 -0.1445 -0.5806  0.5775
   13DOPE  H18Y 1676   2.469   3.469  12.452  1.1872 -0.6311  1.0882
   13DOPE  H18Z 1677   2.551   3.405  12.304  1.8846 -2.2667 -0.8531
   14DOPE     N 1678   0.446   5.329  15.170 -0.4542 -0.4584 -0.2371
   14DOPE   HN1 1679   0.432   5.370  15.265 -1.0189 -1.2882  0.0491
   14DOPE   HN2 1680   0.536   5.277  15.172  1.1759  2.1317 -0.7943
   14DOPE   HN3 1681   0.462   5.409  15.105 -0.3210 -1.4220 -1.4202
   14DOPE   C12 1682   0.320   5.248  15.139  0.0582  0.1364 -0.0755
   14DOPE  H12A 1683   0.229   5.305  15.168 -0.7384 -0.8200 -0.6121
   14DOPE  H12B 1684   0.318   5.164  15.212  2.0715 -1.9360 -2.2219
   14DOPE   C11 1685   0.331   5.188  15.003  0.4393 -0.0812  0.8511
   14DOPE  H11A 1686   0.331   5.269  14.927 -2.0836  0.1895  1.0553
   14DOPE  H11B 1687   0.246   5.120  14.985  0.5525 -0.2038  0.7718
   14DOPE     P 1688   0.458   4.965  15.009  0.2903  0.0634  0.0117
   14DOPE   O13 1689   0.392   4.928  15.137 -0.0507  0.0586  0.6911
   14DOPE   O14 1690   0.599   4.926  14.993 -0.0116  0.1604 -0.0492
   14DOPE   O11 1691   0.373   4.911  14.890  0.0929 -0.4479  0.0775
   14DOPE   O12 1692   0.455   5.123  14.997  0.3986 -0.5234  0.6486
   14DOPE    C1 1693   0.416   4.949  14.759  0.0442 -0.5089  0.3497
   14DOPE    HA 1694   0.520   4.985  14.754 -0.4458  0.8040 -1.1138
   14DOPE    HB 1695   0.342   5.021  14.719  1.0379 -0.7792 -2.1595
   14DOPE    C2 1696   0.427   4.838  14.655  0.7612 -0.0679  0.5355
   14DOPE    HS 1697   0.444   4.892  14.560 -1.4106 -0.9205 -0.4117
   14DOPE   O21 1698   0.314   4.747  14.648  0.5187 -0.1067 -0.1109
   14DOPE   C21 1699   0.205   4.791  14.581 -0.2878  0.5538 -1.0895
   14DOPE   O22 1700   0.198   4.904  14.529  0.0355  0.3510  0.5457
   14DOPE   C22 1701   0.103   4.680  14.585  0.3380 -0.2449 -0.4819
   14DOPE   H2R 1702   0.052   4.682  14.683 -2.2215  0.8069 -1.7366
   14DOPE   H2S 1703   0.147   4.578  14.574 -0.1507 -0.5242  0.1022
   14DOPE    C3 1704   0.549   4.745  14.682 -0.0275 -0.2629  0.4757
   14DOPE    HX 1705   0.531   4.682  14.772  0.3685 -1.5313 -0.2942
   14DOPE    HY 1706   0.633   4.809  14.716  1.7849 -1.5501 -1.3267
   14DOPE   O31 1707   0.588   4.660  14.567 -0.0494 -0.6440 -0.1890
   14DOPE   C31 1708   0.503   4.560  14.545  0.7008  0.1806  0.1503
   14DOPE   O32 1709   0.427   4.505  14.620 -0.4726  0.1953 -0.2969
   14DOPE   C32 1710   0.515   4.513  14.401 -0.0892 -0.1031  0.2532
   14DOPE   H2X 1711   0.419   4.460  14.380 -0.0649 -0.4753  1.0462
   14DOPE   H2Y 1712   0.525   4.599  14.331 -0.4909 -0.7201 -0.5873
   14DOPE   C23 1713  -0.016   4.690  14.489  0.0922 -0.4545 -0.1935
   14DOPE   H3R 1714  -0.084   4.774  14.513  0.8976  0.1182  0.1207
   14DOPE   H3S 1715  -0.077   4.597  14.491  0.3424 -0.6953 -1.8243
   14DOPE   C24 1716   0.021   4.707  14.342 -0.0313  0.3708  0.7080
   14DOPE   H4R 1717   0.103   4.780  14.323  1.1878 -1.5272 -2.1683
   14DOPE   H4S 1718  -0.075   4.749  14.303  0.7515  0.5154 -1.1984
   14DOPE   C25 1719   0.066   4.587  14.262  0.1898  0.5028  0.0816
   14DOPE   H5R 1720  -0.003   4.507  14.295 -1.1963  1.5043 -0.3376
   14DOPE   H5S 1721   0.174   4.569  14.285  1.0337  1.4661 -2.6926
   14DOPE   C26 1722   0.045   4.599  14.111  0.2733  0.4327  0.5268
   14DOPE   H6R 1723  -0.064   4.621  14.105 -0.1404 -0.2635  3.6823
   14DOPE   H6S 1724   0.057   4.496  14.069 -0.2184  0.7826 -0.5010
   14DOPE   C27 1725   0.135   4.694  14.038 -0.1187  0.0237  0.2082
   14DOPE   H7R 1726   0.135   4.798  14.078 -1.2032  0.7734 -1.6133
   14DOPE   H7S 1727   0.081   4.706  13.942 -0.8702 -1.6805  0.3757
   14DOPE   C28 1728   0.279   4.655  14.021 -0.0892  0.7271 -0.3311
   14DOPE   H8R 1729   0.320   4.646  14.124 -0.3012  0.5527 -0.2629
   14DOPE   H8S 1730   0.332   4.746  13.985  3.5712 -1.1505 -0.2175
   14DOPE   C29 1731   0.302   4.527  13.945 -0.1558  0.0789 -0.1300
   14DOPE   H9R 1732   0.289   4.429  13.994 -1.1411 -0.3341 -1.1595
   14DOPE  C210 1733   0.332   4.505  13.818 -0.7460  0.7248  0.6055
   14DOPE  H10R 1734   0.348   4.403  13.778  0.1101  0.4628  1.5825
   14DOPE  C211 1735   0.351   4.609  13.712 -0.1448 -0.4299  0.1053
   14DOPE  H11R 1736   0.344   4.708  13.762 -1.0389 -1.0737  1.3058
   14DOPE  H11S 1737   0.272   4.613  13.634  1.7282 -1.1158 -1.9356
   14DOPE  C212 1738   0.489   4.612  13.644  0.6391 -0.3523  0.1704
   14DOPE  H12R 1739   0.564   4.604  13.726  0.7570  2.4097  0.4208
   14DOPE  H12S 1740   0.497   4.710  13.592 -0.1441 -0.4747 -0.1844
   14DOPE  C213 1741   0.518   4.506  13.543  0.4657 -0.7550  0.2255
   14DOPE  H13R 1742   0.473   4.408  13.571  0.1998 -1.4693 -2.3632
   14DOPE  H13S 1743   0.625   4.495  13.518 -0.2255 -0.7800 -3.3105
   14DOPE  C214 1744   0.457   4.542  13.404  0.2776  0.1776  0.6202
   14DOPE  H14R 1745   0.494   4.643  13.375  0.0354 -0.5965 -2.8118
   14DOPE  H14S 1746   0.347   4.538  13.419  0.0397 -0.5505 -1.0545
   14DOPE  C215 1747   0.480   4.440  13.292 -0.0897  0.3086 -0.1714
   14DOPE  H15R 1748   0.435   4.347  13.333 -1.6471  2.0205  2.2908
   14DOPE  H15S 1749   0.587   4.418  13.273  0.4476  2.7270 -0.2132
   14DOPE  C216 1750   0.414   4.467  13.156 -0.0422  0.7893 -0.0142
   14DOPE  H16R 1751   0.473   4.530  13.087  0.3322 -0.4789 -0.9017
   14DOPE  H16S 1752   0.322   4.525  13.177 -0.4772  1.2244 -2.7438
   14DOPE  C217 1753   0.370   4.340  13.077  0.0472 -0.3656 -0.1275
   14DOPE  H17R 1754   0.284   4.303  13.138 -1.2326 -1.2950 -2.3940
   14DOPE  H17S 1755   0.450   4.264  13.087  0.0715 -0.1189  2.2551
   14DOPE  C218 1756   0.325   4.354  12.936 -0.3183  0.8193 -0.9642
   14DOPE  H18R 1757   0.403   4.398  12.870 -0.6916  1.6627 -0.8641
   14DOPE  H18S 1758   0.225   4.401  12.922  0.2546  2.7031  0.6563
   14DOPE  H18T 1759   0.316   4.246  12.911  0.5006 -0.2471  2.7014
   14DOPE   C33 1760   0.630   4.407  14.379 -0.0192  0.4824 -0.4420
   14DOPE   H3X 1761   0.626   4.316  14.442 -0.3691  0.4679 -0.4856
   14DOPE   H3Y 1762   0.724   4.464  14.399 -0.0961  0.6708 -0.6066
   14DOPE   C34 1763   0.638   4.362  14.233 -0.0175  0.2615  0.6003
   14DOPE   H4X 1764   0.575   4.271  14.218  0.0647  0.0734  1.3695
   14DOPE   H4Y 1765   0.599   4.449  14.175 -0.9740  0.7034  1.8687
   14DOPE   C35 1766   0.783   4.338  14.194 -0.1506 -0.0760 -0.5754
   14DOPE   H5X 1767   0.817   4.264  14.270 -0.2919  1.2709  0.8375
   14DOPE   H5Y 1768   0.851   4.426  14.196  0.0484 -0.1876 -1.5996
   14DOPE   C36 1769   0.786   4.278  14.054 -0.2160  0.4420  0.2510
   14DOPE   H6X 1770   0.704   4.203  14.057 -0.3233  0.5467 -0.0557
   14DOPE   H6Y 1771   0.874   4.215  14.030 -1.6936 -2.6441  2.2740
   14DOPE   C37 1772   0.758   4.378  13.944 -0.2740 -0.1573 -0.1043
   14DOPE   H7X 1773   0.651   4.406  13.949 -0.4410 -0.8321  0.2081
   14DOPE   H7Y 1774   0.821   4.469  13.952  0.9037 -0.7348 -1.9671
   14DOPE   C38 1775   0.788   4.321  13.802 -0.0378  0.1290 -0.2062
   14DOPE   H8X 1776   0.732   4.369  13.719 -0.7857 -1.6038 -0.7445
   14DOPE   H8Y 1777   0.742   4.221  13.817 -1.4604  0.9317  1.0572
   14DOPE   C39 1778   0.931   4.299  13.770 -0.5473 -0.0158  0.3182
   14DOPE   H9X 1779   1.000   4.311  13.854 -0.1560  2.1578 -0.2638
   14DOPE  C310 1780   0.977   4.265  13.648 -1.0614  0.4929 -0.2813
   14DOPE  H10X 1781   1.086   4.260  13.634 -1.1465 -1.4352 -0.5136
   14DOPE  C311 1782   0.899   4.246  13.518  0.3034 -0.4148  0.0202
   14DOPE  H11X 1783   0.801   4.299  13.524  0.1706 -0.7248  0.8002
   14DOPE  H11Y 1784   0.952   4.307  13.442 -0.3616 -1.4791 -1.3223
   14DOPE  C312 1785   0.874   4.113  13.468  0.1963  0.5242 -0.4034
   14DOPE  H12X 1786   0.835   4.050  13.550  2.2561  1.4279  1.3826
   14DOPE  H12Y 1787   0.960   4.053  13.431 -0.6073 -0.3700 -0.8632
   14DOPE  C313 1788   0.772   4.106  13.358  0.2490 -0.0315 -0.5994
   14DOPE  H13X 1789   0.758   4.003  13.321 -0.4323 -0.4684  0.7910
   14DOPE  H13Y 1790   0.671   4.111  13.406  1.1081  0.5311  1.2576
   14DOPE  C314 1791   0.800   4.209  13.258  0.9934  0.2054 -0.0324
   14DOPE  H14X 1792   0.795   4.316  13.288  1.3471  0.9551 -2.3998
   14DOPE  H14Y 1793   0.706   4.205  13.200 -0.6316  1.6760  2.3468
   14DOPE  C315 1794   0.920   4.183  13.173 -0.2476 -0.0617  0.3882
   14DOPE  H15X 1795   0.909   4.082  13.128 -1.0600  0.6394 -1.0599
   14DOPE  H15Y 1796   1.008   4.185  13.242 -0.2035 -0.1005  0.3325
   14DOPE  C316 1797   0.936   4.286  13.052  0.5292 -0.6325 -0.7818
   14DOPE  H16X 1798   0.920   4.383  13.104  1.6147 -0.7381 -0.2210
   14DOPE  H16Y 1799   0.855   4.258  12.981  1.7706 -0.4293 -2.3318
   14DOPE  C317 1800   1.065   4.283  12.977 -0.4998  0.3037  0.3604
   14DOPE  H17X 1801   1.133   4.349  13.036 -1.7882  1.1153  0.9872
   14DOPE  H17Y 1802   1.090   4.175  12.972 -0.8893  0.2652 -2.6135
   14DOPE  C318 1803   1.070   4.331  12.837  0.2448 -0.1229 -0.0676
   14DOPE  H18X 1804   1.012   4.265  12.769 -3.6948  1.8811  1.0116
   14DOPE  H18Y 1805   1.013   4.427  12.830 -0.9259 -0.6078  1.8780
   14DOPE  H18Z 1806   1.173   4.347  12.800 -0.0718 -0.5735 -1.1766
   15DOPE     N 1807   1.149   2.430  15.199 -0.2876 -0.1995 -0.1780
   15DOPE   HN1 1808   1.232   2.372  15.224 -0.4668 -0.6276 -0.5590
   15DOPE   HN2 1809   1.138   2.514  15.258 -1.6285 -1.2442  1.1285
   15DOPE   HN3 1810   1.070   2.364  15.211 -0.1380 -0.0045  2.2684
   15DOPE   C12 1811   1.182   2.462  15.055  0.4598 -0.4215  0.2168
   15DOPE  H12A 1812   1.100   2.524  15.015  1.4929  0.8758  0.0256
   15DOPE  H12B 1813   1.196   2.368  14.998 -0.8503  0.6441 -2.0147
   15DOPE   C11 1814   1.315   2.541  15.051  0.2057  0.4370  0.2025
   15DOPE  H11A 1815   1.342   2.584  14.952  2.0784 -0.7508  0.1554
   15DOPE  H11B 1816   1.392   2.463  15.065 -1.7566 -1.7607 -0.5060
   15DOPE     P 1817   1.240   2.778  15.144  0.3764 -0.2149  0.2400
   15DOPE   O13 1818   1.311   2.890  15.209 -0.4210  0.0727 -0.4592
   15DOPE   O14 1819   1.104   2.755  15.195  0.3199  0.3171 -0.2255
   15DOPE   O11 1820   1.231   2.812  14.992  0.3229  0.4330 -0.3668
   15DOPE   O12 1821   1.319   2.644  15.152 -0.4543 -0.2892 -0.0636
   15DOPE    C1 1822   1.323   2.886  14.918 -0.5673 -0.1033  0.7607
   15DOPE    HA 1823   1.415   2.910  14.975 -1.3674  1.3444  1.5234
   15DOPE    HB 1824   1.284   2.990  14.903 -1.7934 -0.7827 -1.2104
   15DOPE    C2 1825   1.341   2.831  14.775  0.1808  0.2136 -0.0059
   15DOPE    HS 1826   1.403   2.739  14.778 -0.2001 -0.2897 -3.5301
   15DOPE   O21 1827   1.402   2.924  14.684  0.4557  0.3342  0.1781
   15DOPE   C21 1828   1.534   2.928  14.694 -1.1549  0.0495 -0.1427
   15DOPE   O22 1829   1.598   2.862  14.776 -0.3410 -0.0084 -0.4426
   15DOPE   C22 1830   1.594   3.004  14.581  0.1644 -0.1381 -0.1947
   15DOPE   H2R 1831   1.659   3.081  14.626 -0.4312  0.3927 -0.2275
   15DOPE   H2S 1832   1.521   3.054  14.513 -1.3556  2.3994  3.0360
   15DOPE    C3 1833   1.202   2.781  14.707  0.6059 -0.2702 -0.1490
   15DOPE    HX 1834   1.128   2.859  14.736 -0.5375 -1.8062  1.2664
   15DOPE    HY 1835   1.171   2.684  14.752 -1.8888  1.0989  1.3446
   15DOPE   O31 1836   1.217   2.776  14.567  0.3052 -0.1520 -0.6114
   15DOPE   C31 1837   1.312   2.688  14.525  0.2392 -0.1749  0.1150
   15DOPE   O32 1838   1.364   2.596  14.586 -0.5078 -0.3560  0.2109
   15DOPE   C32 1839   1.343   2.719  14.382 -0.4365 -0.0150  0.4040
   15DOPE   H2X 1840   1.246   2.714  14.330 -0.6074 -2.1962  0.8455
   15DOPE   H2Y 1841   1.378   2.825  14.387 -2.8503  0.8409  0.2426
   15DOPE   C23 1842   1.696   2.920  14.496  0.8438  0.4442  1.0718
   15DOPE   H3R 1843   1.639   2.828  14.472  1.7382 -0.3575  1.9084
   15DOPE   H3S 1844   1.786   2.896  14.558 -1.0732 -2.3532  3.0557
   15DOPE   C24 1845   1.732   2.978  14.359 -0.4999  0.2925 -0.0668
   15DOPE   H4R 1846   1.749   3.088  14.356  0.5904  0.1201 -1.0581
   15DOPE   H4S 1847   1.648   2.959  14.289  0.5253  0.1918 -1.2985
   15DOPE   C25 1848   1.857   2.927  14.298 -0.8319  0.6456  0.2060
   15DOPE   H5R 1849   1.854   2.816  14.289 -2.1772  0.7289 -0.7860
   15DOPE   H5S 1850   1.945   2.970  14.349 -0.3512 -1.6800  1.5123
   15DOPE   C26 1851   1.884   2.978  14.153 -0.0791  0.0555 -0.0526
   15DOPE   H6R 1852   1.799   2.944  14.090  0.3930  0.5091 -0.9520
   15DOPE   H6S 1853   1.968   2.919  14.111 -0.3118  0.2518 -0.8064
   15DOPE   C27 1854   1.904   3.129  14.127  0.5113  0.2603 -0.9554
   15DOPE   H7R 1855   1.999   3.169  14.168  0.1959 -1.5482  1.8599
   15DOPE   H7S 1856   1.824   3.196  14.166  1.2359 -0.1967  1.4938
   15DOPE   C28 1857   1.890   3.158  13.976  0.0788 -0.2232 -0.4770
   15DOPE   H8R 1858   1.909   3.267  13.963 -0.3728  0.0815  1.2565
   15DOPE   H8S 1859   1.785   3.133  13.949  0.0639 -1.7103  0.8193
   15DOPE   C29 1860   1.988   3.084  13.894  0.4044 -0.0957 -0.0570
   15DOPE   H9R 1861   2.050   3.011  13.948  0.3973  0.5285  0.8127
   15DOPE  C210 1862   2.009   3.112  13.764  0.4889 -0.5065  0.6855
   15DOPE  H10R 1863   2.071   3.047  13.702 -1.3277 -1.2891 -0.3900
   15DOPE  C211 1864   1.932   3.208  13.684  0.3546 -0.7265 -0.1340
   15DOPE  H11R 1865   1.939   3.314  13.718 -2.9887 -0.5881  0.4985
   15DOPE  H11S 1866   1.830   3.188  13.722  0.5444 -0.0596  0.7630
   15DOPE  C212 1867   1.939   3.207  13.538  0.0795 -0.3445 -0.2842
   15DOPE  H12R 1868   2.045   3.215  13.508  0.3533 -2.8601 -0.2502
   15DOPE  H12S 1869   1.883   3.299  13.513  3.1257  2.1970  1.5358
   15DOPE  C213 1870   1.862   3.087  13.492 -0.0574 -0.1592 -0.4472
   15DOPE  H13R 1871   1.760   3.090  13.537  0.8986  0.4999  1.7934
   15DOPE  H13S 1872   1.914   3.001  13.539 -1.9151 -1.0267  0.1093
   15DOPE  C214 1873   1.875   3.075  13.338 -0.2883  0.0510  0.6426
   15DOPE  H14R 1874   1.865   2.965  13.322  1.6071 -0.4173  2.2710
   15DOPE  H14S 1875   1.974   3.104  13.297  0.8883 -1.7361  2.0701
   15DOPE  C215 1876   1.763   3.149  13.265  0.7763 -0.0113 -0.3895
   15DOPE  H15R 1877   1.795   3.255  13.253 -0.1162  0.4634  1.1096
   15DOPE  H15S 1878   1.670   3.153  13.325  0.1982  1.1535 -1.3158
   15DOPE  C216 1879   1.713   3.097  13.131  0.7427  0.5201  0.3893
   15DOPE  H16R 1880   1.619   3.150  13.107 -1.1943 -2.0693  1.7665
   15DOPE  H16S 1881   1.695   2.987  13.135  2.1025  0.2191 -0.8866
   15DOPE  C217 1882   1.827   3.117  13.029  0.1167  0.0036  0.5764
   15DOPE  H17R 1883   1.918   3.057  13.050 -0.2503 -1.5581 -1.8409
   15DOPE  H17S 1884   1.848   3.226  13.028  1.8923 -0.3053  1.3284
   15DOPE  C218 1885   1.786   3.078  12.886 -0.1673  0.3126 -0.4422
   15DOPE  H18R 1886   1.677   3.083  12.866 -0.0948  0.4008 -0.8414
   15DOPE  H18S 1887   1.788   2.969  12.867 -2.6044  0.3532 -1.2554
   15DOPE  H18T 1888   1.852   3.129  12.812  0.2833 -0.4623 -0.5844
   15DOPE   C33 1889   1.436   2.620  14.309 -0.5153 -0.7614  0.3951
   15DOPE   H3X 1890   1.411   2.513  14.323 -0.2292 -0.6972  1.5249
   15DOPE   H3Y 1891   1.533   2.632  14.363 -1.0232  0.5870  1.0538
   15DOPE   C34 1892   1.444   2.663  14.166 -0.5872  0.1091 -0.6093
   15DOPE   H4X 1893   1.343   2.672  14.120 -0.4745 -0.1990 -0.9185
   15DOPE   H4Y 1894   1.483   2.767  14.168  0.2947 -0.1452  2.8783
   15DOPE   C35 1895   1.525   2.563  14.083 -0.4989 -0.2027  0.4177
   15DOPE   H5X 1896   1.481   2.462  14.066 -0.1899 -0.5409  1.5466
   15DOPE   H5Y 1897   1.621   2.550  14.137 -0.0535  0.2009 -0.2570
   15DOPE   C36 1898   1.564   2.614  13.939  0.6756 -0.3273  0.7703
   15DOPE   H6X 1899   1.574   2.724  13.948 -0.2401 -0.1943  0.2391
   15DOPE   H6Y 1900   1.481   2.598  13.867  1.5373 -2.9072  0.2423
   15DOPE   C37 1901   1.688   2.539  13.892  0.1376 -0.7534  0.6804
   15DOPE   H7X 1902   1.712   2.448  13.951 -0.8600 -1.1399  0.5202
   15DOPE   H7Y 1903   1.666   2.521  13.785 -0.5355  0.4605  0.5920
   15DOPE   C38 1904   1.808   2.637  13.885 -0.4058  0.4494 -0.7247
   15DOPE   H8X 1905   1.888   2.586  13.827  0.3162  1.8104 -0.9664
   15DOPE   H8Y 1906   1.853   2.640  13.986 -0.3672 -3.1136 -0.4889
   15DOPE   C39 1907   1.786   2.776  13.836  0.1437 -0.0090 -0.0371
   15DOPE   H9X 1908   1.772   2.847  13.919 -1.9550 -1.1772  0.6813
   15DOPE  C310 1909   1.764   2.813  13.707 -0.0662  0.4664 -0.1203
   15DOPE  H10X 1910   1.741   2.919  13.690 -2.3636 -0.2624 -2.2323
   15DOPE  C311 1911   1.757   2.718  13.588  0.4836  0.0775  0.2593
   15DOPE  H11X 1912   1.829   2.752  13.511 -0.1099  2.2197  0.5853
   15DOPE  H11Y 1913   1.786   2.614  13.616 -1.1864 -0.2667  0.8750
   15DOPE  C312 1914   1.619   2.704  13.521 -0.4127  0.0113 -0.1888
   15DOPE  H12X 1915   1.592   2.802  13.476  0.8265  0.7441  0.6057
   15DOPE  H12Y 1916   1.536   2.678  13.591  0.4530 -0.2412  0.7638
   15DOPE  C313 1917   1.619   2.612  13.398  0.3293  0.0600  0.2205
   15DOPE  H13X 1918   1.662   2.515  13.432 -0.1135  0.2453  1.3640
   15DOPE  H13Y 1919   1.510   2.597  13.381  0.2940 -1.1856  1.3506
   15DOPE  C314 1920   1.668   2.677  13.268  0.8135  0.8807 -0.5954
   15DOPE  H14X 1921   1.779   2.682  13.273  0.7297  2.1200  0.4813
   15DOPE  H14Y 1922   1.632   2.781  13.256 -0.5256  0.5531  0.4082
   15DOPE  C315 1923   1.621   2.593  13.150 -0.3250 -0.3805 -0.6156
   15DOPE  H15X 1924   1.510   2.596  13.144 -0.7851  0.6023  4.2640
   15DOPE  H15Y 1925   1.640   2.487  13.176 -0.4774 -0.1569  0.4742
   15DOPE  C316 1926   1.692   2.618  13.012 -0.0995  0.2673  0.3092
   15DOPE  H16X 1927   1.802   2.613  13.024 -0.2465 -1.8659  1.1986
   15DOPE  H16Y 1928   1.663   2.721  12.984  0.4377 -0.0084 -1.3460
   15DOPE  C317 1929   1.651   2.520  12.898 -0.1960 -0.0618  0.5581
   15DOPE  H17X 1930   1.734   2.518  12.823 -1.5554  0.5484 -1.0139
   15DOPE  H17Y 1931   1.646   2.420  12.946 -0.1574  0.0826  0.8671
   15DOPE  C318 1932   1.517   2.549  12.829 -0.4854 -0.0546 -0.1401
   15DOPE  H18X 1933   1.423   2.530  12.884 -1.0308 -2.0607 -1.6345
   15DOPE  H18Y 1934   1.517   2.657  12.807  0.3520  0.0403  0.2703
   15DOPE  H18Z 1935   1.520   2.481  12.740  1.9194 -2.4956  1.6339
   16DOPE     N 1936   1.551   3.989  14.839 -0.5473  0.6584 -0.8711
   16DOPE   HN1 1937   1.525   3.939  14.927  3.0183  0.2981  0.1487
   16DOPE   HN2 1938   1.646   3.957  14.811 -0.6552  0.8164 -1.4313
   16DOPE   HN3 1939   1.572   4.083  14.878 -0.6465  0.2042  0.3495
   16DOPE   C12 1940   1.467   3.989  14.718 -0.3045  0.0410 -0.0239
   16DOPE  H12A 1941   1.391   4.067  14.739  2.1101  2.6230 -0.2470
   16DOPE  H12B 1942   1.424   3.886  14.720 -1.0133  0.3263 -0.3649
   16DOPE   C11 1943   1.534   4.014  14.582 -0.1739 -0.0405  0.0058
   16DOPE  H11A 1944   1.460   4.015  14.500  0.0129  0.2307 -0.1650
   16DOPE  H11B 1945   1.591   3.923  14.555 -0.2176  0.1613 -0.7819
   16DOPE     P 1946   1.559   4.279  14.559 -0.2403  0.4288  0.0055
   16DOPE   O13 1947   1.665   4.371  14.602 -0.4477 -0.5060 -0.0758
   16DOPE   O14 1948   1.426   4.274  14.640 -0.5350  0.3425  0.4336
   16DOPE   O11 1949   1.530   4.278  14.406  0.4321  0.0294 -0.1999
   16DOPE   O12 1950   1.619   4.128  14.571  0.6077  0.2516 -0.4107
   16DOPE    C1 1951   1.615   4.341  14.309  0.2154 -0.6007 -0.2396
   16DOPE    HA 1952   1.598   4.301  14.207 -1.9637  1.8626 -0.9369
   16DOPE    HB 1953   1.723   4.322  14.331  1.1836  2.0866 -2.2203
   16DOPE    C2 1954   1.605   4.492  14.318  0.5691 -0.7089 -0.2287
   16DOPE    HS 1955   1.606   4.520  14.425  0.4235  0.5455 -0.5388
   16DOPE   O21 1956   1.483   4.525  14.247 -0.2732 -0.2469  0.6224
   16DOPE   C21 1957   1.438   4.650  14.276 -0.3071  0.1733  0.6898
   16DOPE   O22 1958   1.482   4.723  14.358  0.1088  0.1205  0.3083
   16DOPE   C22 1959   1.318   4.670  14.187 -0.2174  0.2440 -0.1155
   16DOPE   H2R 1960   1.234   4.700  14.253  0.2714  0.6529  0.3375
   16DOPE   H2S 1961   1.293   4.574  14.138 -0.1088  0.3961 -0.4720
   16DOPE    C3 1962   1.728   4.561  14.245 -0.1209 -0.4569  0.6098
   16DOPE    HX 1963   1.821   4.519  14.289  1.0819 -0.7205 -1.9872
   16DOPE    HY 1964   1.716   4.671  14.244 -2.6427 -0.6624  1.4817
   16DOPE   O31 1965   1.739   4.504  14.111  0.2848  0.5516  0.1754
   16DOPE   C31 1966   1.739   4.588  14.007 -0.7742  0.3386  0.0419
   16DOPE   O32 1967   1.745   4.707  14.011  0.1605 -0.0836  0.7980
   16DOPE   C32 1968   1.751   4.503  13.880 -0.1912  0.7552 -0.1000
   16DOPE   H2X 1969   1.833   4.428  13.889  1.0470  2.1629  1.0882
   16DOPE   H2Y 1970   1.650   4.459  13.867 -0.0877 -0.9142  3.3609
   16DOPE   C23 1971   1.326   4.783  14.084  0.1777 -0.8255 -0.2221
   16DOPE   H3R 1972   1.383   4.871  14.121 -1.1542 -0.0034 -0.0908
   16DOPE   H3S 1973   1.225   4.811  14.048  0.0888 -1.7991 -0.7799
   16DOPE   C24 1974   1.389   4.727  13.956 -0.9938  0.0266 -0.5124
   16DOPE   H4R 1975   1.339   4.629  13.936 -0.4511 -0.4450  0.3663
   16DOPE   H4S 1976   1.499   4.712  13.947 -0.4462  2.4033  1.3277
   16DOPE   C25 1977   1.353   4.801  13.832 -0.2649  0.6715  0.9795
   16DOPE   H5R 1978   1.381   4.908  13.843  0.1952  0.9154 -1.7899
   16DOPE   H5S 1979   1.247   4.803  13.799  0.5636 -0.1310 -2.0237
   16DOPE   C26 1980   1.434   4.762  13.714  0.2357  0.8234 -0.0105
   16DOPE   H6R 1981   1.539   4.780  13.743  0.5322  1.2408 -1.2796
   16DOPE   H6S 1982   1.411   4.827  13.627  0.2291 -0.5112 -1.0496
   16DOPE   C27 1983   1.415   4.616  13.662  0.4700  0.8490  0.5038
   16DOPE   H7R 1984   1.458   4.545  13.735 -3.1565 -1.3553  0.7536
   16DOPE   H7S 1985   1.485   4.604  13.576  0.7372  0.9532  0.7062
   16DOPE   C28 1986   1.273   4.576  13.617 -0.3164  0.3487 -0.4671
   16DOPE   H8R 1987   1.205   4.579  13.705  0.9891 -0.9425  0.6534
   16DOPE   H8S 1988   1.276   4.468  13.589 -0.4566  0.1440  0.2770
   16DOPE   C29 1989   1.214   4.648  13.499  0.2428  0.7009  0.2662
   16DOPE   H9R 1990   1.220   4.755  13.523  1.5599  0.2042  2.3358
   16DOPE  C210 1991   1.190   4.593  13.378 -0.4457 -0.2032  0.1124
   16DOPE  H10R 1992   1.149   4.659  13.300 -0.5872  0.7305  0.9507
   16DOPE  C211 1993   1.197   4.450  13.335  0.5998 -1.2592  0.0898
   16DOPE  H11R 1994   1.124   4.422  13.256 -0.2329  1.2831 -0.1198
   16DOPE  H11S 1995   1.174   4.384  13.421 -2.1215  0.3155  0.6720
   16DOPE  C212 1996   1.327   4.400  13.275 -0.3606  0.4211 -0.3680
   16DOPE  H12R 1997   1.412   4.432  13.339  0.1676  4.0885 -2.6009
   16DOPE  H12S 1998   1.342   4.462  13.184  1.7007  0.3269 -0.1414
   16DOPE  C213 1999   1.327   4.246  13.257  0.5761 -0.3540 -0.1585
   16DOPE  H13R 2000   1.226   4.218  13.219  0.4295  1.3917 -1.2152
   16DOPE  H13S 2001   1.340   4.200  13.357 -2.9177  0.6898  0.9206
   16DOPE  C214 2002   1.441   4.191  13.173  0.9919  0.7116 -0.5148
   16DOPE  H14R 2003   1.453   4.082  13.186 -1.5211  0.0366 -2.7692
   16DOPE  H14S 2004   1.533   4.245  13.203 -0.0581  2.8773 -1.0052
   16DOPE  C215 2005   1.433   4.192  13.018 -0.1025  0.3933  0.3576
   16DOPE  H15R 2006   1.430   4.299  12.986  0.4886  1.3489  3.2206
   16DOPE  H15S 2007   1.333   4.153  12.990 -1.0808  2.6051  0.5217
   16DOPE  C216 2008   1.548   4.134  12.946  0.9599 -0.2868  0.5071
   16DOPE  H16R 2009   1.568   4.031  12.982 -1.6355 -0.5786  1.3706
   16DOPE  H16S 2010   1.634   4.204  12.945 -0.6130  1.7433  0.1934
   16DOPE  C217 2011   1.525   4.105  12.796  0.0206 -0.2173  0.0779
   16DOPE  H17R 2012   1.626   4.101  12.751 -0.8245  0.0829 -1.9386
   16DOPE  H17S 2013   1.456   4.183  12.756 -1.8249 -1.0082  1.5463
   16DOPE  C218 2014   1.460   3.970  12.764 -0.6182 -0.0219  0.0059
   16DOPE  H18R 2015   1.503   3.883  12.818  1.4590  1.5885  1.1350
   16DOPE  H18S 2016   1.477   3.956  12.656  0.9787 -1.6404  0.4151
   16DOPE  H18T 2017   1.351   3.977  12.785 -0.6794  2.7293 -0.8046
   16DOPE   C33 2018   1.786   4.596  13.764  0.7023 -0.3098  0.5776
   16DOPE   H3X 2019   1.891   4.631  13.776  0.3800  0.7639  0.3113
   16DOPE   H3Y 2020   1.722   4.685  13.754 -1.0065 -1.4357  1.1301
   16DOPE   C34 2021   1.778   4.513  13.634  0.1637  0.5256 -0.3474
   16DOPE   H4X 2022   1.861   4.439  13.640 -0.0720  0.2610 -0.3171
   16DOPE   H4Y 2023   1.678   4.465  13.643  0.2507  0.4704  0.3367
   16DOPE   C35 2024   1.801   4.588  13.500 -0.3780  0.3372  0.6851
   16DOPE   H5X 2025   1.905   4.625  13.496 -0.8761  1.6993 -0.7999
   16DOPE   H5Y 2026   1.736   4.676  13.523 -0.3942 -0.0208  2.0908
   16DOPE   C36 2027   1.757   4.507  13.384 -0.0975  0.2148 -0.3131
   16DOPE   H6X 2028   1.646   4.505  13.387 -0.0763 -1.1115  0.2066
   16DOPE   H6Y 2029   1.792   4.402  13.387 -0.2488  0.1508 -0.7082
   16DOPE   C37 2030   1.812   4.578  13.266 -0.3497  0.2341  1.0373
   16DOPE   H7X 2031   1.787   4.684  13.288  3.0163  1.1321  0.9867
   16DOPE   H7Y 2032   1.923   4.577  13.264 -0.3365  0.7823 -1.4935
   16DOPE   C38 2033   1.753   4.535  13.128 -0.0008 -1.4225 -0.1281
   16DOPE   H8X 2034   1.777   4.604  13.044 -0.8214 -0.5931  0.3045
   16DOPE   H8Y 2035   1.643   4.546  13.141  0.3601  2.1024  1.0423
   16DOPE   C39 2036   1.785   4.396  13.096  0.0927 -0.5776 -0.2413
   16DOPE   H9X 2037   1.756   4.318  13.167  0.4371  0.2520  0.8489
   16DOPE  C310 2038   1.853   4.356  12.992  0.2851 -0.3886 -0.3972
   16DOPE  H10X 2039   1.880   4.250  12.988  1.9838 -0.1267  2.0356
   16DOPE  C311 2040   1.918   4.426  12.876 -0.5122 -0.2479  0.1941
   16DOPE  H11X 2041   1.895   4.534  12.875  1.7973  0.2863  0.1010
   16DOPE  H11Y 2042   2.028   4.419  12.888 -0.4813  1.4767  1.1246
   16DOPE  C312 2043   1.863   4.378  12.736  0.1471  0.3473 -0.1720
   16DOPE  H12X 2044   1.754   4.400  12.734 -0.0770 -0.6817  0.2752
   16DOPE  H12Y 2045   1.881   4.269  12.722  0.1533  0.3882 -0.4948
   16DOPE  C313 2046   1.919   4.450  12.608  0.6930 -0.3977 -0.3639
   16DOPE  H13X 2047   1.911   4.560  12.612 -0.6121 -0.5136  2.0663
   16DOPE  H13Y 2048   2.026   4.420  12.606  0.3247 -1.8118 -2.4362
   16DOPE  C314 2049   1.847   4.408  12.481  0.5721 -0.3438 -0.0485
   16DOPE  H14X 2050   1.873   4.478  12.399 -0.2536 -0.4568 -0.4134
   16DOPE  H14Y 2051   1.744   4.419  12.520  0.8644  0.7338  0.4496
   16DOPE  C315 2052   1.883   4.263  12.435 -0.1582 -0.0259 -0.1985
   16DOPE  H15X 2053   1.840   4.190  12.507  0.3406 -0.4928 -0.3683
   16DOPE  H15Y 2054   1.994   4.255  12.436  0.1501  2.9044  0.7143
   16DOPE  C316 2055   1.823   4.227  12.303  0.2475  0.3123 -0.2020
   16DOPE  H16X 2056   1.831   4.316  12.236  0.4228  1.0359  0.7526
   16DOPE  H16Y 2057   1.713   4.208  12.309  0.0475 -1.2736 -4.8897
   16DOPE  C317 2058   1.898   4.108  12.231 -0.4314 -0.7313  0.4064
   16DOPE  H17X 2059   1.850   4.101  12.131 -1.6856  4.3243  0.3671
   16DOPE  H17Y 2060   2.002   4.145  12.220 -0.6119 -0.0652  0.8282
   16DOPE  C318 2061   1.893   3.975  12.306 -0.4612  0.2999 -0.7138
   16DOPE  H18X 2062   1.944   3.892  12.251 -1.5766 -1.3443  0.6319
   16DOPE  H18Y 2063   1.935   3.985  12.409 -4.1753 -0.2188  1.0313
   16DOPE  H18Z 2064   1.788   3.949  12.329 -0.2757  0.7592  0.7923
   17DOPE     N 2065   3.312   6.531  14.359  0.2529 -0.0953 -0.3398
   17DOPE   HN1 2066   3.237   6.516  14.289  1.6442 -1.8580 -1.5538
   17DOPE   HN2 2067   3.404   6.529  14.310 -1.0186 -0.2466 -2.8547
   17DOPE   HN3 2068   3.302   6.453  14.427 -0.6677 -0.8755 -1.3376
   17DOPE   C12 2069   3.287   6.664  14.423  1.0064 -0.7812  0.1052
   17DOPE  H12A 2070   3.351   6.678  14.513  0.0136  1.8413  0.4825
   17DOPE  H12B 2071   3.182   6.674  14.456  1.1867 -3.9740  2.0953
   17DOPE   C11 2072   3.335   6.781  14.342  0.8718 -0.4199 -0.4676
   17DOPE  H11A 2073   3.443   6.771  14.318  0.9899  0.2435 -0.2447
   17DOPE  H11B 2074   3.319   6.858  14.420 -0.3551 -1.4611  0.3515
   17DOPE     P 2075   3.308   6.920  14.133  0.3272  0.3483 -0.0835
   17DOPE   O13 2076   3.434   6.973  14.201  0.7966  0.3702  0.7849
   17DOPE   O14 2077   3.207   7.027  14.114 -0.2004  0.0414 -0.3008
   17DOPE   O11 2078   3.341   6.847  13.997 -0.2182 -0.2752  0.1825
   17DOPE   O12 2079   3.253   6.807  14.234 -0.4789 -0.2891  0.5947
   17DOPE    C1 2080   3.301   6.711  13.972 -0.6700 -0.3370 -0.7638
   17DOPE    HA 2081   3.194   6.691  13.994 -0.2838 -3.2570 -1.0968
   17DOPE    HB 2082   3.355   6.645  14.043 -0.0767  1.5156  0.5715
   17DOPE    C2 2083   3.321   6.672  13.820  0.7120  0.1192 -0.4896
   17DOPE    HS 2084   3.282   6.570  13.798  1.1196 -0.0617 -0.3841
   17DOPE   O21 2085   3.457   6.676  13.792 -0.0434  0.3288  0.1803
   17DOPE   C21 2086   3.511   6.588  13.699 -0.0016 -0.0340 -0.2793
   17DOPE   O22 2087   3.443   6.511  13.636 -0.1839  0.1411 -0.0104
   17DOPE   C22 2088   3.660   6.607  13.676 -0.0710 -0.2524  0.1201
   17DOPE   H2R 2089   3.713   6.548  13.754 -0.5780 -2.0047 -0.7962
   17DOPE   H2S 2090   3.695   6.712  13.690  0.4011 -0.3850 -0.0144
   17DOPE    C3 2091   3.245   6.769  13.725 -0.3382  0.5739 -0.4432
   17DOPE    HX 2092   3.303   6.861  13.748  1.5650 -0.8828  0.8806
   17DOPE    HY 2093   3.141   6.791  13.759 -1.9029 -3.6215 -1.8580
   17DOPE   O31 2094   3.259   6.728  13.590  0.0689 -0.0896  0.4820
   17DOPE   C31 2095   3.159   6.652  13.543  0.3495 -0.0121  0.0263
   17DOPE   O32 2096   3.056   6.632  13.603  0.3489  0.3687 -0.3085
   17DOPE   C32 2097   3.194   6.592  13.405 -0.1921 -0.8785  0.2353
   17DOPE   H2X 2098   3.289   6.538  13.424 -0.6940 -0.9674  2.8547
   17DOPE   H2Y 2099   3.113   6.521  13.379 -2.0328  1.0955  0.3070
   17DOPE   C23 2100   3.700   6.557  13.534 -0.5161 -0.0098  0.4816
   17DOPE   H3R 2101   3.657   6.456  13.522 -1.5157  0.0853  2.7963
   17DOPE   H3S 2102   3.809   6.540  13.547 -0.9638 -3.3348  0.5937
   17DOPE   C24 2103   3.661   6.654  13.426 -0.0028 -0.1110 -0.0149
   17DOPE   H4R 2104   3.695   6.759  13.442 -3.4434  1.0616  0.4637
   17DOPE   H4S 2105   3.550   6.657  13.418 -0.0692 -0.4712  0.6521
   17DOPE   C25 2106   3.716   6.618  13.285  0.5944  0.1195  0.0265
   17DOPE   H5R 2107   3.806   6.555  13.297 -0.8102 -2.1458 -0.6003
   17DOPE   H5S 2108   3.738   6.714  13.232  0.0058  1.5628  2.2453
   17DOPE   C26 2109   3.609   6.542  13.199  0.2560 -0.0304 -0.2224
   17DOPE   H6R 2110   3.520   6.607  13.183 -2.3306 -2.9038  1.2223
   17DOPE   H6S 2111   3.562   6.452  13.245 -2.3914  1.9535  1.2745
   17DOPE   C27 2112   3.662   6.494  13.066 -0.5041 -0.1669 -0.2356
   17DOPE   H7R 2113   3.588   6.425  13.021 -0.4976  0.3274 -1.0175
   17DOPE   H7S 2114   3.753   6.436  13.092 -0.0597  0.8616  0.5992
   17DOPE   C28 2115   3.683   6.602  12.964  0.3515  0.5663  0.3333
   17DOPE   H8R 2116   3.742   6.684  13.009  1.0446 -0.8731  2.1953
   17DOPE   H8S 2117   3.585   6.639  12.928  0.7496  0.5786 -0.7845
   17DOPE   C29 2118   3.769   6.547  12.855  0.0532 -0.0284 -0.0822
   17DOPE   H9R 2119   3.869   6.509  12.882  0.0106 -0.1482 -0.0887
   17DOPE  C210 2120   3.745   6.542  12.723  0.0379 -0.1611 -0.2480
   17DOPE  H10R 2121   3.817   6.483  12.663  0.5504 -1.6040  1.6805
   17DOPE  C211 2122   3.619   6.582  12.649 -0.2363  0.1996 -0.7754
   17DOPE  H11R 2123   3.540   6.617  12.719  0.6726  1.4235 -0.3156
   17DOPE  H11S 2124   3.574   6.492  12.602 -1.1040 -0.4243  1.1407
   17DOPE  C212 2125   3.641   6.682  12.529  0.1408  0.2685  0.3169
   17DOPE  H12R 2126   3.704   6.761  12.575 -0.6348  1.3084 -0.3809
   17DOPE  H12S 2127   3.547   6.726  12.490 -1.0134 -3.3115 -1.3603
   17DOPE  C213 2128   3.704   6.629  12.400  0.3263 -0.2303 -0.0751
   17DOPE  H13R 2129   3.671   6.525  12.378  1.4538 -0.9330  1.3414
   17DOPE  H13S 2130   3.814   6.618  12.412  0.1843 -0.0092  1.8879
   17DOPE  C214 2131   3.665   6.718  12.281 -0.6950  1.0814 -0.1904
   17DOPE  H14R 2132   3.558   6.746  12.285 -0.0143  3.9535  2.5039
   17DOPE  H14S 2133   3.679   6.654  12.192  0.1053 -0.1298  0.7672
   17DOPE  C215 2134   3.749   6.846  12.289  0.6598  0.2920 -0.5601
   17DOPE  H15R 2135   3.852   6.834  12.330 -0.3541 -1.1839  1.7454
   17DOPE  H15S 2136   3.699   6.902  12.371 -1.9332 -0.2349 -1.6862
   17DOPE  C216 2137   3.737   6.928  12.162  0.6132  0.1124 -0.1335
   17DOPE  H16R 2138   3.634   6.924  12.120  1.3771  0.0546 -2.1273
   17DOPE  H16S 2139   3.806   6.880  12.090  0.5366  0.4368 -0.4278
   17DOPE  C217 2140   3.783   7.074  12.169 -0.0477  0.3892  1.4806
   17DOPE  H17R 2141   3.885   7.070  12.213  0.6285 -0.5549 -0.0941
   17DOPE  H17S 2142   3.719   7.124  12.245 -1.6489 -2.5887  2.2403
   17DOPE  C218 2143   3.783   7.161  12.041 -0.5591 -0.1926  0.3470
   17DOPE  H18R 2144   3.834   7.259  12.055 -2.7463  1.3460 -1.7770
   17DOPE  H18S 2145   3.676   7.185  12.024 -1.2791 -1.6417  2.4424
   17DOPE  H18T 2146   3.828   7.114  11.951 -1.5054  2.9453 -1.9168
   17DOPE   C33 2147   3.223   6.687  13.284 -0.2981 -0.1071 -0.1749
   17DOPE   H3X 2148   3.324   6.729  13.303 -0.8520  0.0561  2.9759
   17DOPE   H3Y 2149   3.159   6.777  13.278 -0.6377 -0.3759 -0.6100
   17DOPE   C34 2150   3.212   6.614  13.152 -0.5019 -0.0070  0.0195
   17DOPE   H4X 2151   3.268   6.518  13.157  2.6667  1.7222  0.4559
   17DOPE   H4Y 2152   3.103   6.600  13.140 -0.5485  0.4489 -0.1058
   17DOPE   C35 2153   3.272   6.704  13.041  0.5413  0.3423 -0.6944
   17DOPE   H5X 2154   3.380   6.722  13.060  0.5874  1.5985 -2.0009
   17DOPE   H5Y 2155   3.218   6.801  13.036  0.2577  0.4188  2.1779
   17DOPE   C36 2156   3.257   6.633  12.918  0.2997 -0.4623  0.1425
   17DOPE   H6X 2157   3.156   6.588  12.925 -0.7417  1.4857 -1.3571
   17DOPE   H6Y 2158   3.335   6.554  12.912 -1.0525 -1.9195  1.0508
   17DOPE   C37 2159   3.260   6.733  12.800 -0.1932 -0.1764 -0.4447
   17DOPE   H7X 2160   3.183   6.812  12.814 -0.5176 -0.3768 -1.0559
   17DOPE   H7Y 2161   3.364   6.770  12.787  0.1525 -0.9826 -0.0484
   17DOPE   C38 2162   3.226   6.656  12.674  0.9117 -0.1222  0.1260
   17DOPE   H8X 2163   3.128   6.609  12.699  0.0430  2.4606  2.0979
   17DOPE   H8Y 2164   3.292   6.567  12.681 -1.3144 -1.8662  0.2142
   17DOPE   C39 2165   3.210   6.734  12.543 -0.5547  0.6071 -0.1586
   17DOPE   H9X 2166   3.220   6.843  12.534 -1.3696  0.6222 -0.9939
   17DOPE  C310 2167   3.175   6.683  12.425  0.7300 -0.2052  1.0683
   17DOPE  H10X 2168   3.190   6.750  12.339 -1.9054 -3.0905 -1.9156
   17DOPE  C311 2169   3.128   6.545  12.387  0.6150  0.5543 -0.1865
   17DOPE  H11X 2170   3.142   6.475  12.473  1.4482 -1.3089 -1.7558
   17DOPE  H11Y 2171   3.022   6.565  12.363  0.4301 -0.7853 -0.5731
   17DOPE  C312 2172   3.188   6.491  12.259 -0.2300  0.1866  0.3610
   17DOPE  H12X 2173   3.177   6.564  12.175 -0.8391 -0.7287 -0.3713
   17DOPE  H12Y 2174   3.137   6.401  12.220  0.3424  0.6739 -1.6094
   17DOPE  C313 2175   3.343   6.472  12.268  0.4485  0.7858 -0.8372
   17DOPE  H13X 2176   3.395   6.568  12.289 -1.4180  1.7914 -0.5802
   17DOPE  H13Y 2177   3.358   6.400  12.351  0.3675  0.5832 -0.9995
   17DOPE  C314 2178   3.412   6.397  12.153  0.0567  0.3172 -0.6735
   17DOPE  H14X 2179   3.368   6.298  12.133 -1.0279  0.9078 -1.2916
   17DOPE  H14Y 2180   3.518   6.371  12.172 -0.0037  2.2237  3.3044
   17DOPE  C315 2181   3.414   6.482  12.025  0.0023 -0.3493  0.3764
   17DOPE  H15X 2182   3.399   6.591  12.042  0.0808 -0.0865 -1.1052
   17DOPE  H15Y 2183   3.315   6.470  11.976 -1.2124  2.3306  1.9192
   17DOPE  C316 2184   3.525   6.458  11.917  0.1144  0.6627 -0.1671
   17DOPE  H16X 2185   3.497   6.357  11.878 -2.4378  1.6784 -1.1300
   17DOPE  H16Y 2186   3.626   6.458  11.965  0.2949 -0.9941 -0.4812
   17DOPE  C317 2187   3.527   6.563  11.806 -0.5820 -0.3144 -0.2374
   17DOPE  H17X 2188   3.425   6.568  11.763 -0.3636 -1.3472 -0.9300
   17DOPE  H17Y 2189   3.551   6.654  11.864 -1.9695 -1.5492  2.5035
   17DOPE  C318 2190   3.625   6.532  11.688 -0.4240 -0.2880 -0.4193
   17DOPE  H18X 2191   3.601   6.594  11.599 -0.9524 -0.5509 -0.4638
   17DOPE  H18Y 2192   3.731   6.555  11.711 -0.9902  2.7006 -0.4282
   17DOPE  H18Z 2193   3.620   6.426  11.657  1.0659 -0.6872  0.5783
   18DOPE     N 2194   0.409   3.565  15.357  0.0215 -0.0179 -0.0381
   18DOPE   HN1 2195   0.402   3.568  15.461  3.3208 -0.3731  0.2897
   18DOPE   HN2 2196   0.434   3.472  15.320 -0.2625  0.6961 -2.1244
   18DOPE   HN3 2197   0.478   3.636  15.325  0.5765 -0.5400 -0.0050
   18DOPE   C12 2198   0.277   3.592  15.296  0.2665 -0.1696  0.1247
   18DOPE  H12A 2199   0.250   3.694  15.329 -2.5862  0.5157 -3.6669
   18DOPE  H12B 2200   0.197   3.539  15.352  0.3817  1.1574  1.6082
   18DOPE   C11 2201   0.268   3.572  15.138  0.4556  0.1102  0.4227
   18DOPE  H11A 2202   0.163   3.584  15.104 -0.0476 -1.3505  1.3438
   18DOPE  H11B 2203   0.286   3.465  15.112  1.3419  0.6472 -1.3600
   18DOPE     P 2204   0.482   3.634  14.983  0.1694 -0.1858 -0.0041
   18DOPE   O13 2205   0.592   3.591  15.073 -0.0762  0.1037 -0.2310
   18DOPE   O14 2206   0.514   3.745  14.895  0.8293 -0.3926 -0.0434
   18DOPE   O11 2207   0.441   3.513  14.893 -0.3189  0.0116  0.3948
   18DOPE   O12 2208   0.346   3.667  15.064  0.1230  0.0236  0.0129
   18DOPE    C1 2209   0.316   3.502  14.826  0.0412 -0.6832  0.1937
   18DOPE    HA 2210   0.250   3.589  14.843 -1.0050 -1.8193  2.3691
   18DOPE    HB 2211   0.254   3.420  14.869 -0.1344  0.4651  2.2412
   18DOPE    C2 2212   0.334   3.481  14.671 -0.0677  0.2995 -0.0316
   18DOPE    HS 2213   0.241   3.477  14.611 -0.1405  0.7939  0.0439
   18DOPE   O21 2214   0.411   3.358  14.647  0.3622 -0.0480  0.6447
   18DOPE   C21 2215   0.346   3.250  14.646 -0.4444  0.1590 -0.6481
   18DOPE   O22 2216   0.223   3.241  14.654  0.0003  0.3048  0.4750
   18DOPE   C22 2217   0.435   3.128  14.657 -0.2472 -0.1329 -0.8269
   18DOPE   H2R 2218   0.419   3.071  14.751  0.6729  0.6907 -0.1326
   18DOPE   H2S 2219   0.543   3.157  14.662 -0.5995  1.2455 -0.8184
   18DOPE    C3 2220   0.415   3.597  14.615  0.1572  0.6424  0.2520
   18DOPE    HX 2221   0.513   3.597  14.668  1.9417 -1.3786 -2.7027
   18DOPE    HY 2222   0.368   3.689  14.654  0.0498  1.0187 -0.7480
   18DOPE   O31 2223   0.441   3.590  14.471 -0.0007  0.2572 -0.3449
   18DOPE   C31 2224   0.352   3.662  14.402 -0.7973  0.6206 -0.6397
   18DOPE   O32 2225   0.266   3.735  14.453  0.0102  0.4809  0.1095
   18DOPE   C32 2226   0.376   3.652  14.250  0.5069  0.3003  0.1115
   18DOPE   H2X 2227   0.288   3.696  14.198  0.3427  2.1628  1.8122
   18DOPE   H2Y 2228   0.452   3.732  14.241 -0.6386  1.5281  0.8919
   18DOPE   C23 2229   0.418   3.043  14.533  0.8140 -0.1866 -0.2121
   18DOPE   H3R 2230   0.315   3.039  14.492 -0.2160 -0.1463  2.1692
   18DOPE   H3S 2231   0.449   2.939  14.557  0.1655 -0.2547  0.3937
   18DOPE   C24 2232   0.527   3.089  14.434  0.8871  0.3192  0.5532
   18DOPE   H4R 2233   0.628   3.099  14.479  1.0381  2.5183 -0.1678
   18DOPE   H4S 2234   0.503   3.188  14.389  0.8197 -0.2532 -0.7083
   18DOPE   C25 2235   0.534   2.984  14.317 -0.3536 -0.4132  0.0815
   18DOPE   H5R 2236   0.427   2.966  14.294 -0.7257 -1.1405  2.1799
   18DOPE   H5S 2237   0.570   2.883  14.346 -2.2974 -1.1446  0.1092
   18DOPE   C26 2238   0.607   3.040  14.197  0.4221  0.0775 -0.2031
   18DOPE   H6R 2239   0.702   3.077  14.241 -1.2239  2.1283  1.8297
   18DOPE   H6S 2240   0.562   3.128  14.147  4.0666  1.4171 -1.4761
   18DOPE   C27 2241   0.622   2.933  14.085 -0.3870 -0.5518 -0.1935
   18DOPE   H7R 2242   0.520   2.909  14.048 -2.0483  2.3136  2.0453
   18DOPE   H7S 2243   0.662   2.844  14.138 -1.7885 -1.0495  0.0576
   18DOPE   C28 2244   0.715   2.970  13.969 -0.2788 -0.5073 -0.1321
   18DOPE   H8R 2245   0.710   2.874  13.913  0.4386 -0.6591  0.0460
   18DOPE   H8S 2246   0.822   2.980  13.998 -0.1238  0.2133 -0.9062
   18DOPE   C29 2247   0.668   3.088  13.894 -0.1467  0.0295  0.0985
   18DOPE   H9R 2248   0.662   3.184  13.946  0.3244 -0.4840  1.1069
   18DOPE  C210 2249   0.666   3.084  13.755  0.0631  0.1369 -0.1198
   18DOPE  H10R 2250   0.665   3.180  13.702  1.2940 -0.2035 -0.7946
   18DOPE  C211 2251   0.689   2.965  13.666  0.6137  0.1030  0.3017
   18DOPE  H11R 2252   0.611   2.956  13.588  1.5952 -1.7957 -0.5503
   18DOPE  H11S 2253   0.679   2.869  13.721 -2.5888  0.1615 -0.0329
   18DOPE  C212 2254   0.817   2.974  13.581 -0.2416 -0.5022 -0.4917
   18DOPE  H12R 2255   0.832   2.869  13.548  0.5349 -0.7139  0.4780
   18DOPE  H12S 2256   0.897   3.000  13.655 -1.4955  1.9225  0.0985
   18DOPE  C213 2257   0.821   3.076  13.461  0.0979 -0.3823  0.2618
   18DOPE  H13R 2258   0.926   3.098  13.433 -0.1670  3.9589  1.9187
   18DOPE  H13S 2259   0.767   3.170  13.483  0.5878 -0.1302  0.4028
   18DOPE  C214 2260   0.758   3.005  13.331  0.0488  0.1368  0.1191
   18DOPE  H14R 2261   0.648   3.012  13.338  0.0105 -1.1686  1.2861
   18DOPE  H14S 2262   0.787   2.898  13.319 -0.1999 -0.0149  0.8343
   18DOPE  C215 2263   0.804   3.065  13.194  0.6708  0.2075  0.6031
   18DOPE  H15R 2264   0.915   3.072  13.190  0.7932 -1.6660 -1.5504
   18DOPE  H15S 2265   0.766   3.166  13.169 -1.3089 -0.5347  0.4683
   18DOPE  C216 2266   0.769   2.959  13.085  0.2980  0.0914  0.9868
   18DOPE  H16R 2267   0.663   2.932  13.106  0.2448  0.1363  0.7681
   18DOPE  H16S 2268   0.834   2.869  13.087 -2.4853 -2.1137 -0.7408
   18DOPE  C217 2269   0.783   3.009  12.939  0.1391  0.2217  0.0089
   18DOPE  H17R 2270   0.750   2.934  12.865  1.6924 -0.6594  0.1791
   18DOPE  H17S 2271   0.891   3.032  12.943  0.8903 -3.0352  0.7611
   18DOPE  C218 2272   0.710   3.139  12.906 -1.1103 -0.3832  0.0352
   18DOPE  H18R 2273   0.712   3.155  12.796  0.2978  0.4171  0.1384
   18DOPE  H18S 2274   0.764   3.224  12.954 -1.7111 -0.1078  0.2275
   18DOPE  H18T 2275   0.605   3.130  12.941 -1.2049  1.2504  0.2524
   18DOPE   C33 2276   0.413   3.510  14.201 -0.1189  0.1153 -0.2598
   18DOPE   H3X 2277   0.326   3.445  14.225  0.4304 -0.7069 -0.4924
   18DOPE   H3Y 2278   0.508   3.476  14.245 -1.2857 -2.6307  0.3379
   18DOPE   C34 2279   0.428   3.494  14.051  0.2525  0.3294 -0.1341
   18DOPE   H4X 2280   0.455   3.390  14.023 -0.6290  0.1274 -0.2647
   18DOPE   H4Y 2281   0.333   3.514  13.996  1.0354  0.8993 -1.3089
   18DOPE   C35 2282   0.520   3.600  13.989  0.0060 -0.1756 -0.2041
   18DOPE   H5X 2283   0.627   3.576  14.009 -0.3350 -0.5605  1.2185
   18DOPE   H5Y 2284   0.503   3.703  14.028  2.1507 -0.4361  1.6283
   18DOPE   C36 2285   0.500   3.612  13.835  0.1973  0.0594 -0.1360
   18DOPE   H6X 2286   0.568   3.687  13.790  0.3846  0.9285  1.5208
   18DOPE   H6Y 2287   0.400   3.658  13.822  0.0703 -0.4436 -1.0106
   18DOPE   C37 2288   0.518   3.478  13.763  0.6058  0.4130 -0.3136
   18DOPE   H7X 2289   0.610   3.424  13.795  0.1292  0.4967  1.2343
   18DOPE   H7Y 2290   0.428   3.415  13.779 -1.0924  1.4758 -4.3548
   18DOPE   C38 2291   0.535   3.493  13.609 -0.9397 -0.3239  0.8943
   18DOPE   H8X 2292   0.624   3.554  13.585 -2.0157  1.1141  0.3797
   18DOPE   H8Y 2293   0.445   3.549  13.574 -0.9452 -1.6342 -1.3166
   18DOPE   C39 2294   0.541   3.363  13.535  0.7535 -0.2007  0.5435
   18DOPE   H9X 2295   0.509   3.271  13.586 -1.1505  0.4237  0.5516
   18DOPE  C310 2296   0.561   3.356  13.404  0.5486  0.3956 -0.1129
   18DOPE  H10X 2297   0.578   3.260  13.352  2.4024 -0.2291  1.5208
   18DOPE  C311 2298   0.588   3.475  13.315  0.4896  0.9828 -0.0136
   18DOPE  H11X 2299   0.507   3.548  13.334 -1.3860 -0.7177 -1.1489
   18DOPE  H11Y 2300   0.686   3.523  13.336  2.1307 -1.4051 -1.7104
   18DOPE  C312 2301   0.609   3.444  13.166  0.8127 -0.0649  0.0042
   18DOPE  H12X 2302   0.690   3.369  13.148 -1.1386 -2.1018 -0.6713
   18DOPE  H12Y 2303   0.634   3.536  13.109  0.7643 -0.0586 -0.0062
   18DOPE  C313 2304   0.482   3.397  13.091 -0.5909  0.3472 -0.4886
   18DOPE  H13X 2305   0.465   3.293  13.128  1.1592 -0.0530 -0.6862
   18DOPE  H13Y 2306   0.400   3.461  13.128 -0.7605 -0.2789  0.2499
   18DOPE  C314 2307   0.493   3.412  12.936  0.8909 -0.1103 -0.2647
   18DOPE  H14X 2308   0.582   3.357  12.897  0.5174 -0.1685 -1.0543
   18DOPE  H14Y 2309   0.514   3.520  12.924 -1.0803  0.2374 -0.7838
   18DOPE  C315 2310   0.364   3.374  12.870  0.5635  0.5042 -0.6057
   18DOPE  H15X 2311   0.371   3.376  12.759  0.3560 -0.5960 -0.6464
   18DOPE  H15Y 2312   0.285   3.446  12.900 -0.7775 -1.0773 -0.2310
   18DOPE  C316 2313   0.303   3.233  12.904  0.0178 -0.2255  0.1007
   18DOPE  H16X 2314   0.270   3.230  13.011 -1.5210  0.1855 -0.3290
   18DOPE  H16Y 2315   0.381   3.161  12.873 -1.3156 -1.2051 -1.1399
   18DOPE  C317 2316   0.179   3.195  12.824 -0.0210 -0.4419 -0.5298
   18DOPE  H17X 2317   0.108   3.274  12.857  1.3006  1.3721 -1.8836
   18DOPE  H17Y 2318   0.204   3.216  12.718  3.4290 -0.2606  0.2263
   18DOPE  C318 2319   0.122   3.061  12.834  0.4249  0.1226  0.2037
   18DOPE  H18X 2320   0.180   2.996  12.765  1.1623  1.3354 -0.3692
   18DOPE  H18Y 2321   0.118   3.023  12.939  0.7960  1.4535  0.7253
   18DOPE  H18Z 2322   0.021   3.053  12.789  0.4945 -2.3044  0.3520
   19DOPE     N 2323   1.051   3.659  15.098  0.3122 -0.6087 -0.3936
   19DOPE   HN1 2324   1.139   3.609  15.078  0.9584 -0.1603  1.1370
   19DOPE   HN2 2325   1.065   3.724  15.178  3.5310  0.3551 -1.5774
   19DOPE   HN3 2326   0.966   3.600  15.111 -0.9798  1.2802  0.1625
   19DOPE   C12 2327   1.011   3.739  14.975  0.7005  0.5721 -0.4221
   19DOPE  H12A 2328   0.958   3.831  15.005 -0.8718 -0.9801  1.8855
   19DOPE  H12B 2329   0.942   3.669  14.923  0.1217 -0.4918  1.6529
   19DOPE   C11 2330   1.141   3.771  14.890  0.7261 -0.6102  0.2011
   19DOPE  H11A 2331   1.117   3.829  14.799  2.0878 -0.0587  0.1662
   19DOPE  H11B 2332   1.190   3.677  14.859  0.9885 -0.1911 -0.6651
   19DOPE     P 2333   1.194   3.987  15.020  0.1796 -0.3256  0.1836
   19DOPE   O13 2334   1.318   4.074  15.001  0.8997  0.1831 -0.1363
   19DOPE   O14 2335   1.126   3.991  15.152  0.2998  0.3113  0.4242
   19DOPE   O11 2336   1.079   4.030  14.918  0.6753  0.2082  0.0353
   19DOPE   O12 2337   1.231   3.841  14.970 -0.9392 -0.1852 -0.2131
   19DOPE    C1 2338   1.112   4.106  14.800  0.6249  0.8069 -0.2799
   19DOPE    HA 2339   1.196   4.063  14.741  0.0751 -0.2157 -0.3323
   19DOPE    HB 2340   1.144   4.208  14.832 -0.1766  1.0585 -0.2598
   19DOPE    C2 2341   0.989   4.136  14.717  0.2380  0.4472  0.5317
   19DOPE    HS 2342   0.917   4.186  14.785  0.2805  2.0737 -0.5572
   19DOPE   O21 2343   0.945   4.010  14.664 -0.1581 -0.6832 -0.3993
   19DOPE   C21 2344   0.824   4.009  14.614  0.2824 -1.0704  0.7292
   19DOPE   O22 2345   0.747   4.103  14.609 -0.2601  0.3539 -0.3585
   19DOPE   C22 2346   0.803   3.870  14.554 -0.6554 -0.4647 -0.1813
   19DOPE   H2R 2347   0.749   3.819  14.636  0.3654 -0.3984  0.5500
   19DOPE   H2S 2348   0.904   3.825  14.543  0.2765  1.7287 -1.2163
   19DOPE    C3 2349   1.019   4.234  14.599 -0.2129 -0.6238  0.7844
   19DOPE    HX 2350   1.085   4.316  14.633 -0.6344  0.3500 -0.6623
   19DOPE    HY 2351   0.930   4.284  14.555  1.6127  0.0179 -2.5106
   19DOPE   O31 2352   1.094   4.168  14.492  0.3120 -0.1237  0.8319
   19DOPE   C31 2353   1.124   4.257  14.386  0.0330  0.7638 -0.5453
   19DOPE   O32 2354   1.104   4.374  14.389 -0.2857 -0.3608 -0.3257
   19DOPE   C32 2355   1.196   4.176  14.277  0.7997 -0.3724  0.9163
   19DOPE   H2X 2356   1.302   4.179  14.310  0.4333 -0.5126  2.1674
   19DOPE   H2Y 2357   1.159   4.071  14.278  0.9114 -0.4113  1.4414
   19DOPE   C23 2358   0.713   3.860  14.426 -0.0487  0.2955 -0.2600
   19DOPE   H3R 2359   0.627   3.930  14.419 -1.2167 -1.1716 -1.1779
   19DOPE   H3S 2360   0.665   3.760  14.416 -0.1378  0.3267 -0.1496
   19DOPE   C24 2361   0.788   3.882  14.291  0.0151  0.6658 -0.0978
   19DOPE   H4R 2362   0.861   3.799  14.289 -0.2009  0.3983  1.5162
   19DOPE   H4S 2363   0.842   3.979  14.281 -0.7755  0.8517 -3.3309
   19DOPE   C25 2364   0.702   3.875  14.170  0.1704 -0.1085  0.3298
   19DOPE   H5R 2365   0.637   3.965  14.176  2.1040  1.3552  0.2432
   19DOPE   H5S 2366   0.656   3.774  14.177 -1.0682  0.2061 -2.0707
   19DOPE   C26 2367   0.771   3.889  14.035 -0.2938  0.3592  0.1669
   19DOPE   H6R 2368   0.797   3.995  14.013 -0.0002  0.2183 -0.1697
   19DOPE   H6S 2369   0.687   3.864  13.966 -0.2367  0.5681  0.0192
   19DOPE   C27 2370   0.888   3.798  14.004  0.8110  0.1581 -0.4279
   19DOPE   H7R 2371   0.878   3.687  14.005  1.6787  0.0675  0.6801
   19DOPE   H7S 2372   0.966   3.814  14.082 -1.2113  0.2959  1.6728
   19DOPE   C28 2373   0.950   3.836  13.863  0.1644  0.3825  0.2555
   19DOPE   H8R 2374   1.041   3.773  13.855  1.3032  1.7968  1.2989
   19DOPE   H8S 2375   0.977   3.944  13.865  0.3933  0.3166  1.3607
   19DOPE   C29 2376   0.865   3.811  13.733 -0.5779  0.5476  0.0945
   19DOPE   H9R 2377   0.774   3.874  13.734 -3.3519 -3.1071  1.1110
   19DOPE  C210 2378   0.888   3.732  13.627  0.3712  1.2194  0.2560
   19DOPE  H10R 2379   0.804   3.731  13.555 -0.2528  0.0829  0.9758
   19DOPE  C211 2380   0.990   3.627  13.605 -0.8091 -0.1338  0.2088
   19DOPE  H11R 2381   1.058   3.612  13.691 -0.2570  1.7774  0.1618
   19DOPE  H11S 2382   1.053   3.659  13.518  0.5083 -2.0604  0.4038
   19DOPE  C212 2383   0.934   3.488  13.562  0.5197  0.3361  0.4271
   19DOPE  H12R 2384   0.854   3.490  13.485  0.9635  1.2269 -0.0201
   19DOPE  H12S 2385   0.895   3.451  13.660  1.2994  1.8134  1.3373
   19DOPE  C213 2386   1.045   3.396  13.502  0.0118 -0.8285 -0.9126
   19DOPE  H13R 2387   1.032   3.288  13.525  0.0017 -0.6919 -0.2691
   19DOPE  H13S 2388   1.145   3.428  13.539  0.0954  0.0466 -1.8562
   19DOPE  C214 2389   1.047   3.400  13.349  0.0100  0.7326  0.1852
   19DOPE  H14R 2390   1.058   3.508  13.323 -0.0871  0.5050 -0.8784
   19DOPE  H14S 2391   0.951   3.370  13.301 -0.1537 -0.7186  1.3568
   19DOPE  C215 2392   1.165   3.314  13.297  0.2106 -0.3958 -0.7271
   19DOPE  H15R 2393   1.140   3.211  13.330 -0.1718 -0.0616  0.0685
   19DOPE  H15S 2394   1.251   3.357  13.352 -0.3442 -0.1291 -0.0477
   19DOPE  C216 2395   1.191   3.337  13.143 -0.3362  0.2005 -0.1014
   19DOPE  H16R 2396   1.287   3.292  13.108  0.3595  2.2113 -0.8886
   19DOPE  H16S 2397   1.208   3.443  13.114  2.1192 -0.5930 -1.9016
   19DOPE  C217 2398   1.077   3.262  13.062  0.0064 -0.6775 -0.0824
   19DOPE  H17R 2399   0.981   3.312  13.085 -1.1554 -1.3448 -2.9987
   19DOPE  H17S 2400   1.061   3.155  13.086 -2.0723 -1.1046 -2.8198
   19DOPE  C218 2401   1.106   3.288  12.917  0.0396 -0.4848  0.0117
   19DOPE  H18R 2402   1.026   3.249  12.851 -0.4162 -1.0136  0.8590
   19DOPE  H18S 2403   1.191   3.223  12.887  0.4307 -0.1888  0.4618
   19DOPE  H18T 2404   1.144   3.388  12.888  2.1665 -1.5927 -1.2480
   19DOPE   C33 2405   1.180   4.237  14.136 -0.0357  0.1679  0.0472
   19DOPE   H3X 2406   1.131   4.337  14.136  1.7763  1.1064 -0.4395
   19DOPE   H3Y 2407   1.127   4.166  14.069 -0.9320  0.3745  0.5209
   19DOPE   C34 2408   1.311   4.254  14.059  0.2009  0.0903  0.0954
   19DOPE   H4X 2409   1.363   4.346  14.093 -0.0171  0.4768 -0.6057
   19DOPE   H4Y 2410   1.389   4.175  14.068  0.8503  0.4430 -1.8349
   19DOPE   C35 2411   1.285   4.262  13.907  0.4664  0.0774  0.5436
   19DOPE   H5X 2412   1.248   4.364  13.882 -0.2351 -0.3647 -0.2850
   19DOPE   H5Y 2413   1.210   4.187  13.873 -1.5193  1.7157  1.1302
   19DOPE   C36 2414   1.415   4.235  13.828  0.9410  0.0369  0.9156
   19DOPE   H6X 2415   1.468   4.150  13.874 -3.3234 -3.5871 -0.2099
   19DOPE   H6Y 2416   1.484   4.321  13.843 -0.1114  0.8811  1.0273
   19DOPE   C37 2417   1.389   4.195  13.683  0.2956 -0.2398 -0.0419
   19DOPE   H7X 2418   1.336   4.283  13.639 -0.7360 -1.4026 -1.2197
   19DOPE   H7Y 2419   1.489   4.188  13.637 -0.5944  2.0009 -2.5908
   19DOPE   C38 2420   1.314   4.065  13.660 -0.5547 -0.0280 -0.2164
   19DOPE   H8X 2421   1.291   4.056  13.552 -0.2143  1.2926 -0.4128
   19DOPE   H8Y 2422   1.215   4.071  13.711 -0.6584  0.0892 -0.4319
   19DOPE   C39 2423   1.393   3.946  13.723  0.9910  0.1940  0.0968
   19DOPE   H9X 2424   1.395   3.943  13.833 -0.6324  1.2853  0.1915
   19DOPE  C310 2425   1.441   3.840  13.667  0.3508  0.8018  0.1756
   19DOPE  H10X 2426   1.471   3.751  13.725  0.6395 -0.1740 -1.4160
   19DOPE  C311 2427   1.444   3.815  13.515 -0.1873  0.7105  0.0005
   19DOPE  H11X 2428   1.446   3.914  13.465 -1.6118 -0.5735 -2.9020
   19DOPE  H11Y 2429   1.532   3.756  13.481 -1.3974 -2.0592  1.3146
   19DOPE  C312 2430   1.323   3.736  13.470 -0.1565 -0.0490  0.3553
   19DOPE  H12X 2431   1.233   3.771  13.525 -0.2706 -0.6297  0.5396
   19DOPE  H12Y 2432   1.342   3.628  13.489 -1.7244 -0.4368 -0.1400
   19DOPE  C313 2433   1.285   3.732  13.318 -0.2471 -0.0989 -0.1214
   19DOPE  H13X 2434   1.382   3.708  13.270  0.6815  1.4868  0.8783
   19DOPE  H13Y 2435   1.206   3.659  13.290  0.1958  0.0304 -1.8054
   19DOPE  C314 2436   1.235   3.868  13.273 -0.3169 -0.0908  0.2826
   19DOPE  H14X 2437   1.288   3.960  13.307  0.4161 -0.1121 -0.7593
   19DOPE  H14Y 2438   1.133   3.886  13.313  0.1366  0.3230  1.3236
   19DOPE  C315 2439   1.219   3.880  13.120  0.1772 -0.0300  0.4460
   19DOPE  H15X 2440   1.318   3.889  13.070 -0.0067 -2.0591 -0.3937
   19DOPE  H15Y 2441   1.165   3.975  13.104 -0.2240 -0.0441  1.5874
   19DOPE  C316 2442   1.147   3.762  13.042 -0.3204 -0.3051  0.9046
   19DOPE  H16X 2443   1.199   3.670  13.076  0.8275 -0.7177 -1.7765
   19DOPE  H16Y 2444   1.161   3.771  12.933  1.1950  0.0268  1.1139
   19DOPE  C317 2445   0.998   3.756  13.081 -0.1791  0.8134  0.2680
   19DOPE  H17X 2446   0.998   3.747  13.191  1.9167  2.1081  0.4210
   19DOPE  H17Y 2447   0.952   3.853  13.053  0.7212  0.9422 -0.8683
   19DOPE  C318 2448   0.923   3.635  13.019 -0.0497 -0.4652 -0.6264
   19DOPE  H18X 2449   0.903   3.668  12.915 -2.1425 -2.6540 -1.0034
   19DOPE  H18Y 2450   0.977   3.538  13.019  1.6059  0.4053  0.7173
   19DOPE  H18Z 2451   0.821   3.619  13.060  0.6469  0.3928  1.5911
   20DOPE     N 2452   5.200   0.456  13.756 -0.1303 -0.7837 -0.0680
   20DOPE   HN1 2453   5.294   0.422  13.727  0.3208 -0.6521  1.2047
   20DOPE   HN2 2454   5.154   0.383  13.813  2.1816 -3.1804 -1.0622
   20DOPE   HN3 2455   5.144   0.462  13.669 -0.3330 -1.4334  0.0112
   20DOPE   C12 2456   5.209   0.592  13.813  0.1682  0.4070 -0.2596
   20DOPE  H12A 2457   5.212   0.662  13.727  0.4376 -0.1073 -0.6713
   20DOPE  H12B 2458   5.309   0.605  13.859  1.1112  2.5076 -2.6831
   20DOPE   C11 2459   5.091   0.609  13.902  0.3706 -0.4003 -0.4692
   20DOPE  H11A 2460   5.096   0.712  13.943  1.1631 -0.1625 -1.1537
   20DOPE  H11B 2461   5.095   0.543  13.991  1.7468  0.2851 -0.0052
   20DOPE     P 2462   4.850   0.616  13.898 -0.1307 -0.4270  0.1155
   20DOPE   O13 2463   4.853   0.751  13.959 -0.1146  0.0280  0.8709
   20DOPE   O14 2464   4.830   0.501  13.992 -0.3401 -0.0155 -0.0962
   20DOPE   O11 2465   4.741   0.599  13.783 -0.1659 -0.0165 -0.3545
   20DOPE   O12 2466   4.980   0.593  13.820  0.2401  0.2097  0.3872
   20DOPE    C1 2467   4.725   0.712  13.696  0.5828  0.9185  0.1794
   20DOPE    HA 2468   4.752   0.809  13.744  1.7007  0.7175 -0.0040
   20DOPE    HB 2469   4.617   0.718  13.672  0.4671  0.6149  0.6107
   20DOPE    C2 2470   4.801   0.675  13.567  0.1906 -0.1159 -0.0203
   20DOPE    HS 2471   4.909   0.690  13.585  0.5018 -1.7926 -0.3556
   20DOPE   O21 2472   4.746   0.759  13.464  0.0020 -0.5928  0.3870
   20DOPE   C21 2473   4.816   0.797  13.364  0.4525 -0.3644 -0.5471
   20DOPE   O22 2474   4.936   0.806  13.357 -0.5443  0.4159  0.2398
   20DOPE   C22 2475   4.720   0.825  13.242 -0.3045  0.3529  0.0328
   20DOPE   H2R 2476   4.624   0.866  13.279 -0.1920 -0.5487  1.3645
   20DOPE   H2S 2477   4.698   0.724  13.203  1.1636 -0.0838  0.2556
   20DOPE    C3 2478   4.779   0.521  13.522 -0.0246 -0.3506 -0.3433
   20DOPE    HX 2479   4.673   0.501  13.497 -0.4146  1.4531 -0.2833
   20DOPE    HY 2480   4.805   0.451  13.605  0.8052  0.0382 -0.2547
   20DOPE   O31 2481   4.857   0.486  13.404 -0.0234  0.7540 -0.1905
   20DOPE   C31 2482   4.988   0.477  13.422 -0.1111 -1.0932 -0.7392
   20DOPE   O32 2483   5.042   0.494  13.532  0.2931  0.4093  1.0260
   20DOPE   C32 2484   5.048   0.416  13.293 -0.2557  0.2123  0.2362
   20DOPE   H2X 2485   5.158   0.428  13.298 -0.1177 -1.0173  0.3920
   20DOPE   H2Y 2486   5.033   0.306  13.297 -0.7759  0.3036  1.2681
   20DOPE   C23 2487   4.784   0.917  13.141 -0.0827 -0.5371 -0.4456
   20DOPE   H3R 2488   4.887   0.950  13.164 -1.3213  3.7638 -0.1761
   20DOPE   H3S 2489   4.709   0.999  13.135 -1.4017 -1.6980 -0.2843
   20DOPE   C24 2490   4.778   0.857  12.999 -1.0303  0.5333  0.2379
   20DOPE   H4R 2491   4.790   0.935  12.921  3.1127  0.5145  0.6315
   20DOPE   H4S 2492   4.692   0.790  12.977 -0.3851  0.6007 -2.8621
   20DOPE   C25 2493   4.901   0.766  12.975 -0.1435  0.5164 -0.3796
   20DOPE   H5R 2494   4.881   0.681  13.044 -1.5825 -0.2833 -1.7142
   20DOPE   H5S 2495   4.999   0.809  13.003 -0.4370 -0.4672  2.5481
   20DOPE   C26 2496   4.908   0.696  12.838  0.1176 -0.4901 -0.1763
   20DOPE   H6R 2497   4.838   0.611  12.852  1.9400 -1.6892  2.2941
   20DOPE   H6S 2498   4.995   0.630  12.820  0.7801  0.3960 -0.2825
   20DOPE   C27 2499   4.868   0.777  12.711 -0.5781 -0.8642 -0.0610
   20DOPE   H7R 2500   4.949   0.850  12.691 -1.3747 -0.2870 -1.3254
   20DOPE   H7S 2501   4.775   0.836  12.726  0.4693  0.3882  1.8485
   20DOPE   C28 2502   4.854   0.687  12.589 -0.6289 -0.2980  0.2073
   20DOPE   H8R 2503   4.780   0.604  12.600 -1.5165  0.6982  2.1411
   20DOPE   H8S 2504   4.952   0.637  12.574 -0.2802  0.3678  0.2696
   20DOPE   C29 2505   4.829   0.761  12.463  0.4357 -0.2611  0.0527
   20DOPE   H9R 2506   4.745   0.831  12.473 -0.9846 -1.7407 -1.0166
   20DOPE  C210 2507   4.903   0.770  12.349 -0.3215 -0.7575 -0.1076
   20DOPE  H10R 2508   4.869   0.853  12.286  0.1198  2.1042  3.1040
   20DOPE  C211 2509   5.030   0.703  12.309  0.3938 -0.6927 -0.2109
   20DOPE  H11R 2510   5.039   0.607  12.366  0.2667 -1.4664 -1.4614
   20DOPE  H11S 2511   5.117   0.767  12.335  0.1920 -1.2349  2.0365
   20DOPE  C212 2512   5.033   0.660  12.159  0.9555 -0.1546 -0.2405
   20DOPE  H12R 2513   5.138   0.651  12.123 -0.3517 -1.3284 -4.2863
   20DOPE  H12S 2514   4.991   0.744  12.099  2.7732 -0.2612 -1.7570
   20DOPE  C213 2515   4.956   0.531  12.131 -0.3174 -0.2538 -0.1512
   20DOPE  H13R 2516   4.872   0.523  12.202  1.5728  0.0473  2.2528
   20DOPE  H13S 2517   5.021   0.443  12.150 -3.2621 -2.2753  1.1300
   20DOPE  C214 2518   4.917   0.515  11.978 -0.2428  0.6745  0.7890
   20DOPE  H14R 2519   5.016   0.487  11.936 -0.6973 -1.2768  0.9417
   20DOPE  H14S 2520   4.890   0.610  11.928  1.1662  1.2539  1.0645
   20DOPE  C215 2521   4.812   0.406  11.952  0.0176 -0.5177  0.5853
   20DOPE  H15R 2522   4.861   0.313  11.987 -0.1217 -0.7234  0.2345
   20DOPE  H15S 2523   4.798   0.402  11.842  2.0661 -0.6455  0.3004
   20DOPE  C216 2524   4.674   0.430  12.019 -0.6382 -0.1861  0.0499
   20DOPE  H16R 2525   4.635   0.527  11.981  0.6445  0.5164  0.4806
   20DOPE  H16S 2526   4.686   0.438  12.129  2.4295  0.3164 -0.2481
   20DOPE  C217 2527   4.582   0.314  11.971 -0.0183 -0.7236 -0.3709
   20DOPE  H17R 2528   4.645   0.223  11.965  0.2337 -0.5155 -0.8907
   20DOPE  H17S 2529   4.538   0.328  11.870  2.3559  0.7208 -1.3039
   20DOPE  C218 2530   4.469   0.290  12.063  0.3893 -0.4320 -0.1765
   20DOPE  H18R 2531   4.497   0.244  12.161 -1.5989  1.7991  1.5753
   20DOPE  H18S 2532   4.387   0.235  12.012  0.1239  0.7070 -1.0117
   20DOPE  H18T 2533   4.423   0.389  12.084  0.8883  0.1488 -1.7505
   20DOPE   C33 2534   5.003   0.489  13.168 -0.2641  0.2731 -0.6475
   20DOPE   H3X 2535   5.032   0.596  13.165 -2.6755  1.2686  3.7762
   20DOPE   H3Y 2536   4.893   0.488  13.152 -0.4623 -2.1560  0.4795
   20DOPE   C34 2537   5.068   0.430  13.039  0.5147  1.0427 -0.3217
   20DOPE   H4X 2538   5.077   0.506  12.959  1.8446 -0.9646 -2.1906
   20DOPE   H4Y 2539   5.173   0.399  13.058 -0.1625 -1.5187 -0.3781
   20DOPE   C35 2540   4.983   0.312  12.974 -0.4262 -0.1669  0.3664
   20DOPE   H5X 2541   4.893   0.357  12.926  0.6989  0.9661 -0.7540
   20DOPE   H5Y 2542   4.949   0.237  13.049 -0.9375 -0.6306 -0.3103
   20DOPE   C36 2543   5.052   0.243  12.850 -0.3117  0.4463  0.5925
   20DOPE   H6X 2544   4.971   0.178  12.812  2.1737 -1.5235 -1.6796
   20DOPE   H6Y 2545   5.146   0.193  12.880 -0.9477  0.2968  2.4736
   20DOPE   C37 2546   5.075   0.343  12.731  0.3298  0.8174  0.0817
   20DOPE   H7X 2547   4.978   0.364  12.681 -0.3000 -1.9235 -0.0025
   20DOPE   H7Y 2548   5.129   0.427  12.781  4.0172 -1.0351 -0.4528
   20DOPE   C38 2549   5.186   0.293  12.634 -0.4595  0.0360  1.0055
   20DOPE   H8X 2550   5.160   0.191  12.599 -2.9358  0.7338  0.6682
   20DOPE   H8Y 2551   5.287   0.288  12.680  0.0598 -0.2290 -0.1364
   20DOPE   C39 2552   5.213   0.394  12.527  0.1323  0.3668  0.2039
   20DOPE   H9X 2553   5.160   0.490  12.528 -0.6354 -0.0525  1.1615
   20DOPE  C310 2554   5.294   0.365  12.420  0.2574 -0.1512  0.4971
   20DOPE  H10X 2555   5.300   0.444  12.343 -0.3210 -1.5121 -1.0013
   20DOPE  C311 2556   5.374   0.244  12.387 -0.2447  0.0122  0.6209
   20DOPE  H11X 2557   5.381   0.162  12.462  1.8485 -1.0069 -0.5925
   20DOPE  H11Y 2558   5.336   0.210  12.288  2.2478 -1.1763 -0.0038
   20DOPE  C312 2559   5.524   0.287  12.372 -0.1948 -0.5273  0.3320
   20DOPE  H12X 2560   5.552   0.333  12.469  2.3140  0.5451 -0.8241
   20DOPE  H12Y 2561   5.523   0.354  12.283 -3.3320 -0.9027 -0.0483
   20DOPE  C313 2562   5.612   0.163  12.349  0.3920 -0.5801 -0.1969
   20DOPE  H13X 2563   5.706   0.197  12.397  0.2339  2.0111 -1.5684
   20DOPE  H13Y 2564   5.577   0.063  12.383 -2.3172 -0.0816 -1.2455
   20DOPE  C314 2565   5.650   0.135  12.202 -0.2520 -0.4850  0.0206
   20DOPE  H14X 2566   5.677   0.228  12.147 -1.0050  0.5132  1.3013
   20DOPE  H14Y 2567   5.559   0.096  12.152  0.9067 -3.1559 -0.1786
   20DOPE  C315 2568   5.760   0.028  12.200  0.0537  0.0207  0.4988
   20DOPE  H15X 2569   5.718  -0.067  12.240 -2.1180  0.8778  0.4323
   20DOPE  H15Y 2570   5.852   0.061  12.253  0.7734 -0.3300 -0.5116
   20DOPE  C316 2571   5.807   0.002  12.061  0.0283 -0.1348  0.3508
   20DOPE  H16X 2572   5.875   0.085  12.032 -0.2323  0.0623  0.3067
   20DOPE  H16Y 2573   5.726   0.005  11.985 -0.2117  1.3946  0.6482
   20DOPE  C317 2574   5.903  -0.126  12.056 -0.4121 -0.6123  0.1629
   20DOPE  H17X 2575   5.978  -0.134  12.138  0.7171 -0.2750 -0.7963
   20DOPE  H17Y 2576   5.833  -0.211  12.058  1.4195 -2.2600  3.3172
   20DOPE  C318 2577   5.983  -0.124  11.923 -0.4021 -0.5356 -0.6708
   20DOPE  H18X 2578   5.914  -0.089  11.843  2.1644  3.0099 -1.6298
   20DOPE  H18Y 2579   6.063  -0.047  11.925  0.8938 -1.8138  2.5560
   20DOPE  H18Z 2580   6.032  -0.223  11.914 -0.5922 -0.5545 -1.6263
   21DOPE     N 2581   2.805   0.957  13.874 -0.1268 -0.3549  0.1531
   21DOPE   HN1 2582   2.702   0.953  13.864  0.0093 -1.3802 -1.2158
   21DOPE   HN2 2583   2.827   0.870  13.927 -1.7696  0.0154  1.5083
   21DOPE   HN3 2584   2.822   1.035  13.940 -1.5266  1.3138 -1.3732
   21DOPE   C12 2585   2.883   0.973  13.754  0.2561  0.1784 -0.1454
   21DOPE  H12A 2586   2.839   1.056  13.695 -2.0488 -0.3203  0.7511
   21DOPE  H12B 2587   2.882   0.877  13.697  2.0235 -1.0044  1.6850
   21DOPE   C11 2588   3.025   1.011  13.792  0.0736  1.1051 -0.1087
   21DOPE  H11A 2589   3.023   1.092  13.868  0.5409  0.5425  0.5138
   21DOPE  H11B 2590   3.080   1.047  13.703 -1.0602  1.7189 -0.5857
   21DOPE     P 2591   3.246   0.909  13.877 -0.4440  0.0806 -0.5549
   21DOPE   O13 2592   3.318   0.785  13.846 -0.0440 -0.4727  0.6161
   21DOPE   O14 2593   3.254   0.963  14.017 -0.3314 -0.1879 -0.4794
   21DOPE   O11 2594   3.288   1.028  13.780 -0.5289 -0.0904 -0.0961
   21DOPE   O12 2595   3.091   0.898  13.842 -0.5883  0.3891 -0.4174
   21DOPE    C1 2596   3.405   1.107  13.815 -0.0540 -0.3074  1.2417
   21DOPE    HA 2597   3.443   1.082  13.917 -2.8108  0.6475  2.6026
   21DOPE    HB 2598   3.382   1.216  13.823 -1.1363 -0.5267  1.2577
   21DOPE    C2 2599   3.523   1.095  13.713 -0.1918  0.2632 -0.1014
   21DOPE    HS 2600   3.620   1.119  13.763  1.1619 -0.8736 -2.0402
   21DOPE   O21 2601   3.505   1.173  13.594 -0.6224  0.5318  0.2803
   21DOPE   C21 2602   3.535   1.299  13.609 -0.8436 -0.0432  0.6368
   21DOPE   O22 2603   3.563   1.352  13.719 -0.0473  0.3039  1.1964
   21DOPE   C22 2604   3.532   1.382  13.484  0.2135  0.6337  0.5505
   21DOPE   H2R 2605   3.551   1.328  13.389  1.1515  1.7537  0.0706
   21DOPE   H2S 2606   3.626   1.440  13.499 -0.7546  2.1238  1.1424
   21DOPE    C3 2607   3.546   0.951  13.680 -0.3006  0.1723  0.0909
   21DOPE    HX 2608   3.456   0.907  13.633  1.4813 -3.8438  0.0130
   21DOPE    HY 2609   3.545   0.885  13.769 -0.2481 -2.1660 -1.5542
   21DOPE   O31 2610   3.662   0.938  13.593 -0.3967 -0.2757 -0.0373
   21DOPE   C31 2611   3.686   0.808  13.557  0.8387  0.0703 -0.8707
   21DOPE   O32 2612   3.611   0.724  13.608  0.1666  0.5976  0.7396
   21DOPE   C32 2613   3.785   0.800  13.449 -0.0143 -0.0027 -0.8628
   21DOPE   H2X 2614   3.757   0.879  13.377  1.8136  0.4852 -1.1001
   21DOPE   H2Y 2615   3.888   0.828  13.482  0.6973 -0.4518 -2.6153
   21DOPE   C23 2616   3.407   1.478  13.478 -0.6363  1.0716  0.4597
   21DOPE   H3R 2617   3.396   1.558  13.403 -1.6703 -0.3473 -0.9438
   21DOPE   H3S 2618   3.393   1.527  13.577 -1.5626 -1.2129  1.5329
   21DOPE   C24 2619   3.279   1.395  13.451  0.4128 -0.2314 -0.0739
   21DOPE   H4R 2620   3.198   1.466  13.478 -0.2062 -0.7643 -0.4864
   21DOPE   H4S 2621   3.271   1.302  13.511  2.1813 -0.0921  0.4305
   21DOPE   C25 2622   3.251   1.346  13.307 -0.5365  0.5154 -0.1890
   21DOPE   H5R 2623   3.151   1.298  13.308 -1.1750  1.8352  0.0125
   21DOPE   H5S 2624   3.319   1.265  13.273  0.8867  1.2541  0.8155
   21DOPE   C26 2625   3.236   1.459  13.217 -0.3778 -0.7289  0.0249
   21DOPE   H6R 2626   3.335   1.510  13.220 -0.5716 -0.3545  0.1498
   21DOPE   H6S 2627   3.167   1.538  13.254 -0.4500 -1.3273  1.2267
   21DOPE   C27 2628   3.204   1.410  13.069 -0.2015 -0.4149 -0.1345
   21DOPE   H7R 2629   3.128   1.330  13.070 -0.5611 -0.0943  1.3834
   21DOPE   H7S 2630   3.293   1.357  13.029  0.0484 -1.7539  2.0489
   21DOPE   C28 2631   3.189   1.534  12.978  0.2114 -0.0546  0.2452
   21DOPE   H8R 2632   3.280   1.597  12.979  1.5140 -1.8721  1.3446
   21DOPE   H8S 2633   3.102   1.589  13.021 -1.4260 -0.1512 -2.6515
   21DOPE   C29 2634   3.149   1.473  12.844  0.6745  0.0012 -0.3602
   21DOPE   H9R 2635   3.048   1.430  12.850 -0.3236  2.2030 -0.5946
   21DOPE  C210 2636   3.215   1.475  12.730 -0.1557 -0.5187 -0.0659
   21DOPE  H10R 2637   3.168   1.430  12.642  0.8628  1.8690 -1.9290
   21DOPE  C211 2638   3.355   1.519  12.712  0.1524  0.5431 -0.0252
   21DOPE  H11R 2639   3.405   1.553  12.806 -0.0981  0.0679  0.2848
   21DOPE  H11S 2640   3.364   1.605  12.642 -2.2084  0.7615 -0.1148
   21DOPE  C212 2641   3.455   1.408  12.655  0.7040 -0.0808  0.4606
   21DOPE  H12R 2642   3.421   1.382  12.553 -1.9027  1.0393  0.9509
   21DOPE  H12S 2643   3.441   1.313  12.711  0.1450 -0.0176  0.4349
   21DOPE  C213 2644   3.603   1.458  12.651  0.1967 -0.3138  0.2009
   21DOPE  H13R 2645   3.657   1.366  12.618 -2.5306 -0.8949 -3.1458
   21DOPE  H13S 2646   3.633   1.499  12.750 -0.5609 -0.6841  0.5942
   21DOPE  C214 2647   3.614   1.581  12.555 -0.0587 -0.2466 -0.9986
   21DOPE  H14R 2648   3.541   1.657  12.589  1.5748 -0.8611  5.0156
   21DOPE  H14S 2649   3.593   1.555  12.449  1.0878  0.8317 -1.5099
   21DOPE  C215 2650   3.754   1.650  12.562  0.2515  0.5429  0.2125
   21DOPE  H15R 2651   3.825   1.565  12.563 -0.2551  0.1083  1.4724
   21DOPE  H15S 2652   3.765   1.701  12.660 -0.8929  3.3042 -0.9697
   21DOPE  C216 2653   3.786   1.750  12.449  0.6656 -0.4439 -0.2490
   21DOPE  H16R 2654   3.783   1.699  12.350 -0.2788  0.1677 -0.5508
   21DOPE  H16S 2655   3.887   1.795  12.459 -0.2088  1.4471  0.5823
   21DOPE  C217 2656   3.695   1.871  12.432  0.6085 -0.2456 -0.2774
   21DOPE  H17R 2657   3.725   1.939  12.515 -1.5035  0.6999 -0.2063
   21DOPE  H17S 2658   3.591   1.837  12.448  0.9616 -0.8428  0.8554
   21DOPE  C218 2659   3.712   1.938  12.297 -0.6027  0.3533  0.3369
   21DOPE  H18R 2660   3.677   1.869  12.217  3.3616 -1.1839 -0.2682
   21DOPE  H18S 2661   3.821   1.953  12.280 -0.3918  0.3831  1.5939
   21DOPE  H18T 2662   3.642   2.024  12.290 -1.0934  0.0436  1.3092
   21DOPE   C33 2663   3.771   0.660  13.378  0.3884  0.3343 -0.0079
   21DOPE   H3X 2664   3.662   0.657  13.358  0.2358  2.8333  0.1707
   21DOPE   H3Y 2665   3.799   0.578  13.448 -0.7561  1.9001  2.4414
   21DOPE   C34 2666   3.845   0.655  13.247 -0.2967 -0.7449 -0.0758
   21DOPE   H4X 2667   3.951   0.688  13.260  0.1754 -1.6938 -1.3353
   21DOPE   H4Y 2668   3.847   0.548  13.220 -1.9050 -0.5195 -1.2503
   21DOPE   C35 2669   3.782   0.740  13.134  0.3742 -0.2242  0.1023
   21DOPE   H5X 2670   3.782   0.850  13.151  1.5635 -0.1613 -0.1888
   21DOPE   H5Y 2671   3.677   0.713  13.115  0.9228 -2.8562  0.4440
   21DOPE   C36 2672   3.841   0.729  12.996  0.2321 -0.1189  0.6853
   21DOPE   H6X 2673   3.795   0.789  12.915 -1.3955 -1.8168  0.2786
   21DOPE   H6Y 2674   3.824   0.625  12.961 -3.3742  1.0313 -1.5084
   21DOPE   C37 2675   4.005   0.739  12.990  0.5002  0.5091 -0.0266
   21DOPE   H7X 2676   4.042   0.834  13.032 -3.0621  2.9817 -1.9471
   21DOPE   H7Y 2677   4.054   0.647  13.029  1.5746  0.5770 -1.1716
   21DOPE   C38 2678   4.055   0.733  12.836 -0.5800  0.1351  0.2466
   21DOPE   H8X 2679   4.166   0.739  12.834 -0.5704 -0.1504 -0.1102
   21DOPE   H8Y 2680   4.013   0.824  12.788 -2.9536 -0.1482  1.6203
   21DOPE   C39 2681   4.001   0.604  12.782  0.6113 -0.1084  0.1109
   21DOPE   H9X 2682   4.028   0.513  12.838  0.5973  0.9150  1.8734
   21DOPE  C310 2683   3.916   0.586  12.681  0.2101 -0.6223 -0.7453
   21DOPE  H10X 2684   3.880   0.484  12.659  1.4822 -1.6536  1.6090
   21DOPE  C311 2685   3.844   0.695  12.602  0.6313  0.0880 -0.2614
   21DOPE  H11X 2686   3.745   0.657  12.568  0.5941  1.0318 -1.2746
   21DOPE  H11Y 2687   3.820   0.779  12.670  1.8384 -0.1684  0.5162
   21DOPE  C312 2688   3.920   0.760  12.486 -0.5090  0.1253  0.8145
   21DOPE  H12X 2689   4.016   0.798  12.525 -0.5935  0.0357  1.1090
   21DOPE  H12Y 2690   3.864   0.851  12.457  0.5622  0.8237  0.9068
   21DOPE  C313 2691   3.941   0.664  12.363 -0.5682  0.1831 -0.5905
   21DOPE  H13X 2692   4.005   0.578  12.389  0.0580  1.0072  0.6828
   21DOPE  H13Y 2693   3.842   0.615  12.352  0.2593 -2.0119  1.0143
   21DOPE  C314 2694   3.986   0.734  12.232  0.1113 -0.4306 -0.2585
   21DOPE  H14X 2695   4.002   0.656  12.154  0.4721  0.9728 -1.6435
   21DOPE  H14Y 2696   4.082   0.790  12.239 -0.8420  1.1843  0.2958
   21DOPE  C315 2697   3.867   0.816  12.169  0.1665  0.1203  0.8143
   21DOPE  H15X 2698   3.861   0.898  12.243 -0.9740 -0.0650  0.9473
   21DOPE  H15Y 2699   3.774   0.756  12.177 -0.2472  0.7467  0.7349
   21DOPE  C316 2700   3.895   0.867  12.023 -0.5629 -0.2051 -0.6671
   21DOPE  H16X 2701   3.934   0.792  11.952 -0.8260 -1.3536  0.3650
   21DOPE  H16Y 2702   3.984   0.935  12.022  1.4926 -2.7522 -1.9089
   21DOPE  C317 2703   3.771   0.932  11.956 -0.1952 -0.2957 -0.1783
   21DOPE  H17X 2704   3.807   0.963  11.856  3.1032  1.8543  1.4816
   21DOPE  H17Y 2705   3.698   0.850  11.940 -0.4986  0.3355 -2.2464
   21DOPE  C318 2706   3.698   1.043  12.033  0.3772  0.1608  0.6475
   21DOPE  H18X 2707   3.616   1.083  11.970 -0.4403 -0.3031  1.3977
   21DOPE  H18Y 2708   3.658   1.018  12.133 -2.0156  0.6512 -0.1130
   21DOPE  H18Z 2709   3.779   1.117  12.047  0.2716  1.5360 -4.0917
   22DOPE     N 2710   1.299   5.694  14.509 -0.5616  0.3869  0.3577
   22DOPE   HN1 2711   1.344   5.606  14.477 -1.2560  0.2804 -0.3360
   22DOPE   HN2 2712   1.201   5.665  14.528 -0.8179  0.3123 -0.9729
   22DOPE   HN3 2713   1.295   5.772  14.440 -2.4110  0.3534  0.3856
   22DOPE   C12 2714   1.357   5.737  14.644 -0.1479  0.0380 -0.3825
   22DOPE  H12A 2715   1.320   5.837  14.676  1.2536  0.4052  0.1619
   22DOPE  H12B 2716   1.467   5.743  14.629 -0.0851 -1.4346 -0.6900
   22DOPE   C11 2717   1.322   5.627  14.749 -0.2281 -0.2084 -0.4294
   22DOPE  H11A 2718   1.381   5.644  14.841 -0.2445 -0.6272 -0.3422
   22DOPE  H11B 2719   1.367   5.532  14.714  2.4170  0.4594  0.9020
   22DOPE     P 2720   1.100   5.495  14.820 -0.2908 -0.0987  0.1323
   22DOPE   O13 2721   0.959   5.506  14.803  0.0853  0.0295 -0.0314
   22DOPE   O14 2722   1.148   5.467  14.956  0.5947 -0.2299 -0.0354
   22DOPE   O11 2723   1.151   5.383  14.729 -0.2571 -0.0019  0.3973
   22DOPE   O12 2724   1.177   5.628  14.760 -0.5310 -0.2128 -0.2236
   22DOPE    C1 2725   1.092   5.376  14.596 -0.8155  0.1835  0.0947
   22DOPE    HA 2726   1.152   5.431  14.521  0.4821 -2.8741 -1.2541
   22DOPE    HB 2727   0.986   5.409  14.593 -0.5595  1.0667  0.3624
   22DOPE    C2 2728   1.090   5.233  14.545  0.0753 -0.1932  0.0839
   22DOPE    HS 2729   1.190   5.185  14.531 -0.1990 -0.8294  0.2488
   22DOPE   O21 2730   1.023   5.226  14.416  0.6130 -0.6606  0.6750
   22DOPE   C21 2731   1.099   5.239  14.308  0.5991  0.1810 -0.0714
   22DOPE   O22 2732   1.213   5.282  14.308  0.3519  0.1147  0.2698
   22DOPE   C22 2733   1.016   5.222  14.182  0.1297  0.8231 -0.7241
   22DOPE   H2R 2734   0.964   5.316  14.153 -2.0409  0.8508  2.6621
   22DOPE   H2S 2735   0.936   5.148  14.201  0.1902  1.1202  0.9025
   22DOPE    C3 2736   1.012   5.132  14.634  0.1214 -0.2014 -0.1830
   22DOPE    HX 2737   0.910   5.176  14.643  0.7105  1.3879 -0.8211
   22DOPE    HY 2738   1.056   5.137  14.736  1.4701 -1.0592 -0.6928
   22DOPE   O31 2739   1.029   5.000  14.586  0.2700 -0.2106 -0.2863
   22DOPE   C31 2740   0.922   4.945  14.514  0.1685  0.0719 -0.0189
   22DOPE   O32 2741   0.821   5.008  14.493  0.2706  0.0876 -0.5088
   22DOPE   C32 2742   0.957   4.802  14.464 -0.2882 -0.2999 -0.1978
   22DOPE   H2X 2743   1.066   4.786  14.451  0.1672  2.3335 -0.1006
   22DOPE   H2Y 2744   0.934   4.738  14.551  0.3621  1.7693  1.5650
   22DOPE   C23 2745   1.091   5.169  14.060 -0.3269 -0.3416  0.1985
   22DOPE   H3R 2746   1.017   5.115  13.997 -1.8511  0.1072  1.5195
   22DOPE   H3S 2747   1.176   5.101  14.081  0.3383 -0.1428 -1.6789
   22DOPE   C24 2748   1.150   5.283  13.972  0.2773  0.5227  0.3000
   22DOPE   H4R 2749   1.213   5.352  14.031 -0.8372  1.3438  0.5665
   22DOPE   H4S 2750   1.063   5.342  13.934 -2.5601 -1.2167  3.4736
   22DOPE   C25 2751   1.218   5.216  13.846 -0.0910  0.0757  0.1963
   22DOPE   H5R 2752   1.284   5.133  13.878 -0.7095  0.5689  3.0237
   22DOPE   H5S 2753   1.282   5.291  13.796  1.9996 -1.0437  1.0748
   22DOPE   C26 2754   1.113   5.158  13.741  0.0494 -0.4651 -0.0385
   22DOPE   H6R 2755   1.050   5.239  13.698 -0.8833 -1.9090 -1.5016
   22DOPE   H6S 2756   1.047   5.083  13.791 -0.2960  0.8263  1.5207
   22DOPE   C27 2757   1.196   5.094  13.627  0.4166  0.1627  0.1143
   22DOPE   H7R 2758   1.257   5.007  13.659 -0.3019 -0.8138 -1.0674
   22DOPE   H7S 2759   1.267   5.170  13.588 -0.8909  2.0577  1.3030
   22DOPE   C28 2760   1.115   5.052  13.505 -0.0459 -0.4209  0.8376
   22DOPE   H8R 2761   1.037   4.982  13.543 -0.8688 -0.3362 -0.6195
   22DOPE   H8S 2762   1.181   4.989  13.441 -0.9279 -1.1675  0.6419
   22DOPE   C29 2763   1.038   5.159  13.425 -0.3635 -0.0881 -0.9315
   22DOPE   H9R 2764   0.962   5.211  13.485 -0.0334  0.4218 -0.9581
   22DOPE  C210 2765   1.074   5.214  13.308 -0.3578  0.3737  0.8099
   22DOPE  H10R 2766   1.026   5.305  13.270 -0.3265  0.0150 -0.1100
   22DOPE  C211 2767   1.194   5.169  13.229 -0.3699  0.4456 -0.1607
   22DOPE  H11R 2768   1.272   5.137  13.301 -0.7586 -0.3035 -0.0589
   22DOPE  H11S 2769   1.229   5.251  13.163 -1.6841  0.5551 -0.7624
   22DOPE  C212 2770   1.149   5.057  13.131  0.0527  0.2665 -0.8556
   22DOPE  H12R 2771   1.096   4.977  13.186  1.2932 -0.4103 -0.6197
   22DOPE  H12S 2772   1.237   5.011  13.080 -0.9398 -0.8113 -1.6426
   22DOPE  C213 2773   1.060   5.104  13.017  0.4706 -0.5803  0.0767
   22DOPE  H13R 2774   1.126   5.154  12.942  1.4148 -0.8864  0.6830
   22DOPE  H13S 2775   0.992   5.175  13.070  0.8439 -0.0874 -0.0864
   22DOPE  C214 2776   0.993   4.992  12.942  0.0652 -0.0293  0.0579
   22DOPE  H14R 2777   0.909   4.946  12.998  1.3923  1.4310  3.5340
   22DOPE  H14S 2778   1.073   4.916  12.934  0.6272  0.4375  1.0072
   22DOPE  C215 2779   0.939   5.039  12.804 -0.2430  0.0468 -0.6329
   22DOPE  H15R 2780   1.002   5.127  12.778  1.0328 -0.4017  0.7804
   22DOPE  H15S 2781   0.830   5.057  12.797 -0.2131  0.5414  0.0162
   22DOPE  C216 2782   0.978   4.932  12.692  0.0981  0.3924  0.2087
   22DOPE  H16R 2783   0.935   4.831  12.709 -1.6430  0.9430 -0.6600
   22DOPE  H16S 2784   1.089   4.923  12.687 -0.0611 -2.6236  0.1767
   22DOPE  C217 2785   0.929   4.972  12.551  0.2613  0.3720 -0.2336
   22DOPE  H17R 2786   0.823   5.002  12.552  0.3522  0.6980  1.0999
   22DOPE  H17S 2787   0.933   4.887  12.479 -0.5892  0.5052 -0.4444
   22DOPE  C218 2788   1.012   5.083  12.497 -0.1273  0.1678  0.7128
   22DOPE  H18R 2789   0.997   5.176  12.555  2.5578  0.0972  1.6410
   22DOPE  H18S 2790   0.977   5.086  12.392 -0.3494 -0.5562  0.7542
   22DOPE  H18T 2791   1.115   5.044  12.509 -0.7910 -1.1753  2.7452
   22DOPE   C33 2792   0.851   4.754  14.356  0.0028  0.2551 -1.5475
   22DOPE   H3X 2793   0.748   4.762  14.398  0.9781 -1.5941  1.5675
   22DOPE   H3Y 2794   0.877   4.646  14.354  1.0332  0.4189  0.2750
   22DOPE   C34 2795   0.863   4.829  14.221  0.2250 -0.2824 -0.5433
   22DOPE   H4X 2796   0.808   4.925  14.236  1.9300  0.3457  2.4507
   22DOPE   H4Y 2797   0.971   4.845  14.201 -0.1150  3.0032 -0.2937
   22DOPE   C35 2798   0.794   4.759  14.105 -0.1014  0.2155 -0.3876
   22DOPE   H5X 2799   0.687   4.746  14.134  0.5512 -1.6417  1.4182
   22DOPE   H5Y 2800   0.826   4.654  14.093 -0.7881 -0.0008 -0.3828
   22DOPE   C36 2801   0.823   4.838  13.977 -0.1494 -0.2122 -0.6725
   22DOPE   H6X 2802   0.927   4.830  13.939  0.1989  1.2550 -0.0695
   22DOPE   H6Y 2803   0.821   4.948  13.990 -0.5624 -0.1708 -1.0592
   22DOPE   C37 2804   0.727   4.801  13.867  0.6156  0.0249  0.4843
   22DOPE   H7X 2805   0.690   4.698  13.883 -1.0108 -0.1388 -3.3461
   22DOPE   H7Y 2806   0.641   4.871  13.873  1.9988  1.8242  0.4485
   22DOPE   C38 2807   0.790   4.834  13.727 -0.5665  0.4009  0.1575
   22DOPE   H8X 2808   0.857   4.923  13.729  0.1289 -0.1138  1.3965
   22DOPE   H8Y 2809   0.695   4.846  13.672 -0.9140 -1.4952  0.2960
   22DOPE   C39 2810   0.872   4.711  13.688 -0.2046 -0.6901 -0.2279
   22DOPE   H9X 2811   0.891   4.630  13.760 -1.0218 -0.3607  0.3741
   22DOPE  C310 2812   0.894   4.685  13.558 -0.0272  0.3135  0.0336
   22DOPE  H10X 2813   0.953   4.593  13.542 -1.0295 -0.0845 -1.6027
   22DOPE  C311 2814   0.866   4.760  13.434  1.1997 -1.0786  0.3104
   22DOPE  H11X 2815   0.781   4.832  13.436  1.6899 -0.5033  0.5152
   22DOPE  H11Y 2816   0.957   4.814  13.401 -0.1374  1.4904  0.6352
   22DOPE  C312 2817   0.818   4.672  13.314 -0.0949 -0.6830 -0.1841
   22DOPE  H12X 2818   0.734   4.617  13.362 -0.3946 -0.3084 -0.2748
   22DOPE  H12Y 2819   0.906   4.609  13.286  0.4235 -0.6757  1.3505
   22DOPE  C313 2820   0.782   4.746  13.186  0.1164 -0.1146  0.2074
   22DOPE  H13X 2821   0.736   4.843  13.212  1.2454  0.5249 -0.1221
   22DOPE  H13Y 2822   0.878   4.758  13.130 -0.6102  0.4164 -0.9635
   22DOPE  C314 2823   0.692   4.674  13.089 -0.1777  0.2690 -0.7472
   22DOPE  H14X 2824   0.588   4.713  13.099 -0.4740 -0.7050  0.2025
   22DOPE  H14Y 2825   0.686   4.567  13.120  1.0824  0.4381  0.1564
   22DOPE  C315 2826   0.735   4.687  12.946 -0.7018  0.4078 -0.0241
   22DOPE  H15X 2827   0.841   4.654  12.949 -0.9975 -0.5399  2.0787
   22DOPE  H15Y 2828   0.731   4.795  12.918 -0.2259  0.6230  0.7052
   22DOPE  C316 2829   0.649   4.603  12.853  0.2149  0.7779 -0.1604
   22DOPE  H16X 2830   0.542   4.615  12.882  0.3629 -0.2999  0.9642
   22DOPE  H16Y 2831   0.662   4.493  12.868  0.5624  0.9477  0.8555
   22DOPE  C317 2832   0.656   4.630  12.699  0.1621 -0.4760 -1.0483
   22DOPE  H17X 2833   0.565   4.595  12.645 -0.2776 -0.5084 -0.2953
   22DOPE  H17Y 2834   0.644   4.741  12.692 -3.5605 -0.5553  1.3014
   22DOPE  C318 2835   0.789   4.574  12.647 -0.0080  0.3556 -0.2038
   22DOPE  H18X 2836   0.787   4.464  12.661 -1.5891  0.2328 -1.1599
   22DOPE  H18Y 2837   0.799   4.593  12.538  0.4389 -0.6831 -0.3567
   22DOPE  H18Z 2838   0.874   4.627  12.695  0.6555 -0.5712 -0.3302
   23DOPE     N 2839   3.880   1.463  14.414 -0.3369  0.0148 -0.2097
   23DOPE   HN1 2840   3.935   1.432  14.332 -1.9066  0.5458 -1.5363
   23DOPE   HN2 2841   3.796   1.402  14.412  0.3751 -1.1358  2.0429
   23DOPE   HN3 2842   3.838   1.556  14.392 -0.3030 -0.1403 -0.9475
   23DOPE   C12 2843   3.939   1.462  14.552 -0.2116  0.2754  0.4410
   23DOPE  H12A 2844   3.859   1.422  14.618 -1.7060  1.8444 -0.3478
   23DOPE  H12B 2845   3.961   1.569  14.573 -0.6487  0.3774  0.3985
   23DOPE   C11 2846   4.068   1.384  14.552 -0.1152 -0.3027  1.1769
   23DOPE  H11A 2847   4.113   1.409  14.650 -1.0257  2.2691  1.0015
   23DOPE  H11B 2848   4.143   1.431  14.484 -0.7274 -0.3361  0.4576
   23DOPE     P 2849   4.085   1.161  14.407  0.1805  0.4313  0.0544
   23DOPE   O13 2850   3.981   1.057  14.386  0.9451 -0.3418  0.0780
   23DOPE   O14 2851   4.227   1.122  14.421 -0.1455  0.3582 -0.2656
   23DOPE   O11 2852   4.064   1.264  14.288  0.2414  0.2482 -0.2895
   23DOPE   O12 2853   4.045   1.242  14.535 -0.0771 -0.0140 -0.1471
   23DOPE    C1 2854   4.138   1.257  14.168  0.3522  0.4258 -0.0111
   23DOPE    HA 2855   4.069   1.268  14.081  2.0965  0.3411 -1.4626
   23DOPE    HB 2856   4.185   1.158  14.151 -0.9208 -0.1970 -0.0383
   23DOPE    C2 2857   4.246   1.369  14.173  0.0367 -0.5145 -0.3910
   23DOPE    HS 2858   4.295   1.340  14.268 -1.1661 -2.5168 -0.3230
   23DOPE   O21 2859   4.175   1.502  14.156 -0.4685  0.1010 -0.0957
   23DOPE   C21 2860   4.239   1.597  14.229  0.5075  0.5357 -0.6258
   23DOPE   O22 2861   4.333   1.577  14.305  0.1389 -0.9235 -0.2836
   23DOPE   C22 2862   4.169   1.734  14.196  0.0460 -0.4551  0.1093
   23DOPE   H2R 2863   4.090   1.750  14.273  0.6542  0.4563  0.5650
   23DOPE   H2S 2864   4.145   1.718  14.089  0.5800 -2.1482  0.2229
   23DOPE    C3 2865   4.361   1.350  14.069 -0.1316 -0.0544 -0.3365
   23DOPE    HX 2866   4.408   1.251  14.090  1.0644  1.2425  4.2319
   23DOPE    HY 2867   4.432   1.432  14.090 -0.5893  0.7280 -1.7466
   23DOPE   O31 2868   4.305   1.354  13.930  0.2181 -0.1275 -0.2183
   23DOPE   C31 2869   4.368   1.434  13.841 -0.0366  0.2117  0.3041
   23DOPE   O32 2870   4.461   1.509  13.867 -0.6668 -1.0782 -0.1027
   23DOPE   C32 2871   4.298   1.419  13.702 -0.1071  0.2203  0.1886
   23DOPE   H2X 2872   4.307   1.312  13.672 -3.1175  0.4819 -2.1576
   23DOPE   H2Y 2873   4.190   1.447  13.709 -0.4322 -1.0167  0.4199
   23DOPE   C23 2874   4.262   1.857  14.214  0.8969 -0.2131 -0.9217
   23DOPE   H3R 2875   4.309   1.844  14.313 -1.2684 -2.1601 -0.0645
   23DOPE   H3S 2876   4.195   1.946  14.211  0.0536 -0.8310 -0.8916
   23DOPE   C24 2877   4.375   1.873  14.114 -0.5624 -0.8148 -0.2878
   23DOPE   H4R 2878   4.448   1.789  14.106 -1.0669 -1.3513  0.5395
   23DOPE   H4S 2879   4.451   1.951  14.138  2.0257 -3.3688  0.4665
   23DOPE   C25 2880   4.335   1.912  13.976  0.1948  0.0379 -0.3898
   23DOPE   H5R 2881   4.330   2.023  13.972 -0.6675  0.1210  1.8759
   23DOPE   H5S 2882   4.240   1.867  13.940 -1.3492  2.1423  0.8564
   23DOPE   C26 2883   4.454   1.877  13.884 -0.4749  0.4387 -0.6619
   23DOPE   H6R 2884   4.456   1.766  13.876  0.9347  0.2717  1.2078
   23DOPE   H6S 2885   4.554   1.907  13.923  0.1096 -1.2427 -0.8000
   23DOPE   C27 2886   4.437   1.928  13.746  0.1977 -0.2262  0.0535
   23DOPE   H7R 2887   4.396   2.032  13.747 -0.4467 -0.4672 -0.4391
   23DOPE   H7S 2888   4.353   1.867  13.707  0.0902 -0.6778  0.9474
   23DOPE   C28 2889   4.572   1.932  13.668  0.0449 -0.4815  0.0266
   23DOPE   H8R 2890   4.646   1.965  13.743  0.4117 -0.6676 -0.2541
   23DOPE   H8S 2891   4.556   2.012  13.593  2.8313 -0.3959 -0.5655
   23DOPE   C29 2892   4.614   1.797  13.619 -0.1382 -1.2309 -0.6667
   23DOPE   H9R 2893   4.600   1.711  13.685  3.7697  1.1477  3.9510
   23DOPE  C210 2894   4.664   1.764  13.499  0.5234 -0.2592 -0.2099
   23DOPE  H10R 2895   4.684   1.656  13.492  0.0126 -0.3227 -0.7993
   23DOPE  C211 2896   4.695   1.856  13.376  0.1729 -0.1779 -0.5729
   23DOPE  H11R 2897   4.796   1.831  13.338 -0.7352 -2.3448 -1.7792
   23DOPE  H11S 2898   4.679   1.964  13.399  2.4346  0.1433 -0.2320
   23DOPE  C212 2899   4.584   1.815  13.279  0.3565  0.6500 -0.2479
   23DOPE  H12R 2900   4.487   1.835  13.329 -0.1837 -0.6820 -0.7289
   23DOPE  H12S 2901   4.588   1.705  13.265  1.1494  0.7514 -0.8740
   23DOPE  C213 2902   4.584   1.889  13.137 -0.7203 -0.0394 -0.4782
   23DOPE  H13R 2903   4.586   2.000  13.143 -1.3260 -0.0346 -0.2316
   23DOPE  H13S 2904   4.498   1.860  13.073 -0.0792  0.1616 -1.4591
   23DOPE  C214 2905   4.715   1.864  13.060 -0.1463  0.5817 -0.1015
   23DOPE  H14R 2906   4.744   1.758  13.043 -0.4322  0.6329 -0.9620
   23DOPE  H14S 2907   4.800   1.893  13.125 -0.9782  1.5082  0.5982
   23DOPE  C215 2908   4.736   1.951  12.927 -0.2004  0.4058  0.5992
   23DOPE  H15R 2909   4.845   1.959  12.908  0.0906 -2.2687  0.7000
   23DOPE  H15S 2910   4.683   2.048  12.916 -1.1881 -0.3058 -1.5274
   23DOPE  C216 2911   4.675   1.876  12.806 -0.2720 -0.3401 -0.2720
   23DOPE  H16R 2912   4.566   1.860  12.820 -0.0745 -1.1988  0.3583
   23DOPE  H16S 2913   4.722   1.776  12.796 -1.3408 -1.1837  2.2838
   23DOPE  C217 2914   4.686   1.954  12.673 -0.4541  0.3794 -0.8402
   23DOPE  H17R 2915   4.790   1.988  12.654  0.5522 -2.8932 -1.8026
   23DOPE  H17S 2916   4.610   2.035  12.678 -0.3332  0.4758 -0.5446
   23DOPE  C218 2917   4.653   1.878  12.547  0.6719 -0.4075  0.1123
   23DOPE  H18R 2918   4.666   1.938  12.454  1.8780  0.5261  0.8598
   23DOPE  H18S 2919   4.542   1.867  12.555  0.7789 -0.5864  1.5081
   23DOPE  H18T 2920   4.715   1.786  12.546  1.9029  0.3360  2.1024
   23DOPE   C33 2921   4.342   1.516  13.588 -0.5001 -0.5685  0.1551
   23DOPE   H3X 2922   4.450   1.508  13.561 -0.6984  0.0947 -0.8520
   23DOPE   H3Y 2923   4.321   1.615  13.633 -1.4780 -1.0781  0.8467
   23DOPE   C34 2924   4.256   1.497  13.466  0.0088 -0.1603 -0.0481
   23DOPE   H4X 2925   4.273   1.401  13.412  0.0845 -0.1755  0.0034
   23DOPE   H4Y 2926   4.152   1.490  13.504  0.2417  0.8278  0.7926
   23DOPE   C35 2927   4.263   1.615  13.368 -0.5861  0.6026 -0.1211
   23DOPE   H5X 2928   4.372   1.623  13.348 -0.0478 -1.1402  1.7371
   23DOPE   H5Y 2929   4.236   1.711  13.417  0.8484  0.4878  0.9601
   23DOPE   C36 2930   4.181   1.583  13.249  0.0360  0.2543 -0.1422
   23DOPE   H6X 2931   4.073   1.563  13.269  0.7209 -1.7950  1.8949
   23DOPE   H6Y 2932   4.224   1.493  13.202 -1.5080 -1.0092  0.7606
   23DOPE   C37 2933   4.185   1.712  13.150 -0.5932 -0.6110 -0.0490
   23DOPE   H7X 2934   4.118   1.794  13.185 -1.7656 -1.7537  0.4796
   23DOPE   H7Y 2935   4.287   1.754  13.156 -1.0846  0.6725 -0.3863
   23DOPE   C38 2936   4.137   1.693  12.999  0.4170 -0.1674 -0.0332
   23DOPE   H8X 2937   4.124   1.797  12.962  1.6431  0.1007  0.2129
   23DOPE   H8Y 2938   4.043   1.635  13.001  0.2588  0.0984  0.4243
   23DOPE   C39 2939   4.232   1.614  12.919  0.1837  0.2195 -0.9650
   23DOPE   H9X 2940   4.305   1.559  12.981 -2.2046 -1.0438  0.9073
   23DOPE  C310 2941   4.242   1.600  12.785 -0.0244 -0.1937 -0.2034
   23DOPE  H10X 2942   4.320   1.534  12.744  2.1559  2.4025 -0.5180
   23DOPE  C311 2943   4.152   1.662  12.689  0.1760  0.0232  0.9946
   23DOPE  H11X 2944   4.048   1.623  12.700  0.3567 -0.5658  0.6768
   23DOPE  H11Y 2945   4.138   1.771  12.704 -0.4726  0.1080 -0.1051
   23DOPE  C312 2946   4.200   1.644  12.546 -0.4306  0.2689  0.4023
   23DOPE  H12X 2947   4.108   1.669  12.488 -1.1879  1.2710  1.9485
   23DOPE  H12Y 2948   4.225   1.540  12.519  1.9197  0.6884  0.7535
   23DOPE  C313 2949   4.316   1.736  12.511  0.4726 -0.2868  0.2357
   23DOPE  H13X 2950   4.341   1.809  12.591 -1.3579  0.5424  0.1134
   23DOPE  H13Y 2951   4.404   1.676  12.480 -0.0140 -0.0526 -1.7937
   23DOPE  C314 2952   4.307   1.824  12.381  0.2495 -0.4453  0.0930
   23DOPE  H14X 2953   4.368   1.916  12.394 -0.6834  0.4527 -1.4212
   23DOPE  H14Y 2954   4.206   1.867  12.361  0.4799  0.1240  0.1418
   23DOPE  C315 2955   4.350   1.749  12.249 -0.4469 -0.3018  0.1471
   23DOPE  H15X 2956   4.330   1.806  12.155 -1.8044 -2.0945 -0.7167
   23DOPE  H15Y 2957   4.293   1.655  12.236  1.6102 -1.5582 -0.3688
   23DOPE  C316 2958   4.498   1.710  12.236  0.7300  0.2779  0.4460
   23DOPE  H16X 2959   4.530   1.644  12.320 -1.7746 -0.4061  0.9543
   23DOPE  H16Y 2960   4.553   1.807  12.234 -0.4053  0.9390  0.1538
   23DOPE  C317 2961   4.520   1.628  12.109 -0.1258 -0.1402 -0.5462
   23DOPE  H17X 2962   4.502   1.690  12.019 -1.1392  0.8872  0.3372
   23DOPE  H17Y 2963   4.626   1.595  12.104  0.2810  1.1508 -0.5799
   23DOPE  C318 2964   4.437   1.499  12.099  0.6716  0.2928  0.3852
   23DOPE  H18X 2965   4.327   1.514  12.101  0.4025 -1.0742 -1.2749
   23DOPE  H18Y 2966   4.458   1.442  12.006  0.8289  1.1436 -0.1114
   23DOPE  H18Z 2967   4.459   1.441  12.191  2.4076 -0.4975 -0.4800
   24DOPE     N 2968   0.710   5.294  14.450 -0.4066 -0.3895  0.7158
   24DOPE   HN1 2969   0.764   5.340  14.375 -1.1111  0.2224  0.5722
   24DOPE   HN2 2970   0.709   5.357  14.533  0.9294  3.0454 -1.6832
   24DOPE   HN3 2971   0.753   5.202  14.470 -0.1919 -0.1182  1.5315
   24DOPE   C12 2972   0.571   5.276  14.405  0.5076 -0.2703 -0.2827
   24DOPE  H12A 2973   0.570   5.201  14.323  1.0494 -0.7079  0.1053
   24DOPE  H12B 2974   0.548   5.375  14.360 -0.5429  0.4313  1.6768
   24DOPE   C11 2975   0.479   5.220  14.509 -0.0434  0.4500 -0.1628
   24DOPE  H11A 2976   0.511   5.124  14.554 -1.0727 -0.5391 -1.4516
   24DOPE  H11B 2977   0.383   5.191  14.461  0.0706 -2.0310  0.9972
   24DOPE     P 2978   0.341   5.425  14.612 -0.2033 -0.0711  0.0716
   24DOPE   O13 2979   0.388   5.558  14.661 -0.2323 -0.3261  0.3344
   24DOPE   O14 2980   0.217   5.371  14.670 -0.3906 -0.0763  0.3740
   24DOPE   O11 2981   0.320   5.442  14.455 -0.3099  0.4026 -0.0294
   24DOPE   O12 2982   0.453   5.315  14.615 -0.5776  0.2214  0.3581
   24DOPE    C1 2983   0.183   5.466  14.409 -0.5936 -0.0572  0.7166
   24DOPE    HA 2984   0.179   5.551  14.337  1.5311  0.2955  0.9498
   24DOPE    HB 2985   0.108   5.490  14.486 -2.1613  1.1802 -1.0948
   24DOPE    C2 2986   0.117   5.342  14.343 -1.0222 -0.0159  0.3264
   24DOPE    HS 2987   0.157   5.261  14.407 -0.4056  1.7785  2.3318
   24DOPE   O21 2988   0.155   5.336  14.204  0.2317 -0.7637 -0.2457
   24DOPE   C21 2989   0.150   5.216  14.151  0.8829 -0.2404  0.3366
   24DOPE   O22 2990   0.097   5.121  14.208 -0.2941 -0.1620  0.5692
   24DOPE   C22 2991   0.190   5.225  14.006 -0.1232  0.6240 -0.8484
   24DOPE   H2R 2992   0.285   5.282  13.997 -0.7941  2.2392  1.3800
   24DOPE   H2S 2993   0.118   5.295  13.959 -0.9434  0.7809  0.5796
   24DOPE    C3 2994  -0.037   5.340  14.361  0.5886 -0.0522 -0.2059
   24DOPE    HX 2995  -0.056   5.327  14.470  2.5114 -2.1296 -0.0252
   24DOPE    HY 2996  -0.087   5.250  14.319  1.7295 -0.3654 -0.9699
   24DOPE   O31 2997  -0.099   5.463  14.312  0.2785  0.1661 -0.3957
   24DOPE   C31 2998  -0.186   5.456  14.212 -0.2554  0.6164  0.1081
   24DOPE   O32 2999  -0.228   5.351  14.159 -0.7388 -0.0518  0.0192
   24DOPE   C32 3000  -0.220   5.594  14.167  0.2883 -0.2187 -0.3619
   24DOPE   H2X 3001  -0.327   5.603  14.139  0.8047  2.0328 -1.9084
   24DOPE   H2Y 3002  -0.206   5.662  14.254  0.4893 -0.5311 -0.1481
   24DOPE   C23 3003   0.177   5.093  13.927  0.1236  0.1862  0.6534
   24DOPE   H3R 3004   0.101   5.029  13.976  0.5384 -0.7781  0.0577
   24DOPE   H3S 3005   0.273   5.038  13.931 -1.1053 -2.0028  1.4069
   24DOPE   C24 3006   0.158   5.112  13.775 -0.5218 -0.0603 -0.4176
   24DOPE   H4R 3007   0.228   5.191  13.739 -0.9663  0.2764 -0.5630
   24DOPE   H4S 3008   0.053   5.142  13.751 -1.0966 -1.3666  0.3836
   24DOPE   C25 3009   0.184   4.985  13.688  0.0132  0.1026 -0.2005
   24DOPE   H5R 3010   0.128   4.898  13.730 -0.1086  0.1100 -0.3495
   24DOPE   H5S 3011   0.291   4.958  13.702 -0.1527 -0.7810 -0.5594
   24DOPE   C26 3012   0.153   5.008  13.545 -0.0942 -0.7991  0.7307
   24DOPE   H6R 3013   0.192   5.106  13.508 -0.7015 -0.5247  0.8113
   24DOPE   H6S 3014   0.044   5.025  13.544 -0.0897 -0.7232  1.2777
   24DOPE   C27 3015   0.192   4.889  13.463  0.3268  0.1518  0.7122
   24DOPE   H7R 3016   0.154   4.802  13.520  1.1547 -0.1628  0.7956
   24DOPE   H7S 3017   0.303   4.879  13.455  0.2630  0.6750 -1.5404
   24DOPE   C28 3018   0.129   4.884  13.327 -0.7589  0.0721  0.0755
   24DOPE   H8R 3019   0.019   4.898  13.324 -0.4415  3.1447 -0.1697
   24DOPE   H8S 3020   0.138   4.780  13.288 -1.1950  0.6903 -1.8069
   24DOPE   C29 3021   0.187   4.988  13.231 -0.5635 -0.5985  0.1898
   24DOPE   H9R 3022   0.154   5.091  13.248  0.0148  0.0356 -2.1295
   24DOPE  C210 3023   0.256   4.968  13.122 -0.1473  0.6762  0.2878
   24DOPE  H10R 3024   0.302   5.056  13.076  2.7327 -0.2650  1.1333
   24DOPE  C211 3025   0.296   4.832  13.066 -0.1080 -0.1667 -0.3205
   24DOPE  H11R 3026   0.248   4.741  13.110  1.5514 -1.2050 -0.5574
   24DOPE  H11S 3027   0.404   4.826  13.094  0.3871  1.5211 -1.7309
   24DOPE  C212 3028   0.286   4.820  12.916  0.0796  0.1830  0.6165
   24DOPE  H12R 3029   0.343   4.734  12.876  1.8061  1.5879 -0.0683
   24DOPE  H12S 3030   0.323   4.912  12.868  0.3695 -0.4188 -0.3350
   24DOPE  C213 3031   0.142   4.782  12.881  0.4593  0.4557 -0.0554
   24DOPE  H13R 3032   0.071   4.857  12.921 -1.0252 -0.5858 -0.6476
   24DOPE  H13S 3033   0.121   4.683  12.929 -2.5181 -0.2183 -2.4582
   24DOPE  C214 3034   0.110   4.770  12.730  0.4941  0.2598 -0.6249
   24DOPE  H14R 3035   0.107   4.875  12.693  0.9821  0.0748 -1.1880
   24DOPE  H14S 3036   0.003   4.742  12.726  0.8582 -1.5299  0.8062
   24DOPE  C215 3037   0.203   4.662  12.662 -0.5811  0.1234 -0.0106
   24DOPE  H15R 3038   0.198   4.577  12.733  1.3539  0.8050  1.0037
   24DOPE  H15S 3039   0.309   4.694  12.671 -0.4916 -0.2415  0.2601
   24DOPE  C216 3040   0.178   4.621  12.518 -0.2605  0.2645  0.1902
   24DOPE  H16R 3041   0.191   4.714  12.458  0.5287  0.6683  0.9675
   24DOPE  H16S 3042   0.072   4.591  12.506 -0.4792  0.5378  1.2579
   24DOPE  C217 3043   0.277   4.513  12.469  0.5071 -0.3071 -0.1746
   24DOPE  H17R 3044   0.380   4.554  12.472  0.4714 -0.2433  0.2269
   24DOPE  H17S 3045   0.269   4.492  12.361 -0.2758 -1.8191  0.1477
   24DOPE  C218 3046   0.277   4.381  12.551 -0.0158  0.3745  0.7203
   24DOPE  H18R 3047   0.300   4.409  12.656 -2.9228 -3.2908  2.5693
   24DOPE  H18S 3048   0.355   4.318  12.503 -0.7644  0.6563 -0.9416
   24DOPE  H18T 3049   0.178   4.330  12.549  0.2549 -0.2573  2.2235
   24DOPE   C33 3050  -0.155   5.644  14.040  0.2042  0.8539 -0.4337
   24DOPE   H3X 3051  -0.046   5.623  14.041 -0.1446 -1.1475 -0.0076
   24DOPE   H3Y 3052  -0.164   5.753  14.024  2.1084  0.6483 -3.9228
   24DOPE   C34 3053  -0.227   5.575  13.920 -0.5977  0.3046 -0.1014
   24DOPE   H4X 3054  -0.259   5.471  13.945  2.7524 -0.7639  0.2729
   24DOPE   H4Y 3055  -0.320   5.635  13.906 -1.0176 -0.3434 -0.1434
   24DOPE   C35 3056  -0.149   5.588  13.781  0.2903 -0.0660  0.5547
   24DOPE   H5X 3057  -0.047   5.623  13.809  0.1323  0.8465  0.0119
   24DOPE   H5Y 3058  -0.195   5.673  13.726 -0.6328  0.1810  1.6783
   24DOPE   C36 3059  -0.146   5.464  13.691 -0.2421 -0.2783  0.7791
   24DOPE   H6X 3060  -0.250   5.430  13.670 -0.9821 -0.0477  3.6377
   24DOPE   H6Y 3061  -0.100   5.378  13.744 -0.4405 -1.5617 -1.0251
   24DOPE   C37 3062  -0.056   5.499  13.566  0.6837  0.0712  0.3185
   24DOPE   H7X 3063  -0.092   5.584  13.504  1.0031 -0.7711 -1.0743
   24DOPE   H7Y 3064   0.040   5.539  13.607  0.6048  0.2978  0.2863
   24DOPE   C38 3065  -0.016   5.391  13.471 -0.6136  0.3510 -0.1245
   24DOPE   H8X 3066   0.002   5.300  13.531 -1.6997 -0.7287 -1.3785
   24DOPE   H8Y 3067   0.077   5.411  13.413 -0.6778 -0.7451 -0.6312
   24DOPE   C39 3068  -0.129   5.345  13.386 -0.5975 -0.0928  0.3078
   24DOPE   H9X 3069  -0.226   5.339  13.438 -1.4460  0.5339 -1.1165
   24DOPE  C310 3070  -0.118   5.337  13.253  0.4744 -0.3270  1.0547
   24DOPE  H10X 3071  -0.207   5.298  13.199  0.2284  0.3971  0.9180
   24DOPE  C311 3072  -0.001   5.354  13.162 -0.1773  0.6784  0.6854
   24DOPE  H11X 3073  -0.001   5.462  13.134  1.2370  0.9506  1.6178
   24DOPE  H11Y 3074   0.090   5.329  13.220  0.4385  1.6994  0.1878
   24DOPE  C312 3075  -0.009   5.276  13.019 -0.0326 -0.6102 -0.0062
   24DOPE  H12X 3076  -0.094   5.319  12.963  0.1487 -0.6214 -0.2955
   24DOPE  H12Y 3077  -0.023   5.168  13.043  0.8964 -1.0208 -1.2149
   24DOPE  C313 3078   0.120   5.291  12.936  0.3932 -0.4393 -0.5524
   24DOPE  H13X 3079   0.138   5.400  12.927 -0.6788 -0.0165  1.7656
   24DOPE  H13Y 3080   0.195   5.228  12.989  0.8069 -0.4713 -1.1655
   24DOPE  C314 3081   0.099   5.228  12.796  0.0189  0.0804  0.4188
   24DOPE  H14X 3082   0.033   5.139  12.804  2.5936 -1.8971  1.0255
   24DOPE  H14Y 3083   0.199   5.197  12.760 -0.8377 -3.2732  0.6244
   24DOPE  C315 3084   0.033   5.328  12.692 -0.1396  0.7587 -0.7675
   24DOPE  H15X 3085   0.101   5.416  12.681  1.0430 -0.0787 -0.3183
   24DOPE  H15Y 3086  -0.057   5.363  12.746 -1.2408  0.8183 -2.5412
   24DOPE  C316 3087  -0.006   5.271  12.560 -0.2638 -0.0766 -0.0778
   24DOPE  H16X 3088  -0.083   5.338  12.517  2.3833  1.3277 -3.0519
   24DOPE  H16Y 3089  -0.050   5.169  12.575  2.2547 -1.3861 -0.9882
   24DOPE  C317 3090   0.111   5.265  12.459  0.1076 -0.1138 -0.1252
   24DOPE  H17X 3091   0.149   5.369  12.456 -0.1973  0.0147  0.3889
   24DOPE  H17Y 3092   0.196   5.201  12.492  0.5374  1.1861  1.3627
   24DOPE  C318 3093   0.065   5.228  12.321 -0.7848  0.8415  0.3074
   24DOPE  H18X 3094   0.142   5.236  12.242 -0.3808 -0.3857  0.5561
   24DOPE  H18Y 3095   0.046   5.118  12.314 -2.5975  1.1613 -0.4090
   24DOPE  H18Z 3096  -0.024   5.282  12.281 -0.4349  0.3015 -1.2760
   25DOPE     N 3097   0.627   5.681  14.607  0.4316  0.5152 -0.3607
   25DOPE   HN1 3098   0.540   5.629  14.629 -0.2266  2.8918  3.7208
   25DOPE   HN2 3099   0.717   5.628  14.615 -0.7586 -1.8443 -1.6088
   25DOPE   HN3 3100   0.623   5.766  14.668 -0.2434 -0.0552  0.4147
   25DOPE   C12 3101   0.632   5.724  14.462  0.5084 -0.7805  0.1792
   25DOPE  H12A 3102   0.545   5.790  14.444  0.3163 -0.0115  3.3828
   25DOPE  H12B 3103   0.608   5.634  14.400 -2.3787  0.9898 -1.4841
   25DOPE   C11 3104   0.765   5.811  14.441  0.9813 -0.0697 -0.4309
   25DOPE  H11A 3105   0.756   5.884  14.524  3.1290 -0.6866  0.3971
   25DOPE  H11B 3106   0.777   5.853  14.339  0.9426 -1.3450 -0.9786
   25DOPE     P 3107   0.922   5.624  14.356  0.6687  0.3434  0.1578
   25DOPE   O13 3108   0.843   5.496  14.364 -0.5695 -0.0194 -0.5484
   25DOPE   O14 3109   1.067   5.616  14.380 -0.1422 -0.8207  0.5291
   25DOPE   O11 3110   0.893   5.702  14.221  0.4483 -0.1535 -1.3578
   25DOPE   O12 3111   0.879   5.725  14.473  0.0999 -0.0950  0.2600
   25DOPE    C1 3112   0.965   5.817  14.168  0.2612  0.0335 -0.7237
   25DOPE    HA 3113   1.057   5.847  14.222 -0.4983 -1.4632  1.5111
   25DOPE    HB 3114   0.899   5.907  14.168 -0.8589 -0.7421  0.8540
   25DOPE    C2 3115   1.001   5.792  14.019  0.5889 -0.2457  0.1617
   25DOPE    HS 3116   1.075   5.870  13.991  1.1171  0.0759  2.2962
   25DOPE   O21 3117   0.885   5.786  13.930  0.4977 -0.3296  0.2006
   25DOPE   C21 3118   0.832   5.900  13.882  0.0350 -1.0794  0.4562
   25DOPE   O22 3119   0.877   6.010  13.890 -0.1281 -0.8899  0.1066
   25DOPE   C22 3120   0.702   5.861  13.806 -0.7507 -0.2507  1.4615
   25DOPE   H2R 3121   0.621   5.895  13.873 -1.2761  2.1540 -0.2608
   25DOPE   H2S 3122   0.700   5.750  13.793  1.4359 -0.1690 -0.3033
   25DOPE    C3 3123   1.069   5.654  14.004  0.4764  0.0689  0.8433
   25DOPE    HX 3124   1.006   5.575  14.050  0.1314 -0.1160  0.0630
   25DOPE    HY 3125   1.167   5.642  14.056  2.1333  1.7060 -1.6540
   25DOPE   O31 3126   1.075   5.612  13.861 -0.3440 -0.3503 -0.3018
   25DOPE   C31 3127   1.180   5.654  13.792  0.0790 -0.1719 -0.2233
   25DOPE   O32 3128   1.270   5.728  13.834  0.1187 -0.1146 -0.2648
   25DOPE   C32 3129   1.155   5.614  13.642  0.6993  0.5824  0.1773
   25DOPE   H2X 3130   1.154   5.504  13.625  3.9725  0.5390 -0.4274
   25DOPE   H2Y 3131   1.067   5.671  13.605  1.3164 -0.0934 -2.5539
   25DOPE   C23 3132   0.699   5.923  13.664  0.0834  0.5944 -0.0727
   25DOPE   H3R 3133   0.703   6.034  13.668 -0.3024  0.6805 -1.3878
   25DOPE   H3S 3134   0.599   5.895  13.623  1.3618 -1.1659 -2.2155
   25DOPE   C24 3135   0.805   5.882  13.565 -0.4116  0.0924  0.4492
   25DOPE   H4R 3136   0.810   5.771  13.562 -0.1506  0.1191 -0.3667
   25DOPE   H4S 3137   0.912   5.904  13.585 -0.7173  1.1265  1.0549
   25DOPE   C25 3138   0.775   5.919  13.417  0.3519 -0.1659 -0.4771
   25DOPE   H5R 3139   0.792   6.028  13.406  0.9366 -0.3287 -1.2561
   25DOPE   H5S 3140   0.668   5.896  13.401  0.3050  0.5303 -1.2311
   25DOPE   C26 3141   0.874   5.854  13.319 -0.2284 -0.9609  0.5699
   25DOPE   H6R 3142   0.849   5.748  13.298  1.3397 -1.2091 -0.1868
   25DOPE   H6S 3143   0.975   5.859  13.365  0.1761 -2.1442 -0.1401
   25DOPE   C27 3144   0.890   5.927  13.186  0.1122 -0.1610 -0.2215
   25DOPE   H7R 3145   0.893   6.038  13.194 -0.2024  0.0728 -2.5699
   25DOPE   H7S 3146   0.798   5.906  13.127  0.4481 -1.7691 -0.2079
   25DOPE   C28 3147   1.014   5.874  13.106 -0.1951  0.3200  0.2874
   25DOPE   H8R 3148   1.105   5.899  13.166 -0.3046  0.3724  0.4326
   25DOPE   H8S 3149   1.029   5.929  13.011 -0.6330  1.8018  1.0441
   25DOPE   C29 3150   1.006   5.726  13.081  0.1251 -0.2281  0.5045
   25DOPE   H9R 3151   1.035   5.661  13.165 -0.8975 -1.2615  0.0962
   25DOPE  C210 3152   0.942   5.672  12.967 -0.6439 -0.2742  0.3103
   25DOPE  H10R 3153   0.941   5.562  12.959 -0.4126 -0.1510 -2.6238
   25DOPE  C211 3154   0.896   5.758  12.845 -0.0192  0.5194  0.7321
   25DOPE  H11R 3155   0.862   5.863  12.859 -1.2051  0.1539  0.7393
   25DOPE  H11S 3156   0.822   5.693  12.793  0.7595 -0.3057  0.6444
   25DOPE  C212 3157   1.008   5.765  12.735  0.6112  0.1071  1.0014
   25DOPE  H12R 3158   1.043   5.662  12.711 -0.4885 -0.1487  0.4417
   25DOPE  H12S 3159   1.093   5.826  12.771 -0.2969  2.8877 -1.2198
   25DOPE  C213 3160   0.965   5.832  12.600  0.0897 -0.4541  0.0068
   25DOPE  H13R 3161   0.956   5.939  12.626  0.0163  0.1331 -2.2158
   25DOPE  H13S 3162   0.864   5.793  12.574 -1.8164  1.4825  3.6524
   25DOPE  C214 3163   1.065   5.803  12.497  0.2701  0.1769 -0.0322
   25DOPE  H14R 3164   1.058   5.699  12.460 -0.3235 -0.0046  0.5760
   25DOPE  H14S 3165   1.169   5.818  12.533 -0.5318  0.9386  2.1962
   25DOPE  C215 3166   1.041   5.893  12.379  0.4657 -0.0285 -0.1939
   25DOPE  H15R 3167   1.073   5.996  12.406  1.7642 -0.4180 -0.1495
   25DOPE  H15S 3168   0.935   5.891  12.346  0.4962  0.2722 -0.3172
   25DOPE  C216 3169   1.127   5.872  12.255  0.8782 -0.6585  0.3704
   25DOPE  H16R 3170   1.129   5.762  12.243 -1.6476 -0.8863  1.3792
   25DOPE  H16S 3171   1.229   5.905  12.284 -0.5075  2.6151  2.0150
   25DOPE  C217 3172   1.060   5.952  12.138  0.6430 -0.7608  0.2013
   25DOPE  H17R 3173   0.949   5.950  12.145  0.5739 -0.5378 -0.7740
   25DOPE  H17S 3174   1.087   5.900  12.044  0.4123  0.3048 -0.4695
   25DOPE  C218 3175   1.113   6.093  12.128  0.1743  0.2479 -0.0786
   25DOPE  H18R 3176   1.087   6.145  12.222  1.1636 -3.0009  2.1929
   25DOPE  H18S 3177   1.052   6.135  12.045  1.7873  0.3779 -1.2559
   25DOPE  H18T 3178   1.219   6.099  12.098 -0.0671  0.9458 -0.8239
   25DOPE   C33 3179   1.282   5.655  13.558  0.5876  0.2204  0.6289
   25DOPE   H3X 3180   1.383   5.628  13.595  0.5738 -0.9146 -0.1260
   25DOPE   H3Y 3181   1.282   5.765  13.539  1.4037  0.1236  0.0057
   25DOPE   C34 3182   1.264   5.593  13.415  0.0820  0.2113 -0.8959
   25DOPE   H4X 3183   1.256   5.485  13.437  1.2661  0.2457 -0.2189
   25DOPE   H4Y 3184   1.166   5.620  13.370  0.6483  1.1201 -1.6247
   25DOPE   C35 3185   1.379   5.607  13.312 -0.0886 -0.0063 -0.0695
   25DOPE   H5X 3186   1.472   5.562  13.352 -0.1709  1.0956  1.4487
   25DOPE   H5Y 3187   1.411   5.712  13.291  0.2068 -0.1354 -0.2734
   25DOPE   C36 3188   1.343   5.533  13.178 -0.4979  0.3410  0.6644
   25DOPE   H6X 3189   1.236   5.542  13.150 -0.1957 -0.3534 -0.8248
   25DOPE   H6Y 3190   1.366   5.426  13.197 -0.5939  0.1731 -0.1214
   25DOPE   C37 3191   1.434   5.574  13.057  0.1880 -0.0845  0.5547
   25DOPE   H7X 3192   1.399   5.677  13.035  1.3308 -0.1424 -1.8368
   25DOPE   H7Y 3193   1.543   5.584  13.077  0.5807 -1.2771 -0.8395
   25DOPE   C38 3194   1.422   5.482  12.931 -0.5986 -0.3720 -0.2141
   25DOPE   H8X 3195   1.446   5.381  12.970 -2.1222 -0.5847  0.2048
   25DOPE   H8Y 3196   1.499   5.520  12.860  0.7706  0.2113  1.5213
   25DOPE   C39 3197   1.288   5.490  12.862  0.0308 -0.4610 -0.7448
   25DOPE   H9X 3198   1.212   5.521  12.934  0.5895 -1.2289  0.2113
   25DOPE  C310 3199   1.270   5.472  12.730 -0.3474  0.0412  0.8381
   25DOPE  H10X 3200   1.174   5.494  12.683  0.8444  3.7184 -0.2132
   25DOPE  C311 3201   1.371   5.419  12.634  0.1982 -0.3736 -0.1251
   25DOPE  H11X 3202   1.467   5.397  12.684  0.1440  0.9037  0.5548
   25DOPE  H11Y 3203   1.344   5.320  12.590 -1.3505  0.2365 -0.6307
   25DOPE  C312 3204   1.378   5.507  12.512 -0.5813 -0.1405 -0.4033
   25DOPE  H12X 3205   1.467   5.486  12.450  0.6804  3.6365 -0.1510
   25DOPE  H12Y 3206   1.397   5.613  12.541  3.8532 -0.3187 -1.8867
   25DOPE  C313 3207   1.258   5.497  12.418 -0.4133  0.5081  0.1352
   25DOPE  H13X 3208   1.158   5.476  12.462 -0.1306 -0.4799  0.3346
   25DOPE  H13Y 3209   1.251   5.595  12.367 -1.1502 -0.0648 -0.9090
   25DOPE  C314 3210   1.279   5.389  12.316 -0.3954  0.3507  0.3519
   25DOPE  H14X 3211   1.179   5.364  12.277 -0.5832  0.4010  0.7972
   25DOPE  H14Y 3212   1.325   5.300  12.364 -0.0496 -0.1983 -0.9565
   25DOPE  C315 3213   1.370   5.423  12.196  0.2118  0.2100  0.1967
   25DOPE  H15X 3214   1.471   5.450  12.235  0.9292 -1.9930  0.0163
   25DOPE  H15Y 3215   1.327   5.505  12.135 -1.2012  0.2543  1.2188
   25DOPE  C316 3216   1.417   5.304  12.109 -0.0967  0.8447 -0.0298
   25DOPE  H16X 3217   1.341   5.234  12.067  0.6945  0.6347 -1.1768
   25DOPE  H16Y 3218   1.495   5.258  12.174 -0.4812  1.3160  0.7865
   25DOPE  C317 3219   1.494   5.342  11.982 -0.5469 -0.2033  0.2596
   25DOPE  H17X 3220   1.565   5.419  12.020 -2.1856  0.1621  2.8599
   25DOPE  H17Y 3221   1.561   5.266  11.937 -0.4447  0.8556 -1.4878
   25DOPE  C318 3222   1.404   5.398  11.880 -0.6517 -0.0553  0.0562
   25DOPE  H18X 3223   1.326   5.327  11.842 -0.9026  0.4601 -0.4084
   25DOPE  H18Y 3224   1.341   5.482  11.915  1.4847  2.0893 -0.9134
   25DOPE  H18Z 3225   1.461   5.439  11.793  1.1215  0.9064  1.6095
   26DOPE     N 3226   2.363   6.072  14.205  0.4089  0.3409  0.6229
   26DOPE   HN1 3227   2.273   6.036  14.244 -0.6904 -1.3157 -3.0160
   26DOPE   HN2 3228   2.361   6.046  14.104  2.9750  2.4340 -0.0699
   26DOPE   HN3 3229   2.438   6.031  14.264 -0.9206 -0.5250  1.7892
   26DOPE   C12 3230   2.344   6.221  14.212 -0.0685  0.6038  0.3438
   26DOPE  H12A 3231   2.431   6.273  14.167 -0.6548  0.7620 -0.6418
   26DOPE  H12B 3232   2.340   6.256  14.317  1.0082  0.6279  0.3885
   26DOPE   C11 3233   2.207   6.266  14.159 -0.4940  0.0621  0.8454
   26DOPE  H11A 3234   2.201   6.217  14.059  3.6992 -0.5366  0.7287
   26DOPE  H11B 3235   2.197   6.376  14.149 -2.1919 -0.0257  1.1674
   26DOPE     P 3236   1.967   6.291  14.267  0.1087 -0.2380 -0.1980
   26DOPE   O13 3237   1.998   6.431  14.302 -0.0510 -0.0279 -0.5062
   26DOPE   O14 3238   1.885   6.214  14.366 -0.1104  0.3329 -0.5611
   26DOPE   O11 3239   1.901   6.281  14.122  0.2837  0.0069  0.2668
   26DOPE   O12 3240   2.103   6.221  14.243 -0.0814 -0.6037  0.4802
   26DOPE    C1 3241   1.887   6.145  14.067  0.6339  0.4545 -0.1556
   26DOPE    HA 3242   1.815   6.089  14.129 -0.2915  2.5190  0.7216
   26DOPE    HB 3243   1.987   6.095  14.067  1.7991  2.6203  0.4246
   26DOPE    C2 3244   1.828   6.138  13.921 -0.2225 -0.3533 -0.4784
   26DOPE    HS 3245   1.873   6.055  13.861  0.0602 -0.2482 -0.4112
   26DOPE   O21 3246   1.865   6.258  13.861  0.1485 -0.3317 -0.1189
   26DOPE   C21 3247   1.991   6.266  13.839  0.1084 -0.2053  0.4836
   26DOPE   O22 3248   2.074   6.176  13.844  0.5837 -0.2999 -0.2047
   26DOPE   C22 3249   2.024   6.411  13.802 -0.1448 -0.4023  0.3416
   26DOPE   H2R 3250   2.079   6.452  13.889  1.4592 -0.3957 -0.6335
   26DOPE   H2S 3251   1.928   6.463  13.786  1.2960  2.3482  0.0825
   26DOPE    C3 3252   1.675   6.123  13.913 -0.4495 -0.3813  0.3411
   26DOPE    HX 3253   1.623   6.205  13.967  0.6142 -0.8379  2.1669
   26DOPE    HY 3254   1.646   6.030  13.968 -0.0868  0.3812  1.8777
   26DOPE   O31 3255   1.640   6.099  13.777 -0.4155 -0.2155 -0.3459
   26DOPE   C31 3256   1.607   6.206  13.699  0.0292  0.1859 -0.0558
   26DOPE   O32 3257   1.586   6.315  13.745  0.6505  0.0745  0.5344
   26DOPE   C32 3258   1.591   6.165  13.551 -0.3815  0.7362 -0.4768
   26DOPE   H2X 3259   1.686   6.128  13.508 -1.0527 -1.3118 -0.3029
   26DOPE   H2Y 3260   1.522   6.078  13.550  1.2360 -0.6334  0.8963
   26DOPE   C23 3261   2.124   6.426  13.679 -0.2889  0.5577  0.0466
   26DOPE   H3R 3262   2.219   6.375  13.708 -1.9114 -1.3533  2.4815
   26DOPE   H3S 3263   2.152   6.531  13.661 -1.0457  0.3898 -2.4651
   26DOPE   C24 3264   2.063   6.379  13.548 -0.5814  0.1751  0.4375
   26DOPE   H4R 3265   2.129   6.421  13.469  0.3905 -0.6574  0.7901
   26DOPE   H4S 3266   1.956   6.409  13.541 -0.3698  0.8813  0.1268
   26DOPE   C25 3267   2.068   6.227  13.525  0.2389  0.4886  0.7054
   26DOPE   H5R 3268   1.992   6.174  13.586 -0.6993 -0.5923 -1.3008
   26DOPE   H5S 3269   2.164   6.187  13.563 -0.6733 -2.3426  0.2863
   26DOPE   C26 3270   2.032   6.176  13.388  0.1254 -0.1934  0.2365
   26DOPE   H6R 3271   2.116   6.210  13.324 -1.7823  4.0102 -0.4083
   26DOPE   H6S 3272   1.947   6.235  13.346  0.5725  1.4491  1.5589
   26DOPE   C27 3273   2.006   6.023  13.387 -0.6566 -0.4290 -0.0573
   26DOPE   H7R 3274   1.917   6.008  13.453  1.0790 -0.0320  2.4983
   26DOPE   H7S 3275   2.091   5.968  13.433 -2.7402 -3.4958  0.5235
   26DOPE   C28 3276   1.981   5.971  13.246 -0.4011 -0.1007  1.4294
   26DOPE   H8R 3277   1.984   5.861  13.257 -0.6444 -0.1586  0.9096
   26DOPE   H8S 3278   2.067   6.007  13.185 -1.5620  0.0923 -0.1472
   26DOPE   C29 3279   1.856   6.014  13.173  0.5389 -0.9920 -0.0651
   26DOPE   H9R 3280   1.826   6.119  13.180  0.8550 -0.9842  1.8669
   26DOPE  C210 3281   1.776   5.929  13.106 -0.4359  0.3027 -1.0398
   26DOPE  H10R 3282   1.692   5.974  13.051 -1.1755 -1.1420 -1.1426
   26DOPE  C211 3283   1.802   5.782  13.084  0.0020 -0.4305 -0.3561
   26DOPE  H11R 3284   1.712   5.731  13.123 -0.9494 -0.0376 -1.9408
   26DOPE  H11S 3285   1.892   5.745  13.138 -0.6514 -0.5231  0.6838
   26DOPE  C212 3286   1.828   5.755  12.936  0.3060 -0.0154 -0.3710
   26DOPE  H12R 3287   1.918   5.816  12.912  0.6310  0.2097  1.2788
   26DOPE  H12S 3288   1.746   5.801  12.877 -1.3355 -3.2037 -0.7499
   26DOPE  C213 3289   1.842   5.607  12.903 -0.0644 -0.1424  0.8728
   26DOPE  H13R 3290   1.755   5.559  12.951  0.8336 -0.5612  2.1334
   26DOPE  H13S 3291   1.938   5.561  12.938  0.2092  0.1674  0.5371
   26DOPE  C214 3292   1.822   5.582  12.747 -0.2388  0.4387 -0.5064
   26DOPE  H14R 3293   1.882   5.651  12.682 -3.5143  2.8450 -1.2507
   26DOPE  H14S 3294   1.715   5.606  12.728 -1.4239 -3.6506  0.1267
   26DOPE  C215 3295   1.828   5.441  12.702  0.4658 -0.2039  0.0749
   26DOPE  H15R 3296   1.755   5.383  12.762  0.7327  0.3984  0.9950
   26DOPE  H15S 3297   1.931   5.401  12.714  0.1037 -0.8450  1.1465
   26DOPE  C216 3298   1.799   5.406  12.550 -0.2606 -0.5908  0.0819
   26DOPE  H16R 3299   1.848   5.483  12.486 -5.2544  0.5079 -2.9901
   26DOPE  H16S 3300   1.692   5.436  12.539 -0.5082 -1.6885 -0.6589
   26DOPE  C217 3301   1.824   5.262  12.504 -0.3455 -0.1534 -0.0978
   26DOPE  H17R 3302   1.811   5.253  12.394 -2.3195 -0.6874  0.1361
   26DOPE  H17S 3303   1.737   5.206  12.545 -0.9787  1.4238  0.7925
   26DOPE  C218 3304   1.956   5.207  12.551 -0.1295 -0.2462  0.3076
   26DOPE  H18R 3305   2.024   5.289  12.522  1.0939 -0.5827  2.0860
   26DOPE  H18S 3306   1.980   5.110  12.501  0.1317  0.4781 -1.0398
   26DOPE  H18T 3307   1.969   5.205  12.661  1.9536 -0.2588  0.0986
   26DOPE   C33 3308   1.546   6.287  13.468 -0.0435 -0.7219 -0.8354
   26DOPE   H3X 3309   1.609   6.376  13.488 -0.3426 -0.9019  1.1004
   26DOPE   H3Y 3310   1.445   6.319  13.503  0.7723  0.3997  0.5750
   26DOPE   C34 3311   1.548   6.278  13.313 -0.2350 -0.0107 -0.1870
   26DOPE   H4X 3312   1.512   6.374  13.269 -1.7381  0.0742  1.1112
   26DOPE   H4Y 3313   1.651   6.273  13.272 -0.3543  2.2936 -0.9029
   26DOPE   C35 3314   1.479   6.155  13.252 -0.7017  0.0178 -0.2634
   26DOPE   H5X 3315   1.375   6.138  13.287 -1.6006  0.8037 -2.3969
   26DOPE   H5Y 3316   1.542   6.073  13.292  0.4271  0.8023 -0.3800
   26DOPE   C36 3317   1.485   6.153  13.104  0.8057 -0.0313 -0.3961
   26DOPE   H6X 3318   1.589   6.150  13.065  0.3115  2.1211 -2.0749
   26DOPE   H6Y 3319   1.439   6.244  13.062 -1.5314 -1.4459 -1.0759
   26DOPE   C37 3320   1.409   6.035  13.034  0.2097 -0.6014  0.3276
   26DOPE   H7X 3321   1.438   5.945  13.092  0.1048 -0.7220  0.1968
   26DOPE   H7Y 3322   1.301   6.053  13.054  0.2158  0.1194 -0.2720
   26DOPE   C38 3323   1.432   6.036  12.885  0.8702  0.1311  0.9463
   26DOPE   H8X 3324   1.537   6.028  12.848 -0.6522  2.3568 -5.0606
   26DOPE   H8Y 3325   1.390   6.133  12.850 -0.0757 -0.6977 -0.3249
   26DOPE   C39 3326   1.355   5.927  12.827  0.0324  0.5938  0.2627
   26DOPE   H9X 3327   1.289   5.887  12.905  1.7822 -1.3132  0.8419
   26DOPE  C310 3328   1.366   5.850  12.716  0.1779  0.5393 -0.0475
   26DOPE  H10X 3329   1.288   5.774  12.698 -1.0799  1.9838 -1.0227
   26DOPE  C311 3330   1.470   5.868  12.604  0.1785  0.6847 -0.0394
   26DOPE  H11X 3331   1.530   5.958  12.630 -0.3948  0.7621  1.0936
   26DOPE  H11Y 3332   1.536   5.778  12.600 -0.9750 -0.1254 -2.6406
   26DOPE  C312 3333   1.417   5.889  12.461  0.8436  0.5069  0.3128
   26DOPE  H12X 3334   1.350   5.977  12.460  0.5746  0.3271 -1.3815
   26DOPE  H12Y 3335   1.358   5.797  12.439 -1.6947  1.7998  1.3234
   26DOPE  C313 3336   1.525   5.895  12.352 -0.1648 -0.3723  0.0190
   26DOPE  H13X 3337   1.468   5.915  12.259  0.1706  0.3080 -0.0504
   26DOPE  H13Y 3338   1.591   5.983  12.368 -0.2729 -0.4319  0.8134
   26DOPE  C314 3339   1.592   5.755  12.329  0.1673  0.4039 -0.8682
   26DOPE  H14X 3340   1.514   5.677  12.315  1.9457 -1.8953  1.1089
   26DOPE  H14Y 3341   1.639   5.732  12.427 -1.1084  0.9416 -0.1032
   26DOPE  C315 3342   1.693   5.758  12.218  0.3512 -0.8239  0.3233
   26DOPE  H15X 3343   1.784   5.810  12.254 -0.4130  1.4174 -0.7599
   26DOPE  H15Y 3344   1.651   5.820  12.136 -1.7439 -2.0025  0.4303
   26DOPE  C316 3345   1.721   5.623  12.150  0.5430 -0.0643 -0.5205
   26DOPE  H16X 3346   1.647   5.611  12.068 -1.5729  2.4325  0.8798
   26DOPE  H16Y 3347   1.705   5.541  12.223 -1.4744 -0.6334 -1.5148
   26DOPE  C317 3348   1.855   5.613  12.078  0.2719  0.6048  0.5046
   26DOPE  H17X 3349   1.852   5.684  11.992  0.3089  0.1469  0.1248
   26DOPE  H17Y 3350   1.934   5.636  12.154 -0.1506 -0.9884  1.4756
   26DOPE  C318 3351   1.876   5.474  12.033 -0.8232  0.3995  0.5522
   26DOPE  H18X 3352   1.978   5.467  11.988 -0.9121 -0.2942  0.4325
   26DOPE  H18Y 3353   1.869   5.399  12.115 -0.7807 -1.5229 -1.1044
   26DOPE  H18Z 3354   1.795   5.439  11.965 -3.3619  0.0581  3.5616
   27DOPE     N 3355   5.717   0.015  14.166  0.4696  0.0694 -0.2319
   27DOPE   HN1 3356   5.774  -0.017  14.085 -0.9431  0.5295 -1.4663
   27DOPE   HN2 3357   5.620  -0.021  14.152  0.9082 -1.0998 -0.3799
   27DOPE   HN3 3358   5.697   0.116  14.153 -0.3225 -0.0255  0.1569
   27DOPE   C12 3359   5.770  -0.009  14.303  0.2433 -0.1786  0.0893
   27DOPE  H12A 3360   5.709   0.044  14.380  1.9302  0.0320  1.3413
   27DOPE  H12B 3361   5.867   0.044  14.313 -0.0737  0.8194 -1.6661
   27DOPE   C11 3362   5.774  -0.157  14.341 -0.2544 -0.1544  0.1116
   27DOPE  H11A 3363   5.689  -0.214  14.297  0.8700 -2.3926  0.7119
   27DOPE  H11B 3364   5.775  -0.168  14.451 -1.8597  4.0099  0.7277
   27DOPE     P 3365   5.899  -0.372  14.250  0.2183 -0.2400  0.1932
   27DOPE   O13 3366   5.836  -0.389  14.114  0.2724  0.5921 -0.3279
   27DOPE   O14 3367   5.851  -0.455  14.366 -0.2304  0.4691  0.0071
   27DOPE   O11 3368   6.049  -0.406  14.231 -0.4913 -0.4694  0.3991
   27DOPE   O12 3369   5.894  -0.220  14.293 -0.0833  0.6906 -0.3128
   27DOPE    C1 3370   6.144  -0.329  14.167  0.7314 -0.7981  0.5728
   27DOPE    HA 3371   6.225  -0.295  14.234  2.9924 -0.8917 -1.9458
   27DOPE    HB 3372   6.094  -0.239  14.123 -2.7035 -2.2178  1.2217
   27DOPE    C2 3373   6.196  -0.407  14.045 -0.4917 -0.1441 -0.1009
   27DOPE    HS 3374   6.291  -0.355  14.019 -0.5927  0.3057  0.4060
   27DOPE   O21 3375   6.111  -0.409  13.937  0.7996  0.6894  0.0120
   27DOPE   C21 3376   6.097  -0.296  13.868  0.0590  0.0486 -0.2117
   27DOPE   O22 3377   6.149  -0.193  13.886  0.1088 -0.0864  0.2800
   27DOPE   C22 3378   6.004  -0.324  13.751  0.1468  0.2460 -0.3992
   27DOPE   H2R 3379   5.911  -0.266  13.769 -0.2005 -0.5503  0.4917
   27DOPE   H2S 3380   5.965  -0.428  13.751 -0.1257  0.3282 -1.6100
   27DOPE    C3 3381   6.225  -0.555  14.092  0.7627 -1.1379 -0.6987
   27DOPE    HX 3382   6.127  -0.605  14.110  0.3230 -0.5839 -1.4980
   27DOPE    HY 3383   6.288  -0.557  14.183 -0.3547 -1.2459  0.0979
   27DOPE   O31 3384   6.304  -0.620  13.993 -0.5052 -0.2641  0.0634
   27DOPE   C31 3385   6.239  -0.682  13.891 -0.6394  0.0954 -1.0513
   27DOPE   O32 3386   6.121  -0.698  13.878 -0.1908  0.3406 -0.3035
   27DOPE   C32 3387   6.350  -0.734  13.802  0.3907 -0.0828 -0.5115
   27DOPE   H2X 3388   6.417  -0.651  13.771  0.4455  0.2419  0.4421
   27DOPE   H2Y 3389   6.415  -0.804  13.858  1.5378 -0.1140 -1.8300
   27DOPE   C23 3390   6.078  -0.288  13.617  0.0677 -0.1095  0.1339
   27DOPE   H3R 3391   6.118  -0.185  13.625 -0.2821  0.0345  0.0735
   27DOPE   H3S 3392   5.998  -0.286  13.540  0.8012 -0.4909 -0.6391
   27DOPE   C24 3393   6.188  -0.381  13.571  0.3260  0.0063  0.4978
   27DOPE   H4R 3394   6.165  -0.488  13.586  1.2659 -0.1729  0.7466
   27DOPE   H4S 3395   6.286  -0.369  13.624  0.7583  0.1695 -0.3252
   27DOPE   C25 3396   6.227  -0.360  13.426  0.0815 -0.3439 -0.8299
   27DOPE   H5R 3397   6.217  -0.251  13.407  1.3449 -0.1829 -0.6461
   27DOPE   H5S 3398   6.149  -0.413  13.367 -0.4457  0.1451 -0.5758
   27DOPE   C26 3399   6.373  -0.400  13.398 -0.2945  0.0436  0.2228
   27DOPE   H6R 3400   6.392  -0.506  13.426  0.5153 -0.0084 -0.5072
   27DOPE   H6S 3401   6.442  -0.336  13.455 -0.9724 -0.9952  2.3003
   27DOPE   C27 3402   6.415  -0.380  13.247 -0.1394 -0.2001 -0.4143
   27DOPE   H7R 3403   6.521  -0.412  13.242  0.4138  1.5945 -0.7727
   27DOPE   H7S 3404   6.411  -0.271  13.225  1.1223 -0.1257 -0.3497
   27DOPE   C28 3405   6.329  -0.459  13.144  0.3217 -0.4383 -0.7091
   27DOPE   H8R 3406   6.225  -0.420  13.152  0.8280  0.6605  1.0509
   27DOPE   H8S 3407   6.333  -0.565  13.176  2.2521 -0.5107 -1.0668
   27DOPE   C29 3408   6.367  -0.416  13.002  0.7308 -0.2099 -0.3208
   27DOPE   H9R 3409   6.360  -0.309  12.978  4.2172  0.2238 -0.0605
   27DOPE  C210 3410   6.427  -0.494  12.909  0.2649 -0.2017 -0.3240
   27DOPE  H10R 3411   6.456  -0.452  12.811 -2.6645 -1.5639 -1.9293
   27DOPE  C211 3412   6.456  -0.641  12.929  0.3566 -0.6255 -0.3820
   27DOPE  H11R 3413   6.398  -0.682  13.014 -0.7930 -0.1568 -0.9125
   27DOPE  H11S 3414   6.565  -0.656  12.945  0.9679  1.0976 -2.3493
   27DOPE  C212 3415   6.412  -0.724  12.801  0.2067 -0.2580  0.0168
   27DOPE  H12R 3416   6.301  -0.735  12.800  0.0266  1.2144  0.5114
   27DOPE  H12S 3417   6.440  -0.827  12.834  0.2607 -0.3613 -0.3551
   27DOPE  C213 3418   6.469  -0.699  12.661  0.3856  0.7319 -0.3542
   27DOPE  H13R 3419   6.481  -0.797  12.611 -0.8002 -0.1591  1.0419
   27DOPE  H13S 3420   6.570  -0.654  12.672  0.5081 -0.0870  3.4166
   27DOPE  C214 3421   6.383  -0.606  12.575 -0.2756  0.4298  0.0692
   27DOPE  H14R 3422   6.345  -0.520  12.633 -2.2415 -0.8734  0.8082
   27DOPE  H14S 3423   6.292  -0.659  12.539 -0.4098  0.6121  0.1408
   27DOPE  C215 3424   6.448  -0.571  12.445  1.0636 -0.1300  0.1328
   27DOPE  H15R 3425   6.534  -0.502  12.461  0.1238  1.0786  0.1444
   27DOPE  H15S 3426   6.367  -0.512  12.397 -0.8003 -0.1518  3.0186
   27DOPE  C216 3427   6.477  -0.686  12.346 -0.9187  0.4384 -0.8879
   27DOPE  H16R 3428   6.398  -0.764  12.347 -0.4566 -0.0792  1.3561
   27DOPE  H16S 3429   6.570  -0.732  12.386 -0.6094  2.3606  0.7594
   27DOPE  C217 3430   6.513  -0.636  12.201 -0.2677  0.0998  0.1266
   27DOPE  H17R 3431   6.596  -0.563  12.205  1.4253 -1.5390 -2.1611
   27DOPE  H17S 3432   6.422  -0.585  12.162 -1.1168 -0.5745  1.1558
   27DOPE  C218 3433   6.554  -0.744  12.099 -0.8362  0.3191 -0.1035
   27DOPE  H18R 3434   6.585  -0.706  12.000  0.4480 -2.2514 -0.7789
   27DOPE  H18S 3435   6.473  -0.809  12.062 -1.0055  1.3960 -1.6907
   27DOPE  H18T 3436   6.636  -0.808  12.138 -1.0822  0.2897  0.3739
   27DOPE   C33 3437   6.295  -0.790  13.662  0.1719 -0.0215  0.2587
   27DOPE   H3X 3438   6.221  -0.718  13.620 -0.9095 -1.5955 -0.6156
   27DOPE   H3Y 3439   6.230  -0.879  13.674 -0.1908  0.2641  0.4636
   27DOPE   C34 3440   6.407  -0.812  13.562 -0.1684 -0.0149  0.4533
   27DOPE   H4X 3441   6.473  -0.722  13.562  1.7738 -1.3266 -1.9256
   27DOPE   H4Y 3442   6.471  -0.898  13.590 -1.6978 -1.1878  0.5139
   27DOPE   C35 3443   6.350  -0.811  13.414 -0.6159  0.2322  0.2526
   27DOPE   H5X 3444   6.280  -0.726  13.399  1.8501  2.4319  0.4076
   27DOPE   H5Y 3445   6.300  -0.910  13.410  0.4917 -0.7379  4.7687
   27DOPE   C36 3446   6.461  -0.814  13.307 -0.3862 -0.3501  0.4958
   27DOPE   H6X 3447   6.542  -0.742  13.329  0.0673 -1.0483  1.1450
   27DOPE   H6Y 3448   6.419  -0.798  13.206  0.6476  1.2689  0.2883
   27DOPE   C37 3449   6.539  -0.953  13.307 -0.1399  0.0947  0.3565
   27DOPE   H7X 3450   6.614  -0.950  13.389 -0.4503 -0.0991  0.6493
   27DOPE   H7Y 3451   6.464  -1.032  13.328 -0.0759 -0.3200 -0.8592
   27DOPE   C38 3452   6.612  -0.988  13.171  0.0040 -0.0135 -0.2699
   27DOPE   H8X 3453   6.675  -1.074  13.203 -0.7371 -1.2513 -2.0219
   27DOPE   H8Y 3454   6.674  -0.898  13.149 -0.7226  0.7458  0.6488
   27DOPE   C39 3455   6.516  -1.041  13.064  0.3940 -0.3174  0.6041
   27DOPE   H9X 3456   6.418  -1.067  13.106  0.3342  0.7014  1.1275
   27DOPE  C310 3457   6.556  -1.067  12.936  0.0007 -0.9436 -0.4245
   27DOPE  H10X 3458   6.475  -1.102  12.869 -1.8055  1.1130  0.5552
   27DOPE  C311 3459   6.687  -1.017  12.882 -0.0791  0.0349 -0.1135
   27DOPE  H11X 3460   6.727  -0.922  12.925  0.7986  0.7979 -2.4843
   27DOPE  H11Y 3461   6.763  -1.095  12.908 -0.6635 -0.2470  0.8110
   27DOPE  C312 3462   6.696  -0.998  12.726  0.5567 -0.5395  0.1983
   27DOPE  H12X 3463   6.637  -0.908  12.701  0.0790 -1.5139 -2.4747
   27DOPE  H12Y 3464   6.642  -1.081  12.676 -1.0932  0.0558  0.8981
   27DOPE  C313 3465   6.839  -0.980  12.687 -0.0853 -0.2844  0.1822
   27DOPE  H13X 3466   6.887  -0.910  12.760  0.7687 -0.6401 -0.0251
   27DOPE  H13Y 3467   6.892  -1.075  12.709 -0.0971 -0.4580 -0.5232
   27DOPE  C314 3468   6.842  -0.938  12.544 -0.1115 -0.3262  0.1489
   27DOPE  H14X 3469   6.945  -0.899  12.524 -0.3078  0.5776  0.8435
   27DOPE  H14Y 3470   6.765  -0.861  12.521 -2.0001 -1.6992  1.5521
   27DOPE  C315 3471   6.819  -1.052  12.438  0.2676  0.4774  0.0492
   27DOPE  H15X 3472   6.750  -1.131  12.473 -1.5858  1.0060 -2.1532
   27DOPE  H15Y 3473   6.924  -1.087  12.438  1.3694  3.4652  1.1624
   27DOPE  C316 3474   6.800  -1.006  12.301 -0.3142  0.0489 -0.3457
   27DOPE  H16X 3475   6.857  -0.912  12.285 -1.2810  0.5746 -0.7949
   27DOPE  H16Y 3476   6.696  -0.975  12.276 -0.1748 -0.1494 -1.1912
   27DOPE  C317 3477   6.843  -1.107  12.195 -0.6516 -0.4519  0.5397
   27DOPE  H17X 3478   6.933  -1.161  12.231  0.4169 -0.1925 -1.5728
   27DOPE  H17Y 3479   6.763  -1.181  12.174 -0.1074 -0.5298 -1.4810
   27DOPE  C318 3480   6.888  -1.048  12.056 -0.4070 -0.2395 -0.6426
   27DOPE  H18X 3481   6.803  -1.013  11.993 -0.6680 -0.5597 -0.4692
   27DOPE  H18Y 3482   6.951  -0.961  12.083  1.0718 -0.7963 -2.1773
   27DOPE  H18Z 3483   6.944  -1.121  11.995  1.2640 -0.9993  1.6775
   28DOPE     N 3484   0.132   6.196  14.765  0.4692  0.0834  0.3102
   28DOPE   HN1 3485   0.150   6.121  14.835  0.9387 -0.4991 -0.4251
   28DOPE   HN2 3486   0.122   6.154  14.671 -0.4218 -0.3447  0.5919
   28DOPE   HN3 3487   0.216   6.257  14.756  1.7402 -1.7467 -0.9326
   28DOPE   C12 3488   0.006   6.281  14.796 -0.6678  0.6807  0.6200
   28DOPE  H12A 3489   0.026   6.341  14.887  1.9802  0.3386  0.3402
   28DOPE  H12B 3490  -0.073   6.205  14.813 -0.3107  0.5385  1.7027
   28DOPE   C11 3491  -0.036   6.368  14.672 -0.5819 -0.4373  0.4305
   28DOPE  H11A 3492  -0.105   6.446  14.710  0.5533  0.9165 -0.2015
   28DOPE  H11B 3493  -0.088   6.304  14.598 -1.3856  1.1455 -0.4078
   28DOPE     P 3494   0.084   6.517  14.495 -0.0944  0.2878 -0.0640
   28DOPE   O13 3495   0.222   6.582  14.485 -0.1224  0.2902  0.3369
   28DOPE   O14 3496  -0.037   6.605  14.504 -0.1061 -0.1555  0.1570
   28DOPE   O11 3497   0.065   6.407  14.381 -0.5143  0.3898  0.5878
   28DOPE   O12 3498   0.085   6.424  14.618 -0.0875 -0.5860 -0.5060
   28DOPE    C1 3499  -0.053   6.383  14.305 -0.1395 -0.9535 -0.2401
   28DOPE    HA 3500  -0.123   6.468  14.312 -0.9746 -1.7565  2.9445
   28DOPE    HB 3501  -0.102   6.296  14.355 -0.6636 -1.1814 -1.1367
   28DOPE    C2 3502  -0.020   6.366  14.158 -0.0415  0.0885 -0.1018
   28DOPE    HS 3503   0.071   6.302  14.159 -0.5092 -0.6314 -1.3715
   28DOPE   O21 3504   0.011   6.505  14.119 -0.5715 -0.0154  0.2948
   28DOPE   C21 3505   0.132   6.526  14.060  0.1361  0.0732 -0.2611
   28DOPE   O22 3506   0.214   6.444  14.040  0.2932  0.7868  0.1541
   28DOPE   C22 3507   0.143   6.669  14.011  0.6588  0.8277 -0.0205
   28DOPE   H2R 3508   0.156   6.728  14.104 -0.4295 -1.8936  2.0103
   28DOPE   H2S 3509   0.046   6.693  13.962 -0.4256 -2.3659  0.3569
   28DOPE    C3 3510  -0.133   6.301  14.076 -0.5824  0.7768  0.2995
   28DOPE    HX 3511  -0.227   6.346  14.117 -1.5083 -1.9754  1.4678
   28DOPE    HY 3512  -0.150   6.193  14.096  1.1437  0.6751  1.4870
   28DOPE   O31 3513  -0.119   6.332  13.932  1.1207  0.1616 -0.4952
   28DOPE   C31 3514  -0.048   6.254  13.862 -0.6917  0.4071 -0.5206
   28DOPE   O32 3515   0.023   6.163  13.901  0.3811  0.0300 -0.3556
   28DOPE   C32 3516  -0.066   6.287  13.716 -1.1368 -0.4584  0.4549
   28DOPE   H2X 3517  -0.170   6.276  13.679 -1.0277  1.5980 -0.5879
   28DOPE   H2Y 3518  -0.031   6.392  13.705 -0.3244 -0.6158  1.4197
   28DOPE   C23 3519   0.259   6.700  13.917 -0.8509  0.2402 -0.1298
   28DOPE   H3R 3520   0.353   6.652  13.953  0.6959  0.5027 -3.4474
   28DOPE   H3S 3521   0.278   6.809  13.927  0.8570  0.0316 -0.6388
   28DOPE   C24 3522   0.222   6.665  13.774 -0.1466 -0.2466 -0.0563
   28DOPE   H4R 3523   0.124   6.693  13.730  0.3445  0.3999 -0.7642
   28DOPE   H4S 3524   0.230   6.554  13.763  2.3683 -0.3196  1.6858
   28DOPE   C25 3525   0.329   6.729  13.672  0.0117  0.4822 -0.0811
   28DOPE   H5R 3526   0.430   6.726  13.718  0.0117 -1.3591 -0.1092
   28DOPE   H5S 3527   0.303   6.836  13.661  0.4828  0.5278 -0.8775
   28DOPE   C26 3528   0.318   6.658  13.535  0.2670 -0.4215 -0.3072
   28DOPE   H6R 3529   0.351   6.553  13.550 -1.5179 -1.0165 -0.3002
   28DOPE   H6S 3530   0.375   6.712  13.456 -2.0121  3.4873  0.4907
   28DOPE   C27 3531   0.169   6.646  13.485 -0.1743 -0.4382  0.2885
   28DOPE   H7R 3532   0.117   6.744  13.484  1.8746  0.7017 -0.9108
   28DOPE   H7S 3533   0.111   6.583  13.556  2.5435 -2.9190  0.4596
   28DOPE   C28 3534   0.175   6.574  13.350 -0.4377 -0.2320  0.4413
   28DOPE   H8R 3535   0.214   6.472  13.371  0.0535 -0.2048 -0.3178
   28DOPE   H8S 3536   0.249   6.635  13.294  1.6241 -0.9321  2.2255
   28DOPE   C29 3537   0.047   6.561  13.273 -0.2515  0.2757  0.6538
   28DOPE   H9R 3538  -0.047   6.566  13.330  0.5225  0.6766  1.9135
   28DOPE  C210 3539   0.031   6.545  13.139 -0.2128  0.7772  0.4691
   28DOPE  H10R 3540  -0.074   6.541  13.106 -0.7521 -0.9719  2.1947
   28DOPE  C211 3541   0.136   6.534  13.035 -0.9502  0.7759 -0.4638
   28DOPE  H11R 3542   0.164   6.427  13.017 -1.1691  0.7879 -0.8912
   28DOPE  H11S 3543   0.228   6.566  13.088 -0.1341 -0.5999 -0.9834
   28DOPE  C212 3544   0.111   6.596  12.894 -0.6615  0.0395  0.2035
   28DOPE  H12R 3545   0.211   6.619  12.851 -1.7370  1.5490 -1.5941
   28DOPE  H12S 3546   0.057   6.691  12.913  0.0479  0.4800  0.0833
   28DOPE  C213 3547   0.042   6.501  12.807 -0.4959  0.5117 -0.2909
   28DOPE  H13R 3548  -0.061   6.487  12.846 -1.2638  1.5785 -1.8239
   28DOPE  H13S 3549   0.098   6.406  12.808  0.6812  1.1898 -0.3221
   28DOPE  C214 3550   0.043   6.552  12.663  0.3311 -0.2208 -0.1255
   28DOPE  H14R 3551   0.144   6.564  12.618  0.4808  2.2441  0.7527
   28DOPE  H14S 3552  -0.017   6.645  12.653  0.4387 -0.2281 -0.9509
   28DOPE  C215 3553  -0.025   6.458  12.563  0.1705 -0.8098  0.0988
   28DOPE  H15R 3554  -0.125   6.423  12.597  0.3638  0.1448  1.7582
   28DOPE  H15S 3555   0.035   6.368  12.539  1.5759 -0.0452  0.6179
   28DOPE  C216 3556  -0.058   6.528  12.422  0.3456 -0.2435 -0.1909
   28DOPE  H16R 3557  -0.083   6.636  12.433  2.0321  0.1928 -0.3715
   28DOPE  H16S 3558  -0.145   6.468  12.386  1.3723 -0.9043 -1.6599
   28DOPE  C217 3559   0.051   6.504  12.322 -0.1350 -0.3240 -0.0863
   28DOPE  H17R 3560   0.072   6.395  12.316 -0.3708 -0.4589  1.2240
   28DOPE  H17S 3561   0.134   6.574  12.345 -2.0964  1.0682  3.5783
   28DOPE  C218 3562  -0.008   6.536  12.183 -0.0544  0.6610 -0.5101
   28DOPE  H18R 3563   0.075   6.531  12.108  0.0298  1.0536 -0.4469
   28DOPE  H18S 3564  -0.048   6.640  12.186  1.6639  1.3501 -0.1806
   28DOPE  H18T 3565  -0.080   6.459  12.149 -0.2868 -0.0012  1.3940
   28DOPE   C33 3566   0.039   6.199  13.638 -0.5376 -0.2039 -0.4732
   28DOPE   H3X 3567   0.020   6.091  13.654  1.4171 -0.3464  1.1420
   28DOPE   H3Y 3568   0.144   6.209  13.672 -0.3818 -1.4824 -0.5396
   28DOPE   C34 3569   0.035   6.215  13.490  0.2336  0.2026  0.9956
   28DOPE   H4X 3570  -0.069   6.208  13.451  1.4972 -0.6731 -2.5995
   28DOPE   H4Y 3571   0.084   6.308  13.452 -0.0033  0.1219  0.4824
   28DOPE   C35 3572   0.111   6.103  13.413 -0.3297 -0.0368  0.7899
   28DOPE   H5X 3573   0.081   6.000  13.439  0.6313  0.0558  2.3853
   28DOPE   H5Y 3574   0.215   6.124  13.448 -0.6796 -0.8060  2.3490
   28DOPE   C36 3575   0.093   6.132  13.257 -0.6823  0.3451 -0.0398
   28DOPE   H6X 3576   0.132   6.233  13.234  2.3695 -1.0827 -1.6538
   28DOPE   H6Y 3577  -0.016   6.127  13.237 -0.9395  1.9969  0.7367
   28DOPE   C37 3578   0.170   6.030  13.170 -0.2397  0.3875  0.2397
   28DOPE   H7X 3579   0.272   6.031  13.213  0.4490 -0.9953 -1.2702
   28DOPE   H7Y 3580   0.131   5.926  13.183  2.1658 -0.3745  2.2571
   28DOPE   C38 3581   0.166   6.073  13.025  0.8579  0.4019  0.2016
   28DOPE   H8X 3582   0.070   6.119  12.995 -0.1305 -0.7703  1.4492
   28DOPE   H8Y 3583   0.179   5.978  12.969 -0.6090 -0.2516  0.9257
   28DOPE   C39 3584   0.269   6.175  12.991 -0.1868  0.5614 -0.5310
   28DOPE   H9X 3585   0.310   6.237  13.072  0.4429  0.1500 -0.5288
   28DOPE  C310 3586   0.321   6.207  12.873 -0.4153 -0.2187 -0.4000
   28DOPE  H10X 3587   0.419   6.256  12.873  0.5623 -1.8210  3.2581
   28DOPE  C311 3588   0.289   6.133  12.741  0.2752 -0.5077 -0.2549
   28DOPE  H11X 3589   0.320   6.026  12.736 -1.1867 -0.9567 -0.0047
   28DOPE  H11Y 3590   0.180   6.134  12.720  0.0491  2.9623  0.4982
   28DOPE  C312 3591   0.356   6.205  12.622  0.1525  0.1726 -0.3669
   28DOPE  H12X 3592   0.465   6.188  12.626  0.1461  0.2921  3.4323
   28DOPE  H12Y 3593   0.324   6.312  12.626  0.6310  0.2937  2.2434
   28DOPE  C313 3594   0.295   6.148  12.495 -0.7745  0.2883 -0.1228
   28DOPE  H13X 3595   0.308   6.039  12.482  0.1447  0.5569 -1.7496
   28DOPE  H13Y 3596   0.186   6.152  12.515 -1.1049 -4.8023  0.3533
   28DOPE  C314 3597   0.328   6.230  12.371  0.5219  0.1637 -0.2973
   28DOPE  H14X 3598   0.438   6.247  12.369  0.6929 -0.7929  0.3222
   28DOPE  H14Y 3599   0.283   6.330  12.384 -1.9912 -0.9468  0.2097
   28DOPE  C315 3600   0.280   6.167  12.236  0.3979 -0.2346  0.2367
   28DOPE  H15X 3601   0.169   6.179  12.234  0.4559  0.9924  1.9669
   28DOPE  H15Y 3602   0.299   6.059  12.223 -0.9647 -0.5131  0.3752
   28DOPE  C316 3603   0.339   6.255  12.124  0.0608  0.5646  0.6703
   28DOPE  H16X 3604   0.345   6.362  12.153  1.4693  0.3140  1.3895
   28DOPE  H16Y 3605   0.269   6.264  12.038  0.9712  0.6942 -0.0771
   28DOPE  C317 3606   0.468   6.212  12.082 -0.8944 -0.6280  1.0024
   28DOPE  H17X 3607   0.527   6.302  12.054 -2.4022  0.1308  0.1512
   28DOPE  H17Y 3608   0.523   6.163  12.165  1.8101 -0.9592 -0.8352
   28DOPE  C318 3609   0.479   6.110  11.969  0.4207 -0.2310  0.2233
   28DOPE  H18X 3610   0.585   6.102  11.936  1.1774 -0.3920  2.5391
   28DOPE  H18Y 3611   0.457   6.007  12.002  1.9739 -1.0843 -1.2346
   28DOPE  H18Z 3612   0.417   6.148  11.885  1.8464  0.2915 -0.6312
   29DOPE     N 3613   1.247   0.344  14.223 -0.9833  0.8086 -0.2335
   29DOPE   HN1 3614   1.188   0.311  14.302 -1.1076  1.5657 -0.0028
   29DOPE   HN2 3615   1.179   0.379  14.153 -0.0458  0.8378 -1.1388
   29DOPE   HN3 3616   1.288   0.251  14.202 -1.6742 -0.4131  3.1377
   29DOPE   C12 3617   1.336   0.447  14.271 -0.5088  0.0102  0.8044
   29DOPE  H12A 3618   1.422   0.396  14.319  0.5473  1.4209  0.5062
   29DOPE  H12B 3619   1.284   0.514  14.343  0.3214  0.9139  0.5972
   29DOPE   C11 3620   1.381   0.536  14.148 -0.2345 -0.1501  0.2200
   29DOPE  H11A 3621   1.292   0.581  14.098 -0.0054 -1.0249 -1.0425
   29DOPE  H11B 3622   1.424   0.467  14.072  1.7299  1.9877 -0.7200
   29DOPE     P 3623   1.443   0.778  14.229  0.3005 -0.0687  0.2453
   29DOPE   O13 3624   1.557   0.849  14.292 -0.3486  0.5159 -0.9781
   29DOPE   O14 3625   1.316   0.774  14.309  0.4777  0.5397  0.6668
   29DOPE   O11 3626   1.420   0.854  14.088 -0.2941 -0.2882 -0.4877
   29DOPE   O12 3627   1.481   0.630  14.182 -0.1146 -0.1669  0.0606
   29DOPE    C1 3628   1.499   0.845  13.967 -0.0057  0.0721 -0.0707
   29DOPE    HA 3629   1.444   0.891  13.882  1.8391 -3.1841 -3.3011
   29DOPE    HB 3630   1.512   0.737  13.947 -0.2978  0.2542 -1.3577
   29DOPE    C2 3631   1.638   0.909  13.964  0.4978  0.2269 -0.7662
   29DOPE    HS 3632   1.704   0.865  14.042  0.8497  1.4292 -0.3659
   29DOPE   O21 3633   1.629   1.052  13.972 -0.0864 -0.2966 -0.5110
   29DOPE   C21 3634   1.737   1.121  13.987  1.0269  0.1313  0.0011
   29DOPE   O22 3635   1.844   1.077  14.026 -0.2678 -0.1952  0.6621
   29DOPE   C22 3636   1.718   1.263  13.941 -0.3697 -0.1658 -0.5789
   29DOPE   H2R 3637   1.655   1.301  14.024 -1.4955 -1.2407 -0.9102
   29DOPE   H2S 3638   1.671   1.264  13.840 -0.9797  1.7660 -0.3260
   29DOPE    C3 3639   1.711   0.859  13.835  1.1644  0.2568 -0.3347
   29DOPE    HX 3640   1.717   0.749  13.846 -1.0933  0.2592  1.6846
   29DOPE    HY 3641   1.815   0.900  13.837  1.4643 -0.5037  1.8757
   29DOPE   O31 3642   1.647   0.901  13.714 -0.0783  0.4499 -0.2612
   29DOPE   C31 3643   1.733   0.876  13.605  0.1172 -0.0408 -0.1978
   29DOPE   O32 3644   1.847   0.838  13.621 -0.1177 -0.1040 -0.0782
   29DOPE   C32 3645   1.671   0.921  13.479  0.2271 -0.1758  0.8955
   29DOPE   H2X 3646   1.577   0.863  13.470 -1.0570  1.9094  0.2863
   29DOPE   H2Y 3647   1.637   1.026  13.491  1.4564  0.4431 -0.7189
   29DOPE   C23 3648   1.855   1.350  13.941  1.2133  0.6960 -0.3191
   29DOPE   H3R 3649   1.933   1.289  13.889 -0.3771 -0.5446 -1.3556
   29DOPE   H3S 3650   1.889   1.361  14.046  0.8104 -0.3458 -0.0598
   29DOPE   C24 3651   1.857   1.484  13.872  0.4526  0.2473  0.2067
   29DOPE   H4R 3652   1.962   1.518  13.869  0.6432 -0.3631 -0.3368
   29DOPE   H4S 3653   1.804   1.545  13.948  0.7886 -0.2105  0.8228
   29DOPE   C25 3654   1.788   1.499  13.736  0.5777  0.1962 -1.0444
   29DOPE   H5R 3655   1.791   1.606  13.707 -1.3515  0.1224 -1.6837
   29DOPE   H5S 3656   1.683   1.463  13.729  1.2520 -2.2207  0.2765
   29DOPE   C26 3657   1.864   1.415  13.630  0.1871  0.2948 -0.6677
   29DOPE   H6R 3658   1.892   1.309  13.648 -0.3945 -0.0338 -1.6225
   29DOPE   H6S 3659   1.959   1.469  13.613 -0.5239  1.6151 -0.5922
   29DOPE   C27 3660   1.782   1.411  13.497  0.4543  0.3828  0.1044
   29DOPE   H7R 3661   1.745   1.513  13.474 -2.7418 -1.0795 -1.8350
   29DOPE   H7S 3662   1.693   1.348  13.515  1.8022 -1.3432  1.0525
   29DOPE   C28 3663   1.867   1.372  13.376  0.2545  0.1161  0.5141
   29DOPE   H8R 3664   1.939   1.297  13.414 -0.2897 -1.4821 -1.4478
   29DOPE   H8S 3665   1.921   1.458  13.332  0.4593 -1.5508 -2.8283
   29DOPE   C29 3666   1.784   1.292  13.278 -0.5139  0.1726  0.6719
   29DOPE   H9R 3667   1.702   1.230  13.316 -0.9932 -1.1433 -2.2690
   29DOPE  C210 3668   1.805   1.303  13.142 -0.4014 -0.3177  0.1172
   29DOPE  H10R 3669   1.736   1.250  13.075  0.7371  0.0056 -1.3404
   29DOPE  C211 3670   1.910   1.386  13.069  0.5645 -0.2915 -0.4103
   29DOPE  H11R 3671   1.982   1.432  13.140  0.1474  1.6893 -1.2026
   29DOPE  H11S 3672   1.863   1.473  13.019  3.8508  1.3899 -0.8635
   29DOPE  C212 3673   1.978   1.317  12.957 -0.4964 -0.2135 -0.1256
   29DOPE  H12R 3674   2.061   1.253  12.995  1.2274  1.8465 -0.2346
   29DOPE  H12S 3675   2.030   1.391  12.893 -3.1966  1.8256 -0.0999
   29DOPE  C213 3676   1.883   1.227  12.880 -1.1319 -0.4839  0.0971
   29DOPE  H13R 3677   1.807   1.298  12.842 -0.8486 -0.3463 -0.2236
   29DOPE  H13S 3678   1.838   1.141  12.934 -3.2560  0.5863  0.1217
   29DOPE  C214 3679   1.957   1.174  12.758  0.4897  0.7589  0.2429
   29DOPE  H14R 3680   2.035   1.096  12.773 -2.0141 -1.5546  2.2278
   29DOPE  H14S 3681   2.011   1.261  12.714 -1.4944  2.2097  0.5549
   29DOPE  C215 3682   1.859   1.125  12.649  0.1534  0.3615 -0.5381
   29DOPE  H15R 3683   1.783   1.204  12.631 -0.9039 -0.2512  1.0337
   29DOPE  H15S 3684   1.803   1.035  12.682 -0.7914  0.7424 -1.0530
   29DOPE  C216 3685   1.934   1.072  12.530  0.6785 -0.5715  0.1967
   29DOPE  H16R 3686   2.009   0.993  12.554 -0.4799 -2.2546 -1.4292
   29DOPE  H16S 3687   1.991   1.155  12.483 -1.8902  1.1677 -0.0215
   29DOPE  C217 3688   1.845   1.013  12.417 -0.5994  0.1529  0.3226
   29DOPE  H17R 3689   1.748   1.066  12.402  0.1769  1.9371  1.2304
   29DOPE  H17S 3690   1.814   0.916  12.460 -1.3284  0.3503  0.2491
   29DOPE  C218 3691   1.907   0.980  12.286 -0.3182  0.1145 -0.8923
   29DOPE  H18R 3692   1.991   0.907  12.293 -1.1749 -0.7742  0.9318
   29DOPE  H18S 3693   1.964   1.068  12.249 -3.1062  1.6357 -1.8181
   29DOPE  H18T 3694   1.833   0.938  12.214 -0.7056 -1.6128  0.4384
   29DOPE   C33 3695   1.758   0.904  13.348  0.0733 -0.0978  0.7610
   29DOPE   H3X 3696   1.823   0.814  13.357 -1.8569 -1.7036 -0.4925
   29DOPE   H3Y 3697   1.826   0.991  13.338  0.4432 -0.3982  0.6353
   29DOPE   C34 3698   1.671   0.878  13.231 -0.8446  0.0700 -0.4977
   29DOPE   H4X 3699   1.601   0.794  13.249 -1.6291  0.8224  0.0721
   29DOPE   H4Y 3700   1.606   0.967  13.215  0.6416  1.4178  0.6398
   29DOPE   C35 3701   1.752   0.844  13.107  0.3923 -0.5311  0.0377
   29DOPE   H5X 3702   1.829   0.764  13.111  2.7724  1.5421 -1.4380
   29DOPE   H5Y 3703   1.807   0.936  13.077 -0.7013  0.2061  0.2324
   29DOPE   C36 3704   1.652   0.804  12.995  0.0026 -1.1305  0.2744
   29DOPE   H6X 3705   1.584   0.891  12.978  1.5330 -0.1892 -1.5495
   29DOPE   H6Y 3706   1.580   0.726  13.025 -1.5878 -0.1180 -0.7424
   29DOPE   C37 3707   1.724   0.778  12.862 -0.8731 -0.3517 -0.0122
   29DOPE   H7X 3708   1.799   0.858  12.848  1.1171 -2.3608 -1.5339
   29DOPE   H7Y 3709   1.780   0.682  12.865  0.3346  0.3367 -0.2067
   29DOPE   C38 3710   1.637   0.772  12.730  0.5933 -0.0990 -0.6891
   29DOPE   H8X 3711   1.695   0.807  12.641 -0.7797 -0.9026 -1.9410
   29DOPE   H8Y 3712   1.555   0.847  12.729  1.8373  1.3334 -2.2261
   29DOPE   C39 3713   1.594   0.632  12.692 -0.1844  0.0691  0.2332
   29DOPE   H9X 3714   1.532   0.592  12.774 -0.9000  1.6895  0.5403
   29DOPE  C310 3715   1.636   0.561  12.585 -0.4366 -0.2909 -0.3480
   29DOPE  H10X 3716   1.600   0.458  12.569  0.0946 -0.4012 -0.9004
   29DOPE  C311 3717   1.717   0.601  12.465 -0.3982 -0.1438  0.2832
   29DOPE  H11X 3718   1.804   0.658  12.503 -0.5886 -1.7556  3.4382
   29DOPE  H11Y 3719   1.762   0.510  12.418  1.7930  2.0321 -2.1488
   29DOPE  C312 3720   1.661   0.684  12.355  0.0908  0.0092 -0.5185
   29DOPE  H12X 3721   1.739   0.714  12.281 -0.2516 -0.0891 -0.9171
   29DOPE  H12Y 3722   1.611   0.780  12.381 -0.9957 -0.5589 -0.5017
   29DOPE  C313 3723   1.547   0.605  12.292 -0.3400 -0.2980 -0.6841
   29DOPE  H13X 3724   1.581   0.504  12.262 -0.1209 -0.7189  0.8529
   29DOPE  H13Y 3725   1.469   0.580  12.367 -0.7894 -1.1429 -1.4085
   29DOPE  C314 3726   1.496   0.695  12.177  0.6143  0.4111 -0.7080
   29DOPE  H14X 3727   1.582   0.710  12.107  0.8516  0.7024 -0.3604
   29DOPE  H14Y 3728   1.465   0.797  12.205  0.8076  0.0184  1.0374
   29DOPE  C315 3729   1.375   0.632  12.098  0.2793  0.1405  0.4058
   29DOPE  H15X 3730   1.285   0.661  12.158 -0.5001  0.0755 -0.7075
   29DOPE  H15Y 3731   1.386   0.523  12.109 -0.2278  0.1442  1.0297
   29DOPE  C316 3732   1.356   0.678  11.958  0.2836 -0.4728  0.2617
   29DOPE  H16X 3733   1.272   0.626  11.908 -0.0086  1.1018 -0.9473
   29DOPE  H16Y 3734   1.453   0.663  11.905  0.5352  0.4739  0.4350
   29DOPE  C317 3735   1.343   0.831  11.950  0.0323  0.0774 -1.2760
   29DOPE  H17X 3736   1.262   0.867  12.016  1.4210 -0.0203  0.5625
   29DOPE  H17Y 3737   1.430   0.884  11.995 -0.0863 -1.0288  0.3493
   29DOPE  C318 3738   1.317   0.886  11.805 -0.7508  0.2836  1.1304
   29DOPE  H18X 3739   1.283   0.991  11.809 -0.6108  0.2960  3.5139
   29DOPE  H18Y 3740   1.410   0.880  11.744 -0.0751 -1.4872  2.2346
   29DOPE  H18Z 3741   1.237   0.826  11.757 -1.7694  0.7824  2.1661
   30DOPE     N 3742   0.438   6.417  14.447 -0.2551 -0.3903 -0.1763
   30DOPE   HN1 3743   0.524   6.460  14.484 -0.8842  3.7757 -2.8901
   30DOPE   HN2 3744   0.361   6.477  14.484 -0.1446 -0.6814  0.5425
   30DOPE   HN3 3745   0.433   6.324  14.494 -1.3992 -0.3233 -0.1336
   30DOPE   C12 3746   0.431   6.417  14.295  0.7828 -0.1751  0.0749
   30DOPE  H12A 3747   0.329   6.379  14.273  0.4090  0.3610  0.8440
   30DOPE  H12B 3748   0.510   6.349  14.257 -0.1828 -0.2317 -2.0006
   30DOPE   C11 3749   0.448   6.558  14.243  1.0786 -0.6768 -0.1520
   30DOPE  H11A 3750   0.352   6.606  14.271  1.2545  0.2149 -1.0258
   30DOPE  H11B 3751   0.438   6.563  14.132  1.3160  0.4978 -0.1361
   30DOPE     P 3752   0.575   6.785  14.253 -0.2737  0.2492 -0.1991
   30DOPE   O13 3753   0.656   6.855  14.352  0.0531 -0.7012 -0.0330
   30DOPE   O14 3754   0.438   6.837  14.234  0.4116  0.3499  0.2965
   30DOPE   O11 3755   0.646   6.790  14.113  0.3200 -0.1582  0.0058
   30DOPE   O12 3756   0.569   6.628  14.283 -0.2665 -0.0313  0.1798
   30DOPE    C1 3757   0.600   6.881  14.007  0.2167 -0.2873 -0.0762
   30DOPE    HA 3758   0.490   6.879  13.999  0.1935  1.9210 -1.1267
   30DOPE    HB 3759   0.631   6.836  13.910 -1.8341  0.5658 -1.1847
   30DOPE    C2 3760   0.646   7.028  14.019  0.2903 -0.5196  0.6093
   30DOPE    HS 3761   0.606   7.082  14.108  0.0257 -1.7584  1.2614
   30DOPE   O21 3762   0.613   7.104  13.904  0.7781  0.2595 -0.1488
   30DOPE   C21 3763   0.482   7.131  13.881 -0.2163  0.2521 -0.0538
   30DOPE   O22 3764   0.396   7.109  13.963  0.1090 -0.2888  0.2039
   30DOPE   C22 3765   0.466   7.193  13.740 -0.8101  0.0171 -0.1409
   30DOPE   H2R 3766   0.522   7.288  13.729 -2.7403  1.1130 -1.0489
   30DOPE   H2S 3767   0.358   7.214  13.723 -0.6534  0.4295 -0.6387
   30DOPE    C3 3768   0.799   7.041  14.040  0.2579  0.3016 -0.4685
   30DOPE    HX 3769   0.815   6.986  14.135  0.8636 -0.3743 -0.9520
   30DOPE    HY 3770   0.824   7.148  14.048  0.6352  0.1940 -0.1761
   30DOPE   O31 3771   0.866   6.973  13.930 -0.4684  0.7287 -1.1472
   30DOPE   C31 3772   1.004   6.984  13.938  0.1194  0.9026 -0.2228
   30DOPE   O32 3773   1.062   7.055  14.014  0.5797 -0.0564  0.9229
   30DOPE   C32 3774   1.054   6.886  13.821  0.3052  0.1875 -0.3770
   30DOPE   H2X 3775   1.004   6.790  13.849 -1.3378  1.3562  0.8607
   30DOPE   H2Y 3776   1.010   6.929  13.728  0.8622  0.9228 -0.3034
   30DOPE   C23 3777   0.527   7.116  13.614  0.0081  0.1793 -0.3359
   30DOPE   H3R 3778   0.517   7.007  13.634  0.3370  0.1943 -0.0765
   30DOPE   H3S 3779   0.635   7.142  13.604 -0.1175  0.8663  0.0247
   30DOPE   C24 3780   0.459   7.135  13.480  0.2213 -0.5634 -0.0406
   30DOPE   H4R 3781   0.472   7.244  13.459  0.3254 -0.0469  2.3965
   30DOPE   H4S 3782   0.350   7.117  13.473 -0.0190  0.7837 -0.0145
   30DOPE   C25 3783   0.531   7.059  13.368 -0.2079 -0.7152 -0.0190
   30DOPE   H5R 3784   0.507   6.951  13.385  0.4534 -0.7199  0.9933
   30DOPE   H5S 3785   0.639   7.084  13.373 -0.5267  0.7068  0.2181
   30DOPE   C26 3786   0.485   7.099  13.225 -0.0307 -0.0527 -0.0112
   30DOPE   H6R 3787   0.514   7.206  13.211 -1.5567  0.5950  1.3376
   30DOPE   H6S 3788   0.375   7.088  13.209  0.1220 -1.6106 -0.0953
   30DOPE   C27 3789   0.556   7.007  13.130 -0.3766 -0.3117  0.1920
   30DOPE   H7R 3790   0.507   6.909  13.147  0.3705 -0.8628 -0.7002
   30DOPE   H7S 3791   0.664   7.000  13.156 -0.8675 -2.4935  2.0005
   30DOPE   C28 3792   0.531   7.050  12.984  0.6571 -0.6809  0.2499
   30DOPE   H8R 3793   0.422   7.053  12.965  0.8713 -1.9796 -1.3176
   30DOPE   H8S 3794   0.573   6.969  12.922  1.9350 -0.2519  0.5207
   30DOPE   C29 3795   0.593   7.181  12.940 -0.2859 -0.7379 -0.2453
   30DOPE   H9R 3796   0.625   7.249  13.020  0.9015  0.2069 -1.4656
   30DOPE  C210 3797   0.585   7.226  12.807 -0.2180 -0.7796 -0.5100
   30DOPE  H10R 3798   0.641   7.315  12.775 -0.5883 -1.3007 -2.8199
   30DOPE  C211 3799   0.536   7.157  12.682 -1.0097 -1.4884 -0.3413
   30DOPE  H11R 3800   0.444   7.206  12.642  0.7183  2.0489 -0.4196
   30DOPE  H11S 3801   0.520   7.053  12.715 -2.8240 -1.4304 -0.9388
   30DOPE  C212 3802   0.646   7.137  12.576  0.2492  0.0607  0.5297
   30DOPE  H12R 3803   0.731   7.095  12.635  0.6827  0.1810  0.0034
   30DOPE  H12S 3804   0.684   7.236  12.542  0.4375  0.4737  1.9020
   30DOPE  C213 3805   0.601   7.048  12.457  0.3136 -0.1637 -0.6904
   30DOPE  H13R 3806   0.518   6.992  12.507  1.1551 -0.5345  0.3427
   30DOPE  H13S 3807   0.686   6.982  12.426  0.9357  0.5351 -0.4950
   30DOPE  C214 3808   0.564   7.141  12.338 -0.7295  0.6387  0.4877
   30DOPE  H14R 3809   0.661   7.182  12.301 -0.7567  0.4136  0.1604
   30DOPE  H14S 3810   0.510   7.232  12.371 -0.5985  1.4510 -1.4168
   30DOPE  C215 3811   0.490   7.068  12.221  0.1544  0.0487 -0.9611
   30DOPE  H15R 3812   0.406   7.008  12.262 -1.3274  2.0392 -0.9610
   30DOPE  H15S 3813   0.574   7.008  12.178  1.1540  1.4443 -1.0373
   30DOPE  C216 3814   0.435   7.149  12.099  0.4226 -0.6414 -0.7724
   30DOPE  H16R 3815   0.519   7.214  12.067 -0.5243  0.2774 -1.4975
   30DOPE  H16S 3816   0.353   7.219  12.127  1.8261  0.5431  0.5978
   30DOPE  C217 3817   0.394   7.056  11.988 -0.1428  0.3441 -0.0183
   30DOPE  H17R 3818   0.324   6.975  12.017  1.2518 -1.1397 -0.6522
   30DOPE  H17S 3819   0.485   6.994  11.971 -0.3455 -0.5234  1.8143
   30DOPE  C218 3820   0.368   7.118  11.849  0.0179  0.3468  0.0736
   30DOPE  H18R 3821   0.294   7.201  11.859  0.7028  0.9532  0.1561
   30DOPE  H18S 3822   0.323   7.041  11.783  0.5060 -0.2060  0.3801
   30DOPE  H18T 3823   0.459   7.148  11.793  0.4621 -1.0381  0.0272
   30DOPE   C33 3824   1.207   6.878  13.818  0.9501 -0.6599 -0.6577
   30DOPE   H3X 3825   1.255   6.850  13.914 -0.8738  1.1603  0.8916
   30DOPE   H3Y 3826   1.245   6.977  13.782 -0.1916 -1.0663 -3.1912
   30DOPE   C34 3827   1.269   6.781  13.717  0.7722 -0.0786 -0.1099
   30DOPE   H4X 3828   1.234   6.812  13.616  2.0724  3.0860  0.2889
   30DOPE   H4Y 3829   1.375   6.812  13.721  0.5956  0.9686 -2.1518
   30DOPE   C35 3830   1.259   6.627  13.734 -0.2736  0.0404 -0.3503
   30DOPE   H5X 3831   1.154   6.591  13.743  0.4213 -2.1137 -0.3988
   30DOPE   H5Y 3832   1.301   6.599  13.833 -1.4343  0.3764  0.2617
   30DOPE   C36 3833   1.326   6.549  13.620  0.5727  0.5184 -0.0620
   30DOPE   H6X 3834   1.363   6.455  13.665  1.3664  0.8969  0.1004
   30DOPE   H6Y 3835   1.421   6.604  13.599  1.4713 -0.1994  1.8835
   30DOPE   C37 3836   1.240   6.533  13.497  0.5232  0.1959 -0.3476
   30DOPE   H7X 3837   1.260   6.439  13.443  0.7613  0.9954 -1.6932
   30DOPE   H7Y 3838   1.134   6.522  13.531  0.8709  0.7360  0.9957
   30DOPE   C38 3839   1.244   6.650  13.392  0.0712 -0.5987  0.2015
   30DOPE   H8X 3840   1.195   6.741  13.433  0.2013 -0.6335  0.4382
   30DOPE   H8Y 3841   1.174   6.608  13.317 -0.7889 -0.7396  1.0718
   30DOPE   C39 3842   1.387   6.671  13.338 -0.0800 -0.7390  0.3964
   30DOPE   H9X 3843   1.460   6.727  13.397 -0.6039  0.1248  0.2376
   30DOPE  C310 3844   1.428   6.645  13.216 -0.2515  0.7604 -0.2769
   30DOPE  H10X 3845   1.523   6.689  13.182 -1.4412  2.4166 -1.6618
   30DOPE  C311 3846   1.350   6.559  13.120  1.0383  0.0888 -0.3235
   30DOPE  H11X 3847   1.334   6.458  13.162  3.5382  0.1740  1.0557
   30DOPE  H11Y 3848   1.251   6.608  13.107 -0.1207 -2.4049 -1.3911
   30DOPE  C312 3849   1.409   6.553  12.981 -0.5140 -0.0688  0.0797
   30DOPE  H12X 3850   1.499   6.489  12.989 -0.7944 -0.3132  1.5831
   30DOPE  H12Y 3851   1.423   6.655  12.938  2.5229  0.6329  2.3945
   30DOPE  C313 3852   1.322   6.473  12.882  0.3041 -1.1042 -0.7512
   30DOPE  H13X 3853   1.315   6.369  12.920 -0.7533 -1.0860 -0.8677
   30DOPE  H13Y 3854   1.223   6.522  12.872  1.1867  0.8835 -0.3612
   30DOPE  C314 3855   1.378   6.462  12.745 -0.2875  0.3290 -0.3610
   30DOPE  H14X 3856   1.486   6.436  12.755 -0.6639 -1.1088  0.1991
   30DOPE  H14Y 3857   1.373   6.568  12.712 -0.6813  0.2093 -0.6933
   30DOPE  C315 3858   1.305   6.374  12.644  0.6179 -0.2858  0.3490
   30DOPE  H15X 3859   1.201   6.414  12.644  0.5677 -0.3638  1.7474
   30DOPE  H15Y 3860   1.295   6.270  12.682 -2.6406 -0.3304 -0.3573
   30DOPE  C316 3861   1.371   6.385  12.508 -0.2633  0.1033 -0.0232
   30DOPE  H16X 3862   1.482   6.393  12.510 -0.3349  1.5150 -0.5995
   30DOPE  H16Y 3863   1.328   6.480  12.468 -0.4492  0.8242  1.8217
   30DOPE  C317 3864   1.333   6.274  12.411  0.1733 -0.0735  0.9715
   30DOPE  H17X 3865   1.357   6.187  12.475  0.5243 -0.1072  0.7977
   30DOPE  H17Y 3866   1.229   6.288  12.373  0.6746 -0.5675 -0.6887
   30DOPE  C318 3867   1.421   6.270  12.284 -0.8279  0.2064 -0.1168
   30DOPE  H18X 3868   1.421   6.180  12.219 -1.2846  0.8261 -0.9989
   30DOPE  H18Y 3869   1.379   6.349  12.218 -3.8377 -1.3165 -0.2241
   30DOPE  H18Z 3870   1.528   6.274  12.313 -0.7559 -1.1866 -0.1178
   31DOPE     N 3871   3.856   2.539   9.315  0.2694  0.2301  0.2578
   31DOPE   HN1 3872   3.919   2.499   9.242 -1.5177 -4.0840  0.7425
   31DOPE   HN2 3873   3.764   2.550   9.268  1.7271  0.2770 -2.8609
   31DOPE   HN3 3874   3.899   2.633   9.329  1.5702 -0.1664 -0.8144
   31DOPE   C12 3875   3.865   2.453   9.438  0.0274  0.5610 -0.7303
   31DOPE  H12A 3876   3.974   2.438   9.453  0.0068 -1.0575 -1.9618
   31DOPE  H12B 3877   3.822   2.355   9.410 -0.8181  1.2796 -2.0509
   31DOPE   C11 3878   3.776   2.511   9.548  0.5620 -0.5819 -0.5877
   31DOPE  H11A 3879   3.764   2.442   9.634 -0.5022  0.7145  0.3643
   31DOPE  H11B 3880   3.670   2.522   9.517 -0.5358 -2.0813  2.2557
   31DOPE     P 3881   3.908   2.649   9.720  0.0142 -0.1359  0.0528
   31DOPE   O13 3882   3.927   2.792   9.746  0.4143 -1.0544 -0.2154
   31DOPE   O14 3883   4.036   2.583   9.693 -0.2538  0.2171  0.2952
   31DOPE   O11 3884   3.829   2.579   9.844  0.1892  0.0599  0.3451
   31DOPE   O12 3885   3.821   2.643   9.586 -0.6122 -0.0458 -0.8698
   31DOPE    C1 3886   3.700   2.619   9.882 -0.5151  0.9417  0.9321
   31DOPE    HA 3887   3.632   2.624   9.795 -2.2030 -0.9680  2.0405
   31DOPE    HB 3888   3.695   2.719   9.930 -2.2599  0.7871  1.1519
   31DOPE    C2 3889   3.632   2.511   9.971 -0.7405  0.2214 -0.6274
   31DOPE    HS 3890   3.541   2.551  10.021  0.9369  3.6446  0.0107
   31DOPE   O21 3891   3.724   2.472  10.081  0.3490  0.0407  0.5974
   31DOPE   C21 3892   3.747   2.566  10.168  0.6505 -1.1823 -0.3414
   31DOPE   O22 3893   3.694   2.674  10.169  0.0793 -0.2287 -0.1633
   31DOPE   C22 3894   3.839   2.522  10.284 -0.0990  0.5582  0.6265
   31DOPE   H2R 3895   3.888   2.619  10.305  1.6219 -0.0001 -0.5817
   31DOPE   H2S 3896   3.918   2.452  10.247  0.6627  2.3568 -1.3500
   31DOPE    C3 3897   3.591   2.399   9.883 -0.1071  0.5640 -0.5727
   31DOPE    HX 3898   3.669   2.363   9.813  0.0626  0.3464 -0.2743
   31DOPE    HY 3899   3.507   2.440   9.824 -0.5516 -0.3441 -0.5746
   31DOPE   O31 3900   3.555   2.280   9.959 -0.7292 -0.2369  0.0332
   31DOPE   C31 3901   3.446   2.287  10.028  0.3988  0.1133  0.0061
   31DOPE   O32 3902   3.367   2.378  10.024 -0.5775 -0.0228 -0.1410
   31DOPE   C32 3903   3.427   2.158  10.113  0.4646  0.0836  0.0301
   31DOPE   H2X 3904   3.328   2.165  10.162 -0.5639 -1.5814 -1.7037
   31DOPE   H2Y 3905   3.414   2.064  10.055  1.0812  0.3585 -0.5693
   31DOPE   C23 3906   3.769   2.463  10.405  0.2994  0.0467  0.1719
   31DOPE   H3R 3907   3.753   2.355  10.389  2.1178 -0.3193  0.6363
   31DOPE   H3S 3908   3.673   2.516  10.422  1.4508  2.0666  0.7311
   31DOPE   C24 3909   3.834   2.502  10.536  0.2371 -0.4846 -0.6664
   31DOPE   H4R 3910   3.842   2.611  10.555  2.2580 -0.7567  0.3075
   31DOPE   H4S 3911   3.941   2.473  10.545  0.1261 -1.0086 -1.0022
   31DOPE   C25 3912   3.770   2.437  10.665 -0.1143 -0.0717 -0.4045
   31DOPE   H5R 3913   3.767   2.328  10.646 -3.1439 -0.0056 -0.8742
   31DOPE   H5S 3914   3.664   2.470  10.672  0.4751  1.9623 -0.2948
   31DOPE   C26 3915   3.829   2.467  10.805 -0.5907  0.1951 -0.4550
   31DOPE   H6R 3916   3.938   2.445  10.804 -1.0355 -2.1957 -0.7809
   31DOPE   H6S 3917   3.795   2.401  10.887  1.4956  1.0191  1.1689
   31DOPE   C27 3918   3.799   2.608  10.845 -0.5123 -0.9822  0.9212
   31DOPE   H7R 3919   3.695   2.625  10.880 -0.1755  0.5812  1.2171
   31DOPE   H7S 3920   3.817   2.673  10.756 -0.8161 -2.1470 -0.0187
   31DOPE   C28 3921   3.892   2.657  10.955  0.4926  0.2667 -0.5140
   31DOPE   H8R 3922   3.993   2.689  10.922  1.8206 -1.1196  1.9026
   31DOPE   H8S 3923   3.916   2.573  11.024  0.7177  1.6183  1.1307
   31DOPE   C29 3924   3.831   2.765  11.044 -0.5077 -0.2093 -0.2402
   31DOPE   H9R 3925   3.822   2.864  10.997  0.4823 -0.3351 -0.7251
   31DOPE  C210 3926   3.792   2.761  11.174  0.8456 -0.5952  0.0349
   31DOPE  H10R 3927   3.734   2.845  11.215  1.3248  0.3401 -1.1346
   31DOPE  C211 3928   3.812   2.651  11.275 -0.3114  0.6961 -0.1773
   31DOPE  H11R 3929   3.897   2.682  11.340  0.4732 -0.7096 -0.4810
   31DOPE  H11S 3930   3.853   2.559  11.228  0.4408  0.3657  1.0742
   31DOPE  C212 3931   3.691   2.621  11.373 -0.0362 -0.4690  1.0130
   31DOPE  H12R 3932   3.742   2.539  11.429  1.6604 -0.3062 -0.2038
   31DOPE  H12S 3933   3.604   2.576  11.321 -0.3851  3.7247 -2.5423
   31DOPE  C213 3934   3.654   2.740  11.471  0.9742  0.1604  0.2793
   31DOPE  H13R 3935   3.617   2.827  11.414  0.4776  0.1764  0.6279
   31DOPE  H13S 3936   3.748   2.773  11.519  0.8575 -0.5156  0.9920
   31DOPE  C214 3937   3.557   2.695  11.579  0.2920  0.5521  0.0278
   31DOPE  H14R 3938   3.467   2.656  11.528 -0.6865 -1.4754  3.0607
   31DOPE  H14S 3939   3.509   2.779  11.635 -0.2341 -0.8807  1.8243
   31DOPE  C215 3940   3.627   2.606  11.678  0.0338  0.3225 -0.2077
   31DOPE  H15R 3941   3.724   2.652  11.705  0.7794 -1.8223  1.0636
   31DOPE  H15S 3942   3.643   2.505  11.634 -1.9609 -0.5983  1.0403
   31DOPE  C216 3943   3.541   2.583  11.802  0.0125  0.3139  0.6083
   31DOPE  H16R 3944   3.574   2.494  11.860 -0.8150  1.4985  3.0383
   31DOPE  H16S 3945   3.436   2.556  11.778 -0.2470  1.3962  0.5077
   31DOPE  C217 3946   3.547   2.703  11.890  0.7843  0.1116 -0.5565
   31DOPE  H17R 3947   3.493   2.788  11.844 -2.6584 -1.1730  0.7651
   31DOPE  H17S 3948   3.653   2.726  11.915  0.7125 -0.7842  0.6918
   31DOPE  C218 3949   3.477   2.682  12.029 -0.0792 -0.0968  0.6348
   31DOPE  H18R 3950   3.488   2.768  12.098  0.6819  0.7357 -0.4747
   31DOPE  H18S 3951   3.517   2.587  12.070  0.1764  0.0718  0.7778
   31DOPE  H18T 3952   3.369   2.659  12.018 -0.0465  0.0587 -0.0815
   31DOPE   C33 3953   3.542   2.141  10.214  0.1629  0.3615  0.4522
   31DOPE   H3X 3954   3.557   2.220  10.290  0.8729  1.7921 -1.1088
   31DOPE   H3Y 3955   3.632   2.144  10.149  0.8100  0.6539  1.3432
   31DOPE   C34 3956   3.528   2.022  10.299  0.0595  0.7128  0.8360
   31DOPE   H4X 3957   3.437   2.032  10.363  0.0580 -0.7924  1.1075
   31DOPE   H4Y 3958   3.527   1.930  10.237  1.6014  1.4752 -0.3999
   31DOPE   C35 3959   3.640   2.021  10.406  0.2506 -0.1897  0.5561
   31DOPE   H5X 3960   3.644   2.121  10.455 -1.0697  0.6290 -0.8932
   31DOPE   H5Y 3961   3.739   2.017  10.356  0.2716 -0.4654  0.6198
   31DOPE   C36 3962   3.616   1.905  10.499  0.7637  0.2967 -0.1484
   31DOPE   H6X 3963   3.689   1.916  10.582 -1.1276  1.5220  1.4558
   31DOPE   H6Y 3964   3.624   1.812  10.439 -2.7068  0.4016 -0.9955
   31DOPE   C37 3965   3.473   1.901  10.570 -1.0052 -1.0677  0.6771
   31DOPE   H7X 3966   3.444   1.999  10.614 -3.3498 -1.1547 -0.5302
   31DOPE   H7Y 3967   3.398   1.878  10.492 -1.1339 -0.2788  0.5543
   31DOPE   C38 3968   3.465   1.804  10.690  0.4442  1.0773  0.3606
   31DOPE   H8X 3969   3.540   1.825  10.769  2.1662 -1.5808 -0.4208
   31DOPE   H8Y 3970   3.489   1.703  10.648  1.3344  0.8445  1.3898
   31DOPE   C39 3971   3.323   1.807  10.755 -0.2069  0.3204 -0.0614
   31DOPE   H9X 3972   3.238   1.824  10.687 -0.1859  1.2510  0.1217
   31DOPE  C310 3973   3.300   1.786  10.891 -1.3289  0.4634  0.5865
   31DOPE  H10X 3974   3.195   1.794  10.923 -2.9952 -1.2078 -3.7573
   31DOPE  C311 3975   3.401   1.751  10.993  0.7126  0.1850 -0.0946
   31DOPE  H11X 3976   3.380   1.664  11.059 -0.6846  1.2170  0.8854
   31DOPE  H11Y 3977   3.500   1.738  10.945  0.1643 -0.9742 -0.9752
   31DOPE  C312 3978   3.429   1.871  11.094  0.3107  0.4278 -0.5145
   31DOPE  H12X 3979   3.334   1.915  11.132  0.6253 -0.0713  0.8852
   31DOPE  H12Y 3980   3.472   1.945  11.022  1.2630  0.2730 -0.1182
   31DOPE  C313 3981   3.530   1.853  11.210 -0.0369  0.5625  0.0569
   31DOPE  H13X 3982   3.614   1.784  11.188  1.0270  1.3714  1.4276
   31DOPE  H13Y 3983   3.588   1.945  11.234  0.3961  0.0481  1.0410
   31DOPE  C314 3984   3.463   1.804  11.340 -0.7270 -0.3982 -0.4095
   31DOPE  H14X 3985   3.403   1.712  11.330  1.4380 -2.2681  2.0626
   31DOPE  H14Y 3986   3.398   1.889  11.369  0.3161  0.5442 -0.7384
   31DOPE  C315 3987   3.570   1.788  11.450 -0.1582 -1.2395  0.6965
   31DOPE  H15X 3988   3.626   1.882  11.467 -0.7919 -1.0213  1.6158
   31DOPE  H15Y 3989   3.648   1.715  11.419  0.2508  0.1557 -1.9385
   31DOPE  C316 3990   3.513   1.745  11.587 -0.6958 -0.1920  0.0919
   31DOPE  H16X 3991   3.511   1.634  11.586 -1.3409 -0.1837 -0.3222
   31DOPE  H16Y 3992   3.413   1.788  11.606 -1.0348 -1.6720  1.9351
   31DOPE  C317 3993   3.601   1.799  11.704 -0.0416  0.0106 -0.1749
   31DOPE  H17X 3994   3.711   1.789  11.687 -0.3391 -0.9938 -1.6539
   31DOPE  H17Y 3995   3.577   1.907  11.713  0.0870 -0.0886  1.8912
   31DOPE  C318 3996   3.557   1.743  11.832 -0.7074  0.2029 -0.0027
   31DOPE  H18X 3997   3.579   1.634  11.827 -1.2950 -0.0091  1.6340
   31DOPE  H18Y 3998   3.612   1.788  11.917 -2.0830 -0.9825  1.5694
   31DOPE  H18Z 3999   3.450   1.758  11.858 -0.6455  0.4676  0.0920
   32DOPE     N 4000   5.269   3.136  10.403  0.6054 -0.4177 -0.4673
   32DOPE   HN1 4001   5.336   3.215  10.400 -2.0088  1.9579 -3.7916
   32DOPE   HN2 4002   5.310   3.045  10.373 -1.0924 -0.8057 -1.7860
   32DOPE   HN3 4003   5.191   3.154  10.337 -0.0170 -0.5523  0.2153
   32DOPE   C12 4004   5.205   3.135  10.541 -0.6877 -0.7825  0.1347
   32DOPE  H12A 4005   5.145   3.043  10.554  1.5688 -2.1082  1.8288
   32DOPE  H12B 4006   5.155   3.234  10.554 -0.5111 -0.6399 -0.2517
   32DOPE   C11 4007   5.311   3.114  10.650 -0.6105 -0.3325  0.5448
   32DOPE  H11A 4008   5.344   3.008  10.641 -2.0041 -0.7848  0.4669
   32DOPE  H11B 4009   5.260   3.122  10.748 -1.6220  2.0696 -0.1029
   32DOPE     P 4010   5.569   3.170  10.640  0.1446  0.1755  0.3213
   32DOPE   O13 4011   5.655   3.291  10.639  0.0897 -0.2010 -0.1394
   32DOPE   O14 4012   5.588   3.076  10.527 -0.1367 -0.0697  0.6285
   32DOPE   O11 4013   5.601   3.096  10.774  0.5087  0.4034 -0.1778
   32DOPE   O12 4014   5.417   3.214  10.646  0.7715  0.3688 -0.3416
   32DOPE    C1 4015   5.537   3.130  10.896  0.2167 -0.1229 -0.8200
   32DOPE    HA 4016   5.541   3.046  10.968  3.9123 -0.4897 -1.2581
   32DOPE    HB 4017   5.427   3.139  10.887  0.1067 -0.0404  0.3996
   32DOPE    C2 4018   5.586   3.267  10.966 -0.1326  1.0285  0.2916
   32DOPE    HS 4019   5.636   3.314  10.879  1.3246 -0.7373  0.1235
   32DOPE   O21 4020   5.686   3.237  11.060 -0.4411 -0.0224 -0.3671
   32DOPE   C21 4021   5.773   3.328  11.104 -0.0894 -0.0232 -0.3605
   32DOPE   O22 4022   5.774   3.442  11.067 -0.4281 -0.9248  0.3399
   32DOPE   C22 4023   5.885   3.253  11.183  0.2999  0.7892 -0.2718
   32DOPE   H2R 4024   5.983   3.295  11.155  1.0228 -0.5633  0.1288
   32DOPE   H2S 4025   5.885   3.145  11.155  1.1004  0.4627  0.9210
   32DOPE    C3 4026   5.466   3.360  11.007  0.8353 -0.1529 -1.0174
   32DOPE    HX 4027   5.407   3.372  10.913 -1.1890 -2.2464 -0.1238
   32DOPE    HY 4028   5.505   3.456  11.045  1.4615 -0.6361 -0.4242
   32DOPE   O31 4029   5.367   3.301  11.097 -0.3833 -0.3280 -0.5956
   32DOPE   C31 4030   5.400   3.304  11.229 -0.3782 -0.0420  0.5095
   32DOPE   O32 4031   5.504   3.353  11.267 -0.0516 -0.1101  0.4928
   32DOPE   C32 4032   5.295   3.229  11.310 -0.1659  0.4035  0.4230
   32DOPE   H2X 4033   5.200   3.273  11.274  0.6288  2.3939  0.6408
   32DOPE   H2Y 4034   5.302   3.123  11.275  0.4062  1.0265 -1.4856
   32DOPE   C23 4035   5.860   3.259  11.332 -0.2468 -0.0220  0.1601
   32DOPE   H3R 4036   5.934   3.193  11.382 -1.3904 -0.4211  1.3909
   32DOPE   H3S 4037   5.759   3.218  11.350 -0.6906  0.7699 -0.4779
   32DOPE   C24 4038   5.875   3.399  11.386 -0.2589  0.9260  0.1267
   32DOPE   H4R 4039   5.789   3.467  11.369 -1.3423 -0.3264  0.4162
   32DOPE   H4S 4040   5.965   3.442  11.336 -0.1717 -0.9893 -1.5035
   32DOPE   C25 4041   5.897   3.401  11.538 -0.3634 -0.6389  0.0166
   32DOPE   H5R 4042   5.814   3.341  11.580  0.7146  0.0562  3.4193
   32DOPE   H5S 4043   5.874   3.509  11.555  1.1616 -0.4296  0.9119
   32DOPE   C26 4044   6.035   3.352  11.591  0.0456 -0.1282  0.2721
   32DOPE   H6R 4045   6.112   3.402  11.529 -0.8628 -0.7812 -1.4298
   32DOPE   H6S 4046   6.053   3.245  11.570 -0.1390 -0.2683  0.7924
   32DOPE   C27 4047   6.062   3.379  11.738 -0.3870 -0.0785  0.2023
   32DOPE   H7R 4048   6.154   3.326  11.771 -0.6589 -1.4759 -1.1659
   32DOPE   H7S 4049   5.982   3.337  11.803 -1.0201 -3.0927 -2.2507
   32DOPE   C28 4050   6.065   3.526  11.781  0.1609  0.0272 -0.3114
   32DOPE   H8R 4051   6.108   3.523  11.883 -1.5851 -0.0825  0.4611
   32DOPE   H8S 4052   5.958   3.558  11.780  0.0051 -0.4159 -2.2088
   32DOPE   C29 4053   6.146   3.614  11.690  0.6591 -0.0704 -0.1222
   32DOPE   H9R 4054   6.095   3.615  11.592  0.0644  1.6282  0.1646
   32DOPE  C210 4055   6.256   3.680  11.724  0.1836 -0.2556 -0.3307
   32DOPE  H10R 4056   6.285   3.763  11.657 -1.4310 -1.0642 -2.1357
   32DOPE  C211 4057   6.327   3.660  11.856 -0.3968 -0.1850 -0.1588
   32DOPE  H11R 4058   6.432   3.643  11.827  0.2370  1.0884  1.2421
   32DOPE  H11S 4059   6.300   3.566  11.909 -0.9592  0.1809  0.2237
   32DOPE  C212 4060   6.315   3.775  11.952  0.1975 -0.3761  0.4008
   32DOPE  H12R 4061   6.212   3.783  11.994  0.0763  0.8349 -0.0745
   32DOPE  H12S 4062   6.327   3.870  11.896 -1.0239  0.3739  1.3367
   32DOPE  C213 4063   6.406   3.758  12.074  0.0746 -0.1566  0.1405
   32DOPE  H13R 4064   6.510   3.786  12.047 -0.4180  2.4831  0.7355
   32DOPE  H13S 4065   6.409   3.651  12.106 -0.9330  0.2141  1.5357
   32DOPE  C214 4066   6.364   3.839  12.193 -0.2221  0.4544  0.3716
   32DOPE  H14R 4067   6.261   3.813  12.226 -0.2255  1.2948  1.0627
   32DOPE  H14S 4068   6.364   3.947  12.166 -2.7988  0.3657 -0.2090
   32DOPE  C215 4069   6.449   3.817  12.314 -0.4552  0.3818 -0.4002
   32DOPE  H15R 4070   6.550   3.785  12.280 -1.2676 -2.4983 -0.3491
   32DOPE  H15S 4071   6.411   3.738  12.382 -2.2844  1.5231 -0.0111
   32DOPE  C216 4072   6.462   3.947  12.391  0.3980 -0.4053  0.2618
   32DOPE  H16R 4073   6.359   3.987  12.398 -0.5795 -2.8203  0.8363
   32DOPE  H16S 4074   6.521   4.022  12.334  2.9151 -2.7288 -0.4291
   32DOPE  C217 4075   6.513   3.939  12.538  0.3464 -0.8460 -0.7850
   32DOPE  H17R 4076   6.494   4.041  12.576  0.6767 -0.4829 -1.5738
   32DOPE  H17S 4077   6.623   3.922  12.549  0.5094  0.9638  0.8902
   32DOPE  C218 4078   6.442   3.831  12.621  0.9274 -0.2849 -0.1256
   32DOPE  H18R 4079   6.462   3.849  12.729 -1.6286  0.2472  0.3445
   32DOPE  H18S 4080   6.476   3.727  12.600 -2.3200 -1.8706  1.5157
   32DOPE  H18T 4081   6.331   3.836  12.607  0.8829  1.0966  0.5633
   32DOPE   C33 4082   5.312   3.228  11.462 -0.4420  0.0671  0.7493
   32DOPE   H3X 4083   5.412   3.201  11.503 -0.8523  1.2064  2.6274
   32DOPE   H3Y 4084   5.251   3.146  11.505 -1.2553  1.0288  1.4663
   32DOPE   C34 4085   5.255   3.359  11.520 -0.1167 -0.5253 -0.3948
   32DOPE   H4X 4086   5.300   3.452  11.480 -1.5620  0.3991  0.0515
   32DOPE   H4Y 4087   5.146   3.357  11.495 -0.9643  0.4973  2.7572
   32DOPE   C35 4088   5.264   3.366  11.671 -0.7180  0.1438 -0.4047
   32DOPE   H5X 4089   5.248   3.474  11.691 -0.7899  0.1149 -0.3041
   32DOPE   H5Y 4090   5.367   3.342  11.704  0.2251  0.9174 -2.5677
   32DOPE   C36 4091   5.160   3.286  11.747  0.1609  0.3071 -0.8271
   32DOPE   H6X 4092   5.185   3.179  11.734 -2.7604 -1.0103  2.8858
   32DOPE   H6Y 4093   5.059   3.313  11.710 -0.4519 -2.1180 -1.0682
   32DOPE   C37 4094   5.166   3.297  11.896 -0.0252  0.7220 -0.1307
   32DOPE   H7X 4095   5.268   3.268  11.926 -1.3730 -2.7171  1.6504
   32DOPE   H7Y 4096   5.152   3.406  11.917 -1.4112  0.7806 -1.1531
   32DOPE   C38 4097   5.073   3.200  11.971  0.0812 -0.0257 -0.1385
   32DOPE   H8X 4098   5.104   3.210  12.077  1.9425 -0.4845 -0.6030
   32DOPE   H8Y 4099   5.105   3.097  11.942 -0.2850 -0.2937  0.4154
   32DOPE   C39 4100   4.927   3.230  11.953  0.3227 -0.2015 -0.0730
   32DOPE   H9X 4101   4.883   3.210  11.854  1.5543  5.2890 -2.1124
   32DOPE  C310 4102   4.849   3.276  12.052  0.4589  0.3213  0.6511
   32DOPE  H10X 4103   4.746   3.302  12.025  0.3410 -0.1516  0.6334
   32DOPE  C311 4104   4.885   3.322  12.196 -0.6031  0.2468 -0.2865
   32DOPE  H11X 4105   4.986   3.367  12.190 -0.1299 -0.0394  3.4253
   32DOPE  H11Y 4106   4.817   3.405  12.224 -0.1006  0.8661 -0.8536
   32DOPE  C312 4107   4.898   3.202  12.290  0.0016  0.5177 -0.5250
   32DOPE  H12X 4108   4.987   3.147  12.254 -0.6739 -1.3304  0.4640
   32DOPE  H12Y 4109   4.808   3.136  12.285  1.9294 -2.4085  0.3984
   32DOPE  C313 4110   4.908   3.254  12.437 -0.4435  1.4294  0.3554
   32DOPE  H13X 4111   5.012   3.288  12.455  0.6293 -1.2821 -0.2790
   32DOPE  H13Y 4112   4.826   3.328  12.449 -0.2880  1.6676 -0.0174
   32DOPE  C314 4113   4.889   3.147  12.540  0.5589  0.0424  0.0225
   32DOPE  H14X 4114   4.978   3.080  12.533 -0.0494 -0.6342 -1.8931
   32DOPE  H14Y 4115   4.800   3.083  12.527  0.3211  0.5664 -1.0160
   32DOPE  C315 4116   4.846   3.208  12.687 -1.2585 -0.0401  0.1009
   32DOPE  H15X 4117   4.777   3.135  12.733 -0.9093  0.2741  1.1491
   32DOPE  H15Y 4118   4.787   3.303  12.686 -1.3517 -0.0831  0.7763
   32DOPE  C316 4119   4.972   3.225  12.774 -0.2888  0.3747 -0.2173
   32DOPE  H16X 4120   5.042   3.295  12.724  0.3239 -0.1737 -0.1264
   32DOPE  H16Y 4121   5.019   3.125  12.773 -0.9614  0.0498 -1.4392
   32DOPE  C317 4122   4.948   3.272  12.915 -0.3961 -0.4018 -0.1722
   32DOPE  H17X 4123   4.925   3.381  12.913 -0.7282 -0.4726 -0.3816
   32DOPE  H17Y 4124   4.857   3.230  12.963 -1.8680  0.0556 -2.4134
   32DOPE  C318 4125   5.078   3.255  13.003  0.3380  0.4294  0.4635
   32DOPE  H18X 4126   5.151   3.329  12.964 -1.5105  4.0930  3.3984
   32DOPE  H18Y 4127   5.067   3.277  13.111  2.1333  2.1792  0.3308
   32DOPE  H18Z 4128   5.121   3.153  12.992  1.7756  1.1210 -0.7470
   33DOPE     N 4129   4.114   1.924   9.228 -0.2543 -0.1302  0.1755
   33DOPE   HN1 4130   4.065   1.837   9.254 -0.8343  0.7933  2.3966
   33DOPE   HN2 4131   4.057   2.006   9.260 -0.7076 -0.1427 -0.5822
   33DOPE   HN3 4132   4.123   1.930   9.124 -0.1007  2.4695  0.2525
   33DOPE   C12 4133   4.252   1.939   9.292  0.1552  0.2687  0.1381
   33DOPE  H12A 4134   4.292   2.036   9.256  0.5684 -0.6730 -2.0733
   33DOPE  H12B 4135   4.313   1.854   9.253  0.3636 -0.4687  1.9596
   33DOPE   C11 4136   4.245   1.921   9.441  0.3518 -0.3037 -0.3260
   33DOPE  H11A 4137   4.350   1.922   9.478  0.4315  0.8609 -0.5477
   33DOPE  H11B 4138   4.197   1.823   9.464 -2.5356  1.1454  0.2603
   33DOPE     P 4139   4.217   2.118   9.610 -0.0581 -0.4308 -0.4606
   33DOPE   O13 4140   4.100   2.187   9.670  0.1498  0.1437 -0.0145
   33DOPE   O14 4141   4.317   2.208   9.548 -0.6011 -0.1892 -0.3137
   33DOPE   O11 4142   4.296   2.022   9.709 -0.1380 -0.0590 -0.2312
   33DOPE   O12 4143   4.163   2.021   9.501  0.3133  0.6219 -0.0310
   33DOPE    C1 4144   4.222   1.915   9.781  0.4464  0.5177  0.6040
   33DOPE    HA 4145   4.280   1.820   9.769 -0.7355 -0.1207 -0.2624
   33DOPE    HB 4146   4.119   1.902   9.743  0.6051  2.7526 -0.7629
   33DOPE    C2 4147   4.214   1.956   9.931  0.6209 -0.9315  1.0624
   33DOPE    HS 4148   4.145   2.043   9.943  1.2869 -0.4988  1.9047
   33DOPE   O21 4149   4.349   1.986   9.976  0.6414 -0.3453 -0.1050
   33DOPE   C21 4150   4.376   2.114   9.995 -0.1806  0.2146 -0.4829
   33DOPE   O22 4151   4.298   2.205   9.978 -0.0843 -0.0311  0.0783
   33DOPE   C22 4152   4.524   2.131  10.030  0.0790  1.0439  0.5586
   33DOPE   H2R 4153   4.554   2.237  10.041 -0.0066  0.9212  2.3930
   33DOPE   H2S 4154   4.581   2.089   9.945 -1.5467 -0.8244  0.3325
   33DOPE    C3 4155   4.145   1.845  10.024 -0.6703 -0.1189 -0.1425
   33DOPE    HX 4156   4.203   1.752  10.009  1.8478  1.2169  0.6321
   33DOPE    HY 4157   4.039   1.832   9.994 -1.1069  1.6895  0.4759
   33DOPE   O31 4158   4.161   1.863  10.164  0.0972 -0.0721  0.2419
   33DOPE   C31 4159   4.059   1.929  10.222  0.0162 -0.1874  0.3320
   33DOPE   O32 4160   3.950   1.948  10.168  0.2078 -0.2248 -0.5039
   33DOPE   C32 4161   4.110   1.999  10.349 -0.1999  1.0447 -0.1761
   33DOPE   H2X 4162   4.193   2.068  10.324  0.7051 -0.2344 -0.7919
   33DOPE   H2Y 4163   4.026   2.059  10.390  0.3141  1.4401  0.3006
   33DOPE   C23 4164   4.558   2.051  10.157 -0.2591 -0.5395 -0.8557
   33DOPE   H3R 4165   4.668   2.043  10.150 -0.0585  1.3147 -0.3983
   33DOPE   H3S 4166   4.524   1.945  10.149 -1.3767 -0.2939  0.3080
   33DOPE   C24 4167   4.521   2.116  10.291 -0.2970 -0.0626 -0.1286
   33DOPE   H4R 4168   4.414   2.137  10.315 -0.5075 -1.2621  0.0445
   33DOPE   H4S 4169   4.570   2.216  10.294  1.1931 -0.7850  0.5362
   33DOPE   C25 4170   4.573   2.032  10.414 -0.5719 -0.0238  0.0933
   33DOPE   H5R 4171   4.678   2.007  10.390 -0.6853 -0.6224  0.2086
   33DOPE   H5S 4172   4.509   1.942  10.417 -0.7467  0.0014 -1.7554
   33DOPE   C26 4173   4.552   2.105  10.546 -0.1803 -0.4842 -0.1885
   33DOPE   H6R 4174   4.452   2.153  10.548 -0.7119 -1.5723  0.2157
   33DOPE   H6S 4175   4.629   2.183  10.560  0.0350 -0.4547 -1.4314
   33DOPE   C27 4176   4.558   2.015  10.671  0.4076 -0.0097 -0.6125
   33DOPE   H7R 4177   4.658   1.966  10.678 -0.1574 -1.0769  0.4698
   33DOPE   H7S 4178   4.490   1.929  10.656  1.0089 -1.1883  2.4872
   33DOPE   C28 4179   4.535   2.096  10.802  0.6419  0.8357 -0.2474
   33DOPE   H8R 4180   4.574   2.200  10.796  1.4342  0.7243  2.0028
   33DOPE   H8S 4181   4.602   2.047  10.875 -1.1984 -1.5036 -0.0021
   33DOPE   C29 4182   4.389   2.095  10.841  0.2592  0.2284  0.2667
   33DOPE   H9R 4183   4.338   2.183  10.800 -1.2280  0.3118  2.1603
   33DOPE  C210 4184   4.332   2.004  10.922 -0.3709 -0.5943  0.3153
   33DOPE  H10R 4185   4.229   2.024  10.955 -0.6793 -0.0531 -0.9160
   33DOPE  C211 4186   4.412   1.895  10.980  0.6211 -0.0499 -0.0948
   33DOPE  H11R 4187   4.521   1.894  10.960  0.5633 -1.1139 -0.4467
   33DOPE  H11S 4188   4.385   1.800  10.929 -0.8900  0.5768 -0.5286
   33DOPE  C212 4189   4.403   1.895  11.132  0.0381  0.4408 -0.4637
   33DOPE  H12R 4190   4.446   1.799  11.169  0.0465 -0.1760 -2.0181
   33DOPE  H12S 4191   4.297   1.888  11.167  0.1477 -0.0748 -0.2307
   33DOPE  C213 4192   4.482   1.999  11.204 -0.5950  0.1789  0.3140
   33DOPE  H13R 4193   4.473   2.097  11.153 -0.1164  1.0888  1.9009
   33DOPE  H13S 4194   4.588   1.966  11.206 -0.9471 -0.9873  0.6066
   33DOPE  C214 4195   4.426   2.013  11.344  0.0319  0.0561  0.5925
   33DOPE  H14R 4196   4.421   1.911  11.387 -1.1199 -0.9484 -1.7272
   33DOPE  H14S 4197   4.327   2.063  11.330 -0.6687 -1.7328 -1.3168
   33DOPE  C215 4198   4.511   2.105  11.428 -0.2646 -0.9240  0.4403
   33DOPE  H15R 4199   4.513   2.207  11.384  3.2148 -0.6455  0.9414
   33DOPE  H15S 4200   4.619   2.077  11.427  0.8803  2.6871  2.7846
   33DOPE  C216 4201   4.479   2.095  11.572  0.1050 -0.5339 -0.4129
   33DOPE  H16R 4202   4.368   2.100  11.577  0.1105  1.5043 -1.2284
   33DOPE  H16S 4203   4.519   2.182  11.629  1.4293 -1.0050 -0.5789
   33DOPE  C217 4204   4.530   1.980  11.661  0.2469  0.2855  0.1497
   33DOPE  H17R 4205   4.640   1.977  11.650  0.2004  1.3979 -0.7433
   33DOPE  H17S 4206   4.486   1.885  11.623  0.9751 -0.0184  0.0475
   33DOPE  C218 4207   4.491   1.990  11.806  0.2292 -0.6301 -0.2663
   33DOPE  H18R 4208   4.541   1.908  11.862  1.9162 -0.2102 -1.1123
   33DOPE  H18S 4209   4.383   1.967  11.813  0.1629 -1.2856 -2.6976
   33DOPE  H18T 4210   4.521   2.089  11.846 -0.2689 -0.6959  0.2779
   33DOPE   C33 4211   4.158   1.889  10.450  0.8826  0.8208 -0.4393
   33DOPE   H3X 4212   4.254   1.846  10.415  0.2413 -1.0261 -0.0576
   33DOPE   H3Y 4213   4.086   1.807  10.430 -0.9503  2.4743 -0.8749
   33DOPE   C34 4214   4.161   1.919  10.595 -0.3698 -0.5153  0.2350
   33DOPE   H4X 4215   4.183   1.823  10.646  2.3473 -0.3520 -0.4836
   33DOPE   H4Y 4216   4.245   1.991  10.607 -0.2771 -0.5469 -0.2131
   33DOPE   C35 4217   4.022   1.961  10.646 -0.7372 -0.0003 -0.0381
   33DOPE   H5X 4218   3.946   1.885  10.619 -2.5782  1.4305  0.8819
   33DOPE   H5Y 4219   3.990   2.061  10.609 -1.6892  0.1172  1.0708
   33DOPE   C36 4220   4.020   1.983  10.795  0.6885  0.3071 -0.4351
   33DOPE   H6X 4221   4.080   2.076  10.807  1.4649 -0.3526  1.1415
   33DOPE   H6Y 4222   4.063   1.897  10.850 -2.0468 -1.0808 -0.3046
   33DOPE   C37 4223   3.871   1.991  10.854  0.3703 -0.1724  1.2494
   33DOPE   H7X 4224   3.819   2.066  10.791 -1.1589 -2.4019 -0.2782
   33DOPE   H7Y 4225   3.836   1.888  10.832  1.3783 -0.0788 -1.0975
   33DOPE   C38 4226   3.874   2.016  11.003 -0.3444  0.2898  0.1022
   33DOPE   H8X 4227   3.951   1.947  11.044  0.3354 -0.0142 -1.5998
   33DOPE   H8Y 4228   3.780   1.982  11.051 -0.8852  1.1632 -0.3013
   33DOPE   C39 4229   3.912   2.160  11.022  0.5772 -0.3532  0.2807
   33DOPE   H9X 4230   3.966   2.203  10.937 -1.7356 -0.7793 -1.5143
   33DOPE  C310 4231   3.861   2.250  11.120 -0.5651  0.0222  0.2059
   33DOPE  H10X 4232   3.901   2.352  11.112  4.3993 -1.5696  0.6999
   33DOPE  C311 4233   3.769   2.212  11.232  0.5780  0.0482 -0.4487
   33DOPE  H11X 4234   3.747   2.306  11.288  0.2832 -0.1326 -0.2615
   33DOPE  H11Y 4235   3.668   2.192  11.191 -0.2705 -1.6008  2.1953
   33DOPE  C312 4236   3.806   2.099  11.324 -0.0914 -0.1962  0.2349
   33DOPE  H12X 4237   3.813   2.010  11.258  0.1785  0.7977 -1.1127
   33DOPE  H12Y 4238   3.711   2.092  11.381 -1.4038  0.3829 -1.8094
   33DOPE  C313 4239   3.922   2.121  11.420  0.0813 -0.3770 -0.1928
   33DOPE  H13X 4240   4.017   2.122  11.362  0.1017 -0.9060 -0.1673
   33DOPE  H13Y 4241   3.920   2.224  11.463 -1.6145  0.5383 -2.2841
   33DOPE  C314 4242   3.931   2.022  11.537 -0.6019 -0.3527  0.8255
   33DOPE  H14X 4243   3.934   1.920  11.494 -2.3481 -1.2651  2.6824
   33DOPE  H14Y 4244   3.837   2.018  11.596 -2.3577 -0.9944 -1.8417
   33DOPE  C315 4245   4.043   2.050  11.634 -0.7571  1.0772 -1.0020
   33DOPE  H15X 4246   4.047   2.142  11.696  0.8455 -1.0521  2.4303
   33DOPE  H15Y 4247   4.141   2.050  11.582 -0.5261  0.8910 -0.5779
   33DOPE  C316 4248   4.048   1.941  11.741 -0.4570  0.6406 -0.4255
   33DOPE  H16X 4249   4.149   1.899  11.757 -1.0308 -0.4726  0.3887
   33DOPE  H16Y 4250   3.995   1.857  11.690  1.5995 -0.6001 -0.6168
   33DOPE  C317 4251   4.002   1.971  11.883 -0.2631 -0.3289  0.4090
   33DOPE  H17X 4252   3.994   1.879  11.945 -2.1943 -1.0614 -0.8315
   33DOPE  H17Y 4253   4.086   2.028  11.929  1.7558 -0.9208 -2.3027
   33DOPE  C318 4254   3.872   2.051  11.889 -0.1683  0.2888 -0.1501
   33DOPE  H18X 4255   3.846   2.095  11.988  3.2203 -0.1043  1.0175
   33DOPE  H18Y 4256   3.887   2.133  11.816  0.9746  0.4294  0.2326
   33DOPE  H18Z 4257   3.784   1.991  11.857 -1.0993  0.0478  2.5646
   34DOPE     N 4258   4.132   3.277   9.988  0.2771  0.5074  0.5381
   34DOPE   HN1 4259   4.087   3.212  10.055  2.0150 -0.2859  0.9796
   34DOPE   HN2 4260   4.105   3.251   9.891  1.0915  0.1350  0.4101
   34DOPE   HN3 4261   4.234   3.257   9.990 -0.0881 -1.5525  0.2577
   34DOPE   C12 4262   4.102   3.415  10.020 -0.0498 -0.0300  0.4497
   34DOPE  H12A 4263   3.991   3.421  10.014 -0.0540 -0.6155 -0.1638
   34DOPE  H12B 4264   4.145   3.471   9.934 -2.0692 -1.0882 -1.3229
   34DOPE   C11 4265   4.166   3.454  10.152 -0.0014 -0.6167 -0.3791
   34DOPE  H11A 4266   4.117   3.381  10.220  2.1318 -1.2904  0.5060
   34DOPE  H11B 4267   4.143   3.560  10.177  0.9740 -0.9177  2.0204
   34DOPE     P 4268   4.391   3.494  10.261 -0.1606 -0.1330 -0.0619
   34DOPE   O13 4269   4.389   3.638  10.230 -0.7300 -0.1754  0.4635
   34DOPE   O14 4270   4.529   3.440  10.266  0.4447 -0.0471 -0.5347
   34DOPE   O11 4271   4.310   3.472  10.390  0.2510  0.4834  0.0946
   34DOPE   O12 4272   4.305   3.425  10.152 -0.4544 -0.1171  0.3894
   34DOPE    C1 4273   4.304   3.335  10.432 -0.0885  0.0482  0.5035
   34DOPE    HA 4274   4.398   3.277  10.420 -0.4963 -0.2926 -1.3873
   34DOPE    HB 4275   4.226   3.277  10.379  0.2925 -0.3583  0.3878
   34DOPE    C2 4276   4.261   3.340  10.579  0.1942  0.1426  0.5081
   34DOPE    HS 4277   4.232   3.238  10.614  1.8015  0.0938  1.8258
   34DOPE   O21 4278   4.156   3.431  10.608 -0.2930  0.5314  0.0413
   34DOPE   C21 4279   4.027   3.396  10.569 -0.3357 -0.4522  0.0812
   34DOPE   O22 4280   4.009   3.302  10.495 -0.5269  0.1710 -0.1864
   34DOPE   C22 4281   3.926   3.481  10.635 -0.0701 -1.0654 -1.2280
   34DOPE   H2R 4282   3.825   3.457  10.595 -1.0449 -1.0927  1.0806
   34DOPE   H2S 4283   3.957   3.588  10.629 -1.9570 -0.3328  0.6165
   34DOPE    C3 4284   4.396   3.368  10.660  0.5415  0.2019  0.1770
   34DOPE    HX 4285   4.447   3.449  10.605  2.0508 -0.8021  0.0443
   34DOPE    HY 4286   4.466   3.283  10.646 -0.0470  0.0855 -2.5882
   34DOPE   O31 4287   4.384   3.424  10.794 -0.0722 -0.5319 -0.1693
   34DOPE   C31 4288   4.338   3.343  10.886  0.2194 -0.0542 -0.4046
   34DOPE   O32 4289   4.304   3.225  10.872 -1.1216  0.0849  0.0555
   34DOPE   C32 4290   4.315   3.421  11.016  0.8129  0.2498  0.8977
   34DOPE   H2X 4291   4.406   3.475  11.049  1.0108  0.1001  0.5974
   34DOPE   H2Y 4292   4.242   3.500  10.991  0.2313 -0.4051  0.4882
   34DOPE   C23 4293   3.932   3.449  10.791  0.0750 -0.0672  0.2057
   34DOPE   H3R 4294   4.039   3.459  10.819  0.4767  0.5531 -1.4118
   34DOPE   H3S 4295   3.893   3.348  10.818 -1.6584  1.1833  2.7309
   34DOPE   C24 4296   3.863   3.552  10.869 -0.7046  0.8720  0.5005
   34DOPE   H4R 4297   3.756   3.552  10.840 -0.8187 -0.9109  0.7935
   34DOPE   H4S 4298   3.914   3.646  10.839  1.4548 -0.0608  1.0145
   34DOPE   C25 4299   3.880   3.533  11.022 -0.0958 -0.0399  0.7405
   34DOPE   H5R 4300   3.988   3.520  11.043  0.7272  3.9945 -0.1386
   34DOPE   H5S 4301   3.817   3.443  11.034  0.4943 -0.3167  1.8209
   34DOPE   C26 4302   3.830   3.653  11.102 -0.1856 -0.5687  0.5186
   34DOPE   H6R 4303   3.720   3.664  11.093 -0.3486  1.1367  3.2596
   34DOPE   H6S 4304   3.879   3.750  11.082 -1.4548  0.3389  1.6219
   34DOPE   C27 4305   3.857   3.618  11.253 -0.2898  0.1807  1.1786
   34DOPE   H7R 4306   3.965   3.620  11.282 -0.6549  2.7243  2.7338
   34DOPE   H7S 4307   3.820   3.514  11.268 -1.6861  0.5015  0.1451
   34DOPE   C28 4308   3.776   3.717  11.346 -0.7826 -0.0472  0.2144
   34DOPE   H8R 4309   3.794   3.660  11.440  0.4186  1.7956  1.1650
   34DOPE   H8S 4310   3.670   3.706  11.314 -0.7222 -2.2160  0.6260
   34DOPE   C29 4311   3.817   3.866  11.368 -0.2642 -0.8651  0.1695
   34DOPE   H9R 4312   3.833   3.917  11.272  0.1969 -1.1651  0.0843
   34DOPE  C210 4313   3.841   3.925  11.487  0.0267 -0.0606  0.0731
   34DOPE  H10R 4314   3.878   4.028  11.476 -0.7629  0.2140 -0.0576
   34DOPE  C211 4315   3.826   3.869  11.625 -0.0787 -0.0649 -0.3003
   34DOPE  H11R 4316   3.915   3.817  11.666 -1.7552 -1.9904  1.0991
   34DOPE  H11S 4317   3.742   3.796  11.626  1.0124 -1.3786  1.0862
   34DOPE  C212 4318   3.777   3.980  11.730  0.2921  0.8016  0.8957
   34DOPE  H12R 4319   3.690   4.035  11.688  1.3108  1.1800 -0.8140
   34DOPE  H12S 4320   3.862   4.051  11.744  0.6236  0.4764  0.5414
   34DOPE  C213 4321   3.749   3.909  11.867  0.8926 -0.5719  0.5226
   34DOPE  H13R 4322   3.847   3.882  11.910  0.9925 -0.6225  0.2676
   34DOPE  H13S 4323   3.688   3.817  11.852  1.0363 -0.9862  2.3116
   34DOPE  C214 4324   3.666   3.993  11.964  0.7133 -0.3157 -0.3733
   34DOPE  H14R 4325   3.563   4.017  11.929  0.9653 -0.3913 -1.1721
   34DOPE  H14S 4326   3.719   4.090  11.978 -1.9453  1.2710 -0.6120
   34DOPE  C215 4327   3.665   3.933  12.105  0.1487  0.5992 -0.3039
   34DOPE  H15R 4328   3.769   3.913  12.138 -0.4678 -2.0360  0.2103
   34DOPE  H15S 4329   3.606   3.839  12.107 -1.9415  1.8433  1.0846
   34DOPE  C216 4330   3.587   4.029  12.199 -0.0198 -0.0147  0.4659
   34DOPE  H16R 4331   3.493   4.047  12.141  0.1356  0.3751  0.3292
   34DOPE  H16S 4332   3.639   4.127  12.205 -1.1122  0.5591  0.9538
   34DOPE  C217 4333   3.532   3.967  12.320 -0.8385  0.7589 -0.8572
   34DOPE  H17R 4334   3.452   3.892  12.300  0.2515  0.0068 -2.5903
   34DOPE  H17S 4335   3.482   4.042  12.385 -3.0140 -3.0512  2.3052
   34DOPE  C218 4336   3.630   3.885  12.413 -0.0612 -0.1441 -0.0044
   34DOPE  H18R 4337   3.714   3.950  12.444  0.3209 -0.8362  0.4125
   34DOPE  H18S 4338   3.671   3.794  12.365  1.3667  0.0148  0.8557
   34DOPE  H18T 4339   3.574   3.855  12.504  0.3532  2.2817  1.1368
   34DOPE   C33 4340   4.267   3.330  11.134  0.0466 -0.1424 -0.7142
   34DOPE   H3X 4341   4.356   3.266  11.147 -0.1561 -0.4868 -1.0107
   34DOPE   H3Y 4342   4.189   3.257  11.104 -0.1499  0.5082 -1.8733
   34DOPE   C34 4343   4.235   3.423  11.256 -0.5980  0.7698 -0.1960
   34DOPE   H4X 4344   4.319   3.495  11.259 -0.6175  0.7902 -0.1491
   34DOPE   H4Y 4345   4.142   3.483  11.245 -1.1619  0.1987  1.1573
   34DOPE   C35 4346   4.233   3.345  11.392 -0.3965  0.2773 -0.0298
   34DOPE   H5X 4347   4.332   3.300  11.416 -2.5477 -3.8001  2.4309
   34DOPE   H5Y 4348   4.166   3.257  11.377 -1.5935  1.3985 -1.5220
   34DOPE   C36 4349   4.202   3.428  11.513  0.4344  0.2378 -0.4676
   34DOPE   H6X 4350   4.101   3.473  11.504  0.5947  0.5485 -0.7521
   34DOPE   H6Y 4351   4.284   3.502  11.503 -0.2997  1.0554 -0.5105
   34DOPE   C37 4352   4.225   3.353  11.648 -0.0378 -0.6554 -0.1283
   34DOPE   H7X 4353   4.146   3.282  11.679  0.2832 -2.9149 -3.9390
   34DOPE   H7Y 4354   4.320   3.297  11.642  2.1989  2.3500  2.8531
   34DOPE   C38 4355   4.241   3.450  11.768  0.8699  0.5279 -0.4386
   34DOPE   H8X 4356   4.315   3.527  11.737 -1.6357  2.6479 -1.5466
   34DOPE   H8Y 4357   4.271   3.380  11.849 -1.6154 -1.5909 -1.2258
   34DOPE   C39 4358   4.112   3.528  11.804  0.4522  0.0032 -0.5718
   34DOPE   H9X 4359   4.031   3.512  11.732 -3.4117 -0.9566  3.5022
   34DOPE  C310 4360   4.073   3.593  11.917 -0.2143  0.3834 -0.2509
   34DOPE  H10X 4361   3.973   3.638  11.915  0.0168  0.9277 -2.6181
   34DOPE  C311 4362   4.169   3.607  12.033  0.3995 -0.2024  0.1140
   34DOPE  H11X 4363   4.273   3.575  12.010 -0.5180 -2.4524 -1.2431
   34DOPE  H11Y 4364   4.185   3.715  12.054  0.7102  0.0312 -1.2290
   34DOPE  C312 4365   4.114   3.544  12.169  0.1453  0.3056 -0.1810
   34DOPE  H12X 4366   4.182   3.457  12.186  1.9133  1.1667 -2.3249
   34DOPE  H12Y 4367   4.011   3.505  12.153  0.7033 -1.7629  0.8248
   34DOPE  C313 4368   4.123   3.624  12.300  0.0097 -0.1434 -0.3491
   34DOPE  H13X 4369   4.206   3.698  12.295  0.7118 -0.9897 -4.5931
   34DOPE  H13Y 4370   4.026   3.677  12.303  1.1211  1.9633  1.2663
   34DOPE  C314 4371   4.138   3.539  12.430 -0.8178  0.4470  0.3129
   34DOPE  H14X 4372   4.077   3.446  12.430 -2.0603  1.2182 -0.8313
   34DOPE  H14Y 4373   4.089   3.593  12.514 -0.3108 -1.5052  1.9354
   34DOPE  C315 4374   4.284   3.493  12.452 -0.1453  0.3829 -0.2356
   34DOPE  H15X 4375   4.356   3.578  12.459  0.7195 -0.4557  2.1027
   34DOPE  H15Y 4376   4.316   3.426  12.370 -2.0044 -0.8783  0.0129
   34DOPE  C316 4377   4.293   3.432  12.589 -0.0581  0.5397 -0.4060
   34DOPE  H16X 4378   4.214   3.354  12.600  0.3939  0.3347  1.8497
   34DOPE  H16Y 4379   4.274   3.507  12.668  0.7089  2.4390 -1.9705
   34DOPE  C317 4380   4.430   3.358  12.623  0.4652 -0.4414 -0.7847
   34DOPE  H17X 4381   4.427   3.267  12.559  2.7220  0.5076 -2.3942
   34DOPE  H17Y 4382   4.511   3.423  12.584  0.8097 -0.8596 -0.7762
   34DOPE  C318 4383   4.453   3.313  12.767 -0.5940  0.1291  0.6908
   34DOPE  H18X 4384   4.561   3.286  12.778 -0.4037  0.1703 -0.8207
   34DOPE  H18Y 4385   4.435   3.395  12.839 -1.2442  0.3311  0.3081
   34DOPE  H18Z 4386   4.384   3.235  12.805 -0.1823 -0.8135 -0.4333
   35DOPE     N 4387   5.956   2.924  10.620  0.1514 -0.5341  0.3738
   35DOPE   HN1 4388   5.984   3.024  10.614  1.6581 -0.8720  1.0599
   35DOPE   HN2 4389   5.893   2.904  10.540  1.1965 -1.9856 -0.1286
   35DOPE   HN3 4390   5.922   2.909  10.717 -3.8000  1.5719 -0.4876
   35DOPE   C12 4391   6.087   2.845  10.615 -0.6867  0.3841 -0.2668
   35DOPE  H12A 4392   6.066   2.742  10.652  0.6955 -0.1667 -0.9606
   35DOPE  H12B 4393   6.158   2.882  10.692 -0.3755 -0.0503 -0.3413
   35DOPE   C11 4394   6.146   2.856  10.475 -0.2106 -0.5975  0.3232
   35DOPE  H11A 4395   6.246   2.810  10.462  0.6340  1.2145  0.0053
   35DOPE  H11B 4396   6.170   2.964  10.459 -0.3836 -0.0919  2.9329
   35DOPE     P 4397   6.051   2.670  10.303  0.0051 -0.2598 -0.4605
   35DOPE   O13 4398   6.188   2.628  10.267  0.1162  0.5544 -0.5141
   35DOPE   O14 4399   5.960   2.678  10.191 -0.0763  0.0382  0.1222
   35DOPE   O11 4400   6.004   2.567  10.412 -0.5146  0.1308  0.5326
   35DOPE   O12 4401   6.051   2.814  10.374 -0.9078  0.4460  0.0277
   35DOPE    C1 4402   5.881   2.569  10.481  0.0116 -0.5744  0.2551
   35DOPE    HA 4403   5.806   2.565  10.399  0.7160 -0.2959 -0.4141
   35DOPE    HB 4404   5.860   2.671  10.520 -1.7615 -0.2553 -1.3858
   35DOPE    C2 4405   5.865   2.458  10.586 -0.4324  0.2211  0.4575
   35DOPE    HS 4406   5.755   2.462  10.601 -0.3244  2.3367  1.0352
   35DOPE   O21 4407   5.945   2.477  10.710  0.7376  0.3798  0.5157
   35DOPE   C21 4408   5.893   2.431  10.824  0.6605  0.3678  0.0490
   35DOPE   O22 4409   5.779   2.383  10.834  0.5476 -0.4434 -1.0984
   35DOPE   C22 4410   5.983   2.448  10.945 -0.4680  0.4449 -0.2570
   35DOPE   H2R 4411   6.005   2.557  10.947  2.2655 -0.0229 -0.5178
   35DOPE   H2S 4412   6.079   2.396  10.925 -0.4870  0.7945 -1.3481
   35DOPE    C3 4413   5.895   2.318  10.528 -1.1687 -0.1057  1.0264
   35DOPE    HX 4414   6.006   2.314  10.524 -1.0916  1.9466 -0.6139
   35DOPE    HY 4415   5.861   2.295  10.424  2.0898 -1.9975  0.2407
   35DOPE   O31 4416   5.853   2.218  10.615  0.5261 -0.9922 -0.0492
   35DOPE   C31 4417   5.734   2.173  10.608 -0.5328  0.4542 -0.3137
   35DOPE   O32 4418   5.647   2.205  10.530 -0.0577  0.4960 -0.8180
   35DOPE   C32 4419   5.715   2.070  10.721  0.5091  0.0055  0.0849
   35DOPE   H2X 4420   5.751   1.972  10.683 -3.3239 -1.2837 -0.5843
   35DOPE   H2Y 4421   5.769   2.098  10.814  1.0744  0.4257 -0.3632
   35DOPE   C23 4422   5.913   2.401  11.084  0.0141 -0.2111 -0.2217
   35DOPE   H3R 4423   5.909   2.290  11.088  0.1569 -0.1780  1.2664
   35DOPE   H3S 4424   5.814   2.449  11.072  0.9816  1.3679 -2.4629
   35DOPE   C24 4425   5.982   2.470  11.206 -0.5269  0.4866  0.2317
   35DOPE   H4R 4426   5.980   2.581  11.197  3.0797  0.5754 -1.7344
   35DOPE   H4S 4427   6.090   2.448  11.191 -0.5487  0.5388 -0.0170
   35DOPE   C25 4428   5.935   2.415  11.339 -0.1988 -0.0294 -0.3675
   35DOPE   H5R 4429   5.965   2.308  11.332 -0.9581 -0.2897  0.2348
   35DOPE   H5S 4430   5.825   2.433  11.343 -0.1762 -0.1134  1.5164
   35DOPE   C26 4431   5.994   2.486  11.466 -0.2989 -0.1338  0.2026
   35DOPE   H6R 4432   5.957   2.591  11.466 -0.1749 -0.0872  0.7088
   35DOPE   H6S 4433   6.102   2.491  11.441 -0.0320 -0.6123  1.2398
   35DOPE   C27 4434   5.972   2.413  11.601  0.0305  0.7938  0.4746
   35DOPE   H7R 4435   6.011   2.309  11.590 -1.8817 -0.0128  0.8602
   35DOPE   H7S 4436   5.862   2.407  11.611 -0.2425  1.8629 -1.4229
   35DOPE   C28 4437   6.030   2.478  11.722  0.4006  0.3062 -0.4125
   35DOPE   H8R 4438   5.983   2.443  11.817 -1.3135  1.7222 -0.6835
   35DOPE   H8S 4439   5.994   2.583  11.733 -3.0835 -0.8043  0.0324
   35DOPE   C29 4440   6.180   2.465  11.728  0.2092  0.7092  0.5328
   35DOPE   H9R 4441   6.227   2.514  11.642 -0.7960  0.9096  0.0888
   35DOPE  C210 4442   6.256   2.373  11.798 -0.1394  0.0342  0.1167
   35DOPE  H10R 4443   6.357   2.345  11.767 -0.8406 -1.1936 -1.1785
   35DOPE  C211 4444   6.217   2.270  11.903  0.6808 -0.2476 -0.4439
   35DOPE  H11R 4445   6.209   2.166  11.866 -0.9998 -0.2928 -0.0655
   35DOPE  H11S 4446   6.110   2.284  11.929  0.7112  0.8874 -0.8638
   35DOPE  C212 4447   6.273   2.270  12.049 -0.1586  0.2168  0.5346
   35DOPE  H12R 4448   6.382   2.253  12.039 -0.1536  0.8122 -0.5934
   35DOPE  H12S 4449   6.223   2.187  12.104  0.8700 -0.4816  0.4410
   35DOPE  C213 4450   6.265   2.406  12.120  0.4938 -0.5434  0.2899
   35DOPE  H13R 4451   6.161   2.445  12.121  0.5546 -0.3081  2.5968
   35DOPE  H13S 4452   6.312   2.485  12.057 -2.0717 -0.0731 -1.1617
   35DOPE  C214 4453   6.331   2.409  12.263 -0.6737 -0.2048 -0.0640
   35DOPE  H14R 4454   6.439   2.426  12.247 -0.9645  1.6595 -0.2428
   35DOPE  H14S 4455   6.314   2.312  12.314  1.3201  0.5894  2.2751
   35DOPE  C215 4456   6.271   2.515  12.349 -0.4478  0.1928 -0.6173
   35DOPE  H15R 4457   6.164   2.486  12.360 -0.8584  1.7373 -0.2497
   35DOPE  H15S 4458   6.277   2.603  12.281  2.8345 -0.4876 -1.3592
   35DOPE  C216 4459   6.346   2.546  12.480 -0.3692 -0.2862  0.5985
   35DOPE  H16R 4460   6.451   2.567  12.450 -0.0271 -1.1408  1.1415
   35DOPE  H16S 4461   6.352   2.451  12.538  2.6532 -0.5249  0.0778
   35DOPE  C217 4462   6.275   2.655  12.563 -0.1888  0.2791 -0.7901
   35DOPE  H17R 4463   6.178   2.614  12.598 -0.2924  1.8567  0.9451
   35DOPE  H17S 4464   6.243   2.741  12.500 -0.8178  2.7670  2.6308
   35DOPE  C218 4465   6.365   2.709  12.686 -0.1750 -0.7114 -0.1284
   35DOPE  H18R 4466   6.316   2.802  12.721 -0.2567 -0.9408  0.3755
   35DOPE  H18S 4467   6.466   2.725  12.644 -0.9665 -1.4554 -2.4979
   35DOPE  H18T 4468   6.363   2.635  12.769  0.5599 -0.4992  0.0863
   35DOPE   C33 4469   5.569   2.061  10.755 -0.0811 -0.6907  0.5529
   35DOPE   H3X 4470   5.509   1.997  10.688  2.2774 -3.9200  1.2810
   35DOPE   H3Y 4471   5.522   2.161  10.743 -1.3964 -1.4801 -1.4965
   35DOPE   C34 4472   5.543   2.020  10.903 -0.1115 -0.0196 -0.4721
   35DOPE   H4X 4473   5.438   1.986  10.921  0.8696 -1.5472  3.1967
   35DOPE   H4Y 4474   5.591   1.922  10.925 -3.2255 -1.4876  0.4899
   35DOPE   C35 4475   5.578   2.138  11.005 -0.6546  0.4530 -0.3189
   35DOPE   H5X 4476   5.498   2.216  11.007 -2.7891 -1.6146 -0.8783
   35DOPE   H5Y 4477   5.672   2.180  10.963  0.7398 -1.5807  0.6138
   35DOPE   C36 4478   5.589   2.084  11.151 -0.6829 -0.1138  0.2931
   35DOPE   H6X 4479   5.680   2.021  11.154 -0.8680 -0.3349  1.8357
   35DOPE   H6Y 4480   5.504   2.014  11.164 -0.2187 -0.8732 -0.6484
   35DOPE   C37 4481   5.595   2.208  11.243  0.3186  0.4972 -0.8802
   35DOPE   H7X 4482   5.674   2.280  11.213  1.8092 -1.1048 -0.9320
   35DOPE   H7Y 4483   5.493   2.251  11.229 -0.6560 -0.7181  1.7964
   35DOPE   C38 4484   5.605   2.167  11.387 -0.7908 -0.2143 -0.6214
   35DOPE   H8X 4485   5.525   2.099  11.423 -0.5856 -0.8806 -1.3854
   35DOPE   H8Y 4486   5.587   2.262  11.441  1.5057 -0.3724  0.5473
   35DOPE   C39 4487   5.739   2.115  11.438  0.1488  0.4495 -0.3212
   35DOPE   H9X 4488   5.818   2.105  11.362  0.3008 -0.1856 -0.0949
   35DOPE  C310 4489   5.771   2.078  11.568  0.6461 -0.3014 -0.1184
   35DOPE  H10X 4490   5.870   2.037  11.593  0.0680 -1.6461  0.0708
   35DOPE  C311 4491   5.680   2.073  11.688 -0.5249 -0.0575 -0.5617
   35DOPE  H11X 4492   5.577   2.097  11.654 -0.7316 -2.4007 -1.8074
   35DOPE  H11Y 4493   5.672   1.975  11.739 -0.9499  1.0909  1.7304
   35DOPE  C312 4494   5.709   2.173  11.803  0.0677 -0.9867 -0.1074
   35DOPE  H12X 4495   5.621   2.197  11.866  0.7529  0.6317  0.2871
   35DOPE  H12Y 4496   5.734   2.270  11.753 -0.7862  0.1441  1.5611
   35DOPE  C313 4497   5.821   2.135  11.906 -0.2900 -0.6327 -0.3487
   35DOPE  H13X 4498   5.815   2.029  11.939 -1.2264 -0.2654  0.7180
   35DOPE  H13Y 4499   5.920   2.157  11.862 -0.3077  3.2644  1.2294
   35DOPE  C314 4500   5.821   2.210  12.041 -0.3276 -0.2194  0.3935
   35DOPE  H14X 4501   5.892   2.164  12.113 -0.6583  1.6597  2.0046
   35DOPE  H14Y 4502   5.722   2.200  12.091 -1.5631 -1.1864 -2.1153
   35DOPE  C315 4503   5.848   2.362  12.043 -0.2132  0.3580 -0.0472
   35DOPE  H15X 4504   5.777   2.406  11.971 -0.1690  2.2238  0.9935
   35DOPE  H15Y 4505   5.947   2.380  11.996 -0.7013  0.5758 -1.0233
   35DOPE  C316 4506   5.845   2.437  12.174 -0.3284  0.2529 -0.5337
   35DOPE  H16X 4507   5.924   2.396  12.241  0.4200  1.0937 -0.8668
   35DOPE  H16Y 4508   5.743   2.418  12.213 -0.0928 -1.1821 -0.5797
   35DOPE  C317 4509   5.871   2.585  12.165  0.5604  0.4564  0.4723
   35DOPE  H17X 4510   5.973   2.596  12.123  0.5071 -0.4410  0.0784
   35DOPE  H17Y 4511   5.796   2.645  12.110  2.4245  4.3924  1.8392
   35DOPE  C318 4512   5.858   2.645  12.311 -0.4731  0.2556 -0.2337
   35DOPE  H18X 4513   5.870   2.755  12.301  2.0944 -0.1184 -2.3293
   35DOPE  H18Y 4514   5.762   2.622  12.362 -1.3649 -0.4666 -2.1426
   35DOPE  H18Z 4515   5.950   2.623  12.368  1.5827  0.6361 -3.1541
   36DOPE     N 4516   5.883   3.643  10.561  0.1459 -0.5630 -0.0049
   36DOPE   HN1 4517   5.867   3.592  10.649 -0.1162 -0.6128 -0.0826
   36DOPE   HN2 4518   5.862   3.744  10.572 -0.9458 -0.8026  0.2393
   36DOPE   HN3 4519   5.828   3.594  10.488  1.0385 -2.1925  0.3582
   36DOPE   C12 4520   6.021   3.617  10.518  0.0817  0.1476  0.3922
   36DOPE  H12A 4521   6.013   3.519  10.466  0.3309  0.8868 -1.0877
   36DOPE  H12B 4522   6.084   3.602  10.608  0.3352 -1.6277 -0.0385
   36DOPE   C11 4523   6.072   3.723  10.434  0.3208 -0.4042  0.4265
   36DOPE  H11A 4524   6.093   3.811  10.498 -2.0896  0.9479 -0.4863
   36DOPE  H11B 4525   5.999   3.752  10.354  0.7078 -0.4387  0.0583
   36DOPE     P 4526   6.297   3.751  10.293 -0.2081  0.2804 -0.2985
   36DOPE   O13 4527   6.253   3.892  10.286  0.5548 -0.0886  0.9038
   36DOPE   O14 4528   6.318   3.683  10.161 -0.3300 -0.1679 -0.2560
   36DOPE   O11 4529   6.430   3.753  10.379  0.0095 -0.2639 -0.5555
   36DOPE   O12 4530   6.190   3.668  10.376 -0.0225 -0.4306 -0.3369
   36DOPE    C1 4531   6.450   3.659  10.483 -0.6147 -0.1141  0.3447
   36DOPE    HA 4532   6.558   3.660  10.508 -0.5682  0.4621  0.1325
   36DOPE    HB 4533   6.421   3.553  10.463 -1.2127 -0.1981  1.5403
   36DOPE    C2 4534   6.383   3.700  10.617 -0.1839 -0.1738 -0.5821
   36DOPE    HS 4535   6.280   3.677  10.583  0.1835 -0.4416 -1.5277
   36DOPE   O21 4536   6.404   3.836  10.643  0.1626 -0.3933 -0.2476
   36DOPE   C21 4537   6.305   3.902  10.703 -0.3274  0.6450  0.5682
   36DOPE   O22 4538   6.197   3.853  10.728  0.3366 -0.6272 -0.0737
   36DOPE   C22 4539   6.348   4.041  10.723  0.1235  0.2515 -0.1499
   36DOPE   H2R 4540   6.340   4.093  10.626  0.4400 -0.2319 -0.4410
   36DOPE   H2S 4541   6.456   4.044  10.749  0.4104 -1.6921 -0.9421
   36DOPE    C3 4542   6.418   3.608  10.743 -0.3129  0.2018  0.2495
   36DOPE    HX 4543   6.528   3.612  10.762 -0.1910 -1.8803  0.2424
   36DOPE    HY 4544   6.402   3.504  10.705  0.6347 -0.0823  0.6053
   36DOPE   O31 4545   6.336   3.627  10.863  0.1623 -0.4843 -0.1679
   36DOPE   C31 4546   6.234   3.549  10.878  0.0582 -0.8223 -0.8038
   36DOPE   O32 4547   6.185   3.479  10.789 -0.4005  0.0696  0.2086
   36DOPE   C32 4548   6.184   3.566  11.016  0.9745  1.1047  0.0165
   36DOPE   H2X 4549   6.163   3.673  11.032  2.1765  1.1167  1.8227
   36DOPE   H2Y 4550   6.100   3.496  11.035  0.1761  2.6793  2.9012
   36DOPE   C23 4551   6.258   4.113  10.822 -0.1238 -0.0957  0.4892
   36DOPE   H3R 4552   6.151   4.096  10.796 -0.0109 -0.8862  0.5142
   36DOPE   H3S 4553   6.272   4.223  10.828  2.2210 -0.2545 -0.7753
   36DOPE   C24 4554   6.281   4.077  10.975  0.6267  0.8758  0.4898
   36DOPE   H4R 4555   6.205   4.142  11.025  1.1189  2.3727 -0.6324
   36DOPE   H4S 4556   6.378   4.121  11.004  0.6470  1.2367 -0.1121
   36DOPE   C25 4557   6.262   3.935  11.016  0.1848  0.1591  0.8734
   36DOPE   H5R 4558   6.348   3.880  10.973 -0.8934 -0.8140 -0.0848
   36DOPE   H5S 4559   6.163   3.898  10.981  0.0311  0.5368  0.8979
   36DOPE   C26 4560   6.277   3.913  11.170 -0.5183 -0.5685  0.0184
   36DOPE   H6R 4561   6.368   3.969  11.201 -0.0395 -1.2222 -0.1871
   36DOPE   H6S 4562   6.317   3.810  11.181  2.4371  0.0962 -2.8582
   36DOPE   C27 4563   6.159   3.941  11.259 -0.5036 -0.3499 -0.2456
   36DOPE   H7R 4564   6.065   3.891  11.229 -1.0175  0.3023  0.2455
   36DOPE   H7S 4565   6.151   4.052  11.250 -0.2316 -0.1183  1.9372
   36DOPE   C28 4566   6.195   3.907  11.408  0.5811 -0.2293 -0.0181
   36DOPE   H8R 4567   6.238   3.805  11.403 -0.8448 -0.8801  0.6561
   36DOPE   H8S 4568   6.101   3.901  11.466  0.5735  0.9922  0.1313
   36DOPE   C29 4569   6.287   4.000  11.485  0.0609  0.3846  0.1451
   36DOPE   H9R 4570   6.375   4.029  11.425 -1.3051  0.8743 -1.6967
   36DOPE  C210 4571   6.266   4.064  11.596 -0.7393 -0.4016 -0.6376
   36DOPE  H10R 4572   6.351   4.129  11.623 -1.2286  0.3207 -0.8040
   36DOPE  C211 4573   6.154   4.061  11.698  0.4218  0.5585 -0.2687
   36DOPE  H11R 4574   6.119   3.957  11.712 -1.5956  1.0394 -1.3857
   36DOPE  H11S 4575   6.069   4.114  11.651  0.2867  1.5256  1.0098
   36DOPE  C212 4576   6.194   4.136  11.828 -0.4027  0.5848  0.0411
   36DOPE  H12R 4577   6.228   4.236  11.795  1.5632  0.0658  0.4042
   36DOPE  H12S 4578   6.282   4.089  11.875 -1.1361 -1.5144 -0.5810
   36DOPE  C213 4579   6.073   4.170  11.915 -0.1814 -0.6330 -0.4638
   36DOPE  H13R 4580   6.030   4.070  11.940  1.9357 -1.9924 -1.9586
   36DOPE  H13S 4581   6.007   4.237  11.855 -2.0839 -0.3481  1.7790
   36DOPE  C214 4582   6.110   4.237  12.047  0.1133  0.1445  0.2276
   36DOPE  H14R 4583   6.169   4.326  12.015  0.0774  0.6324  1.4635
   36DOPE  H14S 4584   6.161   4.165  12.115 -0.5612  0.5365  1.1788
   36DOPE  C215 4585   5.992   4.292  12.128  0.0383 -0.1898 -0.1002
   36DOPE  H15R 4586   5.910   4.334  12.066  0.6480  0.1472 -0.6956
   36DOPE  H15S 4587   6.029   4.368  12.200  0.1549  0.0516 -0.4127
   36DOPE  C216 4588   5.931   4.172  12.200 -0.4165  0.5018  0.1894
   36DOPE  H16R 4589   6.019   4.121  12.244  1.1203  2.1441 -0.8831
   36DOPE  H16S 4590   5.887   4.108  12.120 -0.1767  0.3717  0.1610
   36DOPE  C217 4591   5.829   4.198  12.313 -0.6015  0.2511  0.0966
   36DOPE  H17R 4592   5.770   4.105  12.329 -0.1541 -0.1345 -0.4438
   36DOPE  H17S 4593   5.759   4.274  12.273 -0.7757 -0.8538 -1.8433
   36DOPE  C218 4594   5.895   4.273  12.437 -0.0721  0.0628  0.1939
   36DOPE  H18R 4595   5.824   4.274  12.523 -1.0163  1.9542 -0.5424
   36DOPE  H18S 4596   5.919   4.380  12.417  0.4906 -0.0188  0.4218
   36DOPE  H18T 4597   5.990   4.230  12.474  1.4864 -0.1451 -3.6210
   36DOPE   C33 4598   6.286   3.523  11.127 -0.5760 -0.5505 -0.7243
   36DOPE   H3X 4599   6.264   3.560  11.230  0.1896 -0.5661 -0.5517
   36DOPE   H3Y 4600   6.381   3.565  11.087 -0.8372  0.2131 -0.5621
   36DOPE   C34 4601   6.301   3.372  11.152 -0.3603 -0.4337  0.7871
   36DOPE   H4X 4602   6.205   3.316  11.146 -0.0757 -0.8226 -0.2957
   36DOPE   H4Y 4603   6.360   3.340  11.064  0.4402 -1.6478  1.7277
   36DOPE   C35 4604   6.366   3.333  11.282 -0.3905 -0.1208 -0.2362
   36DOPE   H5X 4605   6.294   3.345  11.366  2.2797  0.9161  2.0981
   36DOPE   H5Y 4606   6.453   3.398  11.302 -0.3568 -0.5411  1.1023
   36DOPE   C36 4607   6.406   3.184  11.283  0.1259 -0.3324 -0.4172
   36DOPE   H6X 4608   6.421   3.135  11.184 -0.1958 -0.0480 -0.6073
   36DOPE   H6Y 4609   6.318   3.134  11.329  0.0477  0.9456  0.8624
   36DOPE   C37 4610   6.507   3.145  11.389 -0.9367 -0.0242 -0.6338
   36DOPE   H7X 4611   6.526   3.038  11.365  1.4876  0.2618 -0.2795
   36DOPE   H7Y 4612   6.597   3.209  11.374 -0.1239 -1.2610 -1.1753
   36DOPE   C38 4613   6.461   3.135  11.538 -0.1396 -0.0975 -0.1168
   36DOPE   H8X 4614   6.548   3.089  11.591  0.8999 -0.9517 -2.4005
   36DOPE   H8Y 4615   6.379   3.060  11.541 -2.0736  1.9748  1.2071
   36DOPE   C39 4616   6.409   3.254  11.610  0.1802  0.5901 -0.5507
   36DOPE   H9X 4617   6.300   3.271  11.599  0.0503  0.3732  0.3160
   36DOPE  C310 4618   6.479   3.341  11.682  0.2803 -0.4552  0.2261
   36DOPE  H10X 4619   6.435   3.440  11.699  0.6976 -0.4484  1.3324
   36DOPE  C311 4620   6.625   3.332  11.723 -0.0722 -0.3876 -0.3107
   36DOPE  H11X 4621   6.646   3.230  11.762  0.9200 -0.4360 -0.9227
   36DOPE  H11Y 4622   6.680   3.336  11.627  4.0176 -2.4778  1.6870
   36DOPE  C312 4623   6.689   3.440  11.807  0.1284  0.1229 -0.0550
   36DOPE  H12X 4624   6.647   3.540  11.785  1.6615  0.2683 -2.7701
   36DOPE  H12Y 4625   6.796   3.453  11.782  0.9225  0.0533  2.8700
   36DOPE  C313 4626   6.668   3.422  11.959  0.5121 -0.2698  0.2323
   36DOPE  H13X 4627   6.557   3.430  11.970  0.2183 -1.8908 -1.2724
   36DOPE  H13Y 4628   6.697   3.323  12.000 -2.1002 -1.8885 -1.5258
   36DOPE  C314 4629   6.751   3.516  12.046 -0.3488 -0.1813 -0.6708
   36DOPE  H14X 4630   6.748   3.613  11.993 -0.6305  0.3049  0.2229
   36DOPE  H14Y 4631   6.862   3.509  12.049 -0.3989 -0.7858  1.5702
   36DOPE  C315 4632   6.710   3.519  12.188  0.9298 -0.7559 -0.1284
   36DOPE  H15X 4633   6.719   3.416  12.230  0.0286 -1.3873 -1.4010
   36DOPE  H15Y 4634   6.603   3.545  12.202  1.3896  0.5979  1.2028
   36DOPE  C316 4635   6.801   3.613  12.268  0.1693 -0.7086  0.1315
   36DOPE  H16X 4636   6.780   3.710  12.218  0.6728  0.0164  1.3142
   36DOPE  H16Y 4637   6.907   3.583  12.256 -0.0498 -0.6768 -2.6276
   36DOPE  C317 4638   6.769   3.615  12.420 -0.0187 -0.0437 -0.4120
   36DOPE  H17X 4639   6.824   3.698  12.468 -1.2050  1.3577 -1.3610
   36DOPE  H17Y 4640   6.660   3.637  12.428 -0.1152 -0.7660  0.3461
   36DOPE  C318 4641   6.796   3.478  12.487 -0.1792 -0.1613  1.0535
   36DOPE  H18X 4642   6.818   3.488  12.596  4.4122  1.2894  0.2505
   36DOPE  H18Y 4643   6.711   3.409  12.474 -1.6363  1.2666  2.4717
   36DOPE  H18Z 4644   6.887   3.437  12.438 -0.2822  0.6848  0.1293
   37DOPE     N 4645   4.211   2.421   9.807  0.2147 -0.1316 -0.1438
   37DOPE   HN1 4646   4.173   2.428   9.903  0.0739 -0.8684 -0.1382
   37DOPE   HN2 4647   4.154   2.481   9.743 -1.3129 -1.5603 -0.1797
   37DOPE   HN3 4648   4.197   2.325   9.770  0.3977 -0.7392  1.3207
   37DOPE   C12 4649   4.361   2.451   9.799  0.2201  0.3814  0.3288
   37DOPE  H12A 4650   4.420   2.358   9.817  0.1552  0.0796 -0.9400
   37DOPE  H12B 4651   4.383   2.524   9.881 -3.8173  1.1941  0.8912
   37DOPE   C11 4652   4.399   2.507   9.660  0.1011 -0.7080  0.0797
   37DOPE  H11A 4653   4.351   2.444   9.583 -2.5050  0.9127  0.2365
   37DOPE  H11B 4654   4.508   2.501   9.639 -0.2773 -1.2684 -1.8940
   37DOPE     P 4655   4.426   2.769   9.704  0.0929 -0.1667  0.6146
   37DOPE   O13 4656   4.365   2.886   9.643  0.9279 -0.2112 -0.0064
   37DOPE   O14 4657   4.571   2.756   9.691 -0.0548 -0.0087 -0.3868
   37DOPE   O11 4658   4.380   2.766   9.853  0.7171 -0.0700  0.6177
   37DOPE   O12 4659   4.347   2.641   9.646 -0.0968 -0.1897 -0.0241
   37DOPE    C1 4660   4.240   2.788   9.882  0.3510  0.5213 -0.4006
   37DOPE    HA 4661   4.175   2.716   9.827 -0.5648  0.0212  1.2497
   37DOPE    HB 4662   4.208   2.891   9.857  1.1247  1.7225  3.0837
   37DOPE    C2 4663   4.209   2.780  10.036 -0.0312  0.8669 -0.6131
   37DOPE    HS 4664   4.266   2.858  10.091 -0.5581  0.8581 -0.0479
   37DOPE   O21 4665   4.263   2.658  10.074 -0.1093 -0.0145  0.0065
   37DOPE   C21 4666   4.297   2.645  10.200  0.0827 -0.9772 -0.0872
   37DOPE   O22 4667   4.299   2.740  10.281 -0.2543 -0.2355  0.2973
   37DOPE   C22 4668   4.327   2.506  10.234 -0.3897 -0.2466  0.4654
   37DOPE   H2R 4669   4.384   2.456  10.153 -1.4770  1.4706 -1.4530
   37DOPE   H2S 4670   4.234   2.449  10.256  0.8589 -2.7641 -0.3855
   37DOPE    C3 4671   4.057   2.794  10.080  0.4524  0.4941 -0.1900
   37DOPE    HX 4672   4.012   2.694  10.066 -0.3723  0.9417 -0.8396
   37DOPE    HY 4673   4.013   2.868  10.009 -0.7752 -1.1875 -1.2681
   37DOPE   O31 4674   4.038   2.840  10.212 -0.4091 -0.1433 -0.2204
   37DOPE   C31 4675   4.079   2.961  10.233 -0.6488 -0.2039 -0.1775
   37DOPE   O32 4676   4.105   3.047  10.155  0.1475  0.1904  0.1419
   37DOPE   C32 4677   4.068   2.987  10.385 -0.3470 -0.0865 -0.1906
   37DOPE   H2X 4678   4.148   3.054  10.424 -1.6752  1.4349  0.0568
   37DOPE   H2Y 4679   3.975   3.048  10.386 -0.1611  0.1949  0.0605
   37DOPE   C23 4680   4.411   2.488  10.364  0.1469  0.3446  0.2838
   37DOPE   H3R 4681   4.486   2.569  10.364  0.1671  0.3258  0.2764
   37DOPE   H3S 4682   4.458   2.387  10.364 -0.7833 -0.0992  0.1866
   37DOPE   C24 4683   4.320   2.495  10.484  0.2407  0.6760  0.1471
   37DOPE   H4R 4684   4.251   2.408  10.479 -0.1342  0.7941  2.3049
   37DOPE   H4S 4685   4.266   2.592  10.484 -0.6696  0.1809  0.6242
   37DOPE   C25 4686   4.382   2.484  10.618 -0.2491 -0.0609  0.7375
   37DOPE   H5R 4687   4.464   2.558  10.626 -0.9686  1.0839 -1.5164
   37DOPE   H5S 4688   4.437   2.388  10.622  2.3410  1.2874  0.1511
   37DOPE   C26 4689   4.296   2.503  10.749  0.2570 -0.4850  0.5215
   37DOPE   H6R 4690   4.220   2.422  10.750  1.2465 -1.4349  0.6617
   37DOPE   H6S 4691   4.251   2.604  10.749 -0.2988 -0.7185  1.9382
   37DOPE   C27 4692   4.393   2.495  10.870  0.1309 -0.1336  0.6387
   37DOPE   H7R 4693   4.437   2.593  10.896  0.1449  0.7650 -2.4018
   37DOPE   H7S 4694   4.481   2.438  10.833 -0.9309  1.4018 -5.3624
   37DOPE   C28 4695   4.337   2.426  10.993  0.7578  0.3970 -0.9320
   37DOPE   H8R 4696   4.417   2.425  11.070 -1.2345 -0.7724  1.2643
   37DOPE   H8S 4697   4.300   2.322  10.980  2.2871 -0.2473 -0.3355
   37DOPE   C29 4698   4.218   2.497  11.053 -0.2494  0.0342 -0.3200
   37DOPE   H9R 4699   4.140   2.524  10.981  0.2319  0.8645 -0.5462
   37DOPE  C210 4700   4.194   2.532  11.180 -0.0294 -0.2097 -0.0124
   37DOPE  H10R 4701   4.102   2.590  11.196 -0.0213 -0.2080  0.0291
   37DOPE  C211 4702   4.282   2.527  11.301  0.5423 -0.3067 -0.1278
   37DOPE  H11R 4703   4.261   2.625  11.349 -1.0868 -0.5266 -0.3335
   37DOPE  H11S 4704   4.390   2.530  11.277  0.7162  4.0700  0.4823
   37DOPE  C212 4705   4.251   2.416  11.407 -0.2753 -0.9391 -0.4662
   37DOPE  H12R 4706   4.324   2.334  11.396 -1.1085 -1.6947 -0.4991
   37DOPE  H12S 4707   4.148   2.378  11.389 -1.1221  1.0901 -0.1727
   37DOPE  C213 4708   4.262   2.471  11.552  0.1117  0.2731  0.2298
   37DOPE  H13R 4709   4.195   2.559  11.562 -1.8738 -0.7978 -2.3093
   37DOPE  H13S 4710   4.366   2.497  11.584  0.2142  0.6688 -0.3892
   37DOPE  C214 4711   4.199   2.368  11.647 -0.5558  0.1016  0.3438
   37DOPE  H14R 4712   4.236   2.263  11.638 -1.7692 -0.1776 -3.8820
   37DOPE  H14S 4713   4.097   2.370  11.603  0.2231  1.5901 -1.5284
   37DOPE  C215 4714   4.197   2.421  11.791 -0.0392  0.2445 -0.2060
   37DOPE  H15R 4715   4.296   2.418  11.841  1.1765  1.8398 -2.3558
   37DOPE  H15S 4716   4.139   2.350  11.854  0.6683  0.2167  0.4264
   37DOPE  C216 4717   4.137   2.561  11.822 -0.3425  0.2962 -0.0591
   37DOPE  H16R 4718   4.042   2.554  11.765  0.5223 -1.0034 -1.4082
   37DOPE  H16S 4719   4.201   2.639  11.776 -1.4489  0.8302 -0.7473
   37DOPE  C217 4720   4.112   2.583  11.971 -0.3159  1.0246 -0.5108
   37DOPE  H17R 4721   4.203   2.568  12.032 -0.4417 -0.9646 -0.7593
   37DOPE  H17S 4722   4.049   2.499  12.007  2.5393 -1.0784 -0.1175
   37DOPE  C218 4723   4.043   2.715  12.006  0.3368 -0.1739 -0.4023
   37DOPE  H18R 4724   4.056   2.745  12.112  0.3003  0.2003 -0.5010
   37DOPE  H18S 4725   3.932   2.702  12.000  0.2625 -0.7281  1.5007
   37DOPE  H18T 4726   4.082   2.797  11.942  0.9097 -0.5699 -0.5706
   37DOPE   C33 4727   4.041   2.864  10.475  0.4626  0.3822 -0.6219
   37DOPE   H3X 4728   4.118   2.784  10.472  2.1246  1.8656  0.1096
   37DOPE   H3Y 4729   3.941   2.824  10.447  0.3118  0.2739  0.0482
   37DOPE   C34 4730   4.038   2.905  10.627  0.4404  0.5512  0.0396
   37DOPE   H4X 4731   4.008   2.813  10.682  0.6242 -0.2655 -1.1745
   37DOPE   H4Y 4732   4.141   2.933  10.657  0.6805  2.0325 -1.9150
   37DOPE   C35 4733   3.928   3.003  10.661 -0.4669 -0.5700  0.0166
   37DOPE   H5X 4734   3.824   2.977  10.632 -1.4738  2.7666  0.2286
   37DOPE   H5Y 4735   3.956   3.096  10.606  2.7242 -0.6994  1.1873
   37DOPE   C36 4736   3.927   3.034  10.810 -0.5389  0.0528 -0.3199
   37DOPE   H6X 4737   4.005   3.112  10.827  1.0436 -1.5661  0.2322
   37DOPE   H6Y 4738   3.953   2.945  10.871  2.7291  0.3380 -1.1043
   37DOPE   C37 4739   3.789   3.089  10.855 -0.6684  0.1141  0.7070
   37DOPE   H7X 4740   3.762   3.176  10.791  1.2293  0.4646  0.3023
   37DOPE   H7Y 4741   3.716   3.006  10.846  1.3926 -1.7164 -0.3742
   37DOPE   C38 4742   3.784   3.144  10.999 -0.2644  0.0224  0.2134
   37DOPE   H8X 4743   3.841   3.239  10.991  0.6801 -0.2874  2.5273
   37DOPE   H8Y 4744   3.842   3.078  11.067  0.6914 -1.0261 -1.5362
   37DOPE   C39 4745   3.641   3.178  11.043  0.3725  0.3593  0.0961
   37DOPE   H9X 4746   3.587   3.230  10.963  1.5446 -0.1153 -1.0440
   37DOPE  C310 4747   3.589   3.183  11.165 -0.0959  0.6510 -0.6243
   37DOPE  H10X 4748   3.486   3.217  11.184  0.3786  1.4263  0.7739
   37DOPE  C311 4749   3.663   3.137  11.287  0.3235  0.4226  0.0925
   37DOPE  H11X 4750   3.611   3.048  11.327 -3.1274  1.9120 -0.6891
   37DOPE  H11Y 4751   3.763   3.100  11.255 -0.0096 -0.8709  0.5113
   37DOPE  C312 4752   3.696   3.246  11.391  0.1065 -0.5736 -0.0627
   37DOPE  H12X 4753   3.608   3.298  11.434  1.1550  2.1762 -0.9531
   37DOPE  H12Y 4754   3.756   3.320  11.333  1.2470 -0.4657  1.2114
   37DOPE  C313 4755   3.785   3.192  11.505  0.1324 -0.7875  0.3349
   37DOPE  H13X 4756   3.871   3.141  11.457  0.8039 -0.2923  0.9877
   37DOPE  H13Y 4757   3.830   3.274  11.565  0.7111 -2.4755  2.3225
   37DOPE  C314 4758   3.725   3.095  11.613  0.1946  0.1964 -0.1892
   37DOPE  H14X 4759   3.679   3.010  11.557 -2.9963 -0.0212  2.4546
   37DOPE  H14Y 4760   3.636   3.145  11.656 -0.8761  0.9929 -3.0671
   37DOPE  C315 4761   3.823   3.044  11.721 -0.2430 -1.2309 -0.4302
   37DOPE  H15X 4762   3.911   2.991  11.679  1.4678  0.9559  0.2330
   37DOPE  H15Y 4763   3.769   2.968  11.782 -0.4365 -1.0289 -0.3470
   37DOPE  C316 4764   3.868   3.165  11.810  0.4313 -0.2409  0.4107
   37DOPE  H16X 4765   3.783   3.215  11.860 -0.4609 -1.0805 -0.2466
   37DOPE  H16Y 4766   3.930   3.246  11.765 -0.8942  0.5596 -0.0106
   37DOPE  C317 4767   3.950   3.117  11.929 -0.5744 -0.1097  0.3335
   37DOPE  H17X 4768   3.911   3.024  11.976  2.6855 -2.0311 -0.4590
   37DOPE  H17Y 4769   4.048   3.087  11.886  0.1613 -0.6051  2.2663
   37DOPE  C318 4770   3.982   3.221  12.036  0.5453  0.3247  0.4630
   37DOPE  H18X 4771   4.071   3.186  12.092  2.6076  1.9679 -1.6251
   37DOPE  H18Y 4772   4.014   3.318  11.993  1.5503  0.1507  0.8054
   37DOPE  H18Z 4773   3.895   3.246  12.100  0.4310 -1.4887  1.0956
   38DOPE     N 4774   6.244   4.884  10.153  0.4990 -0.2272 -0.0321
   38DOPE   HN1 4775   6.340   4.873  10.115  0.6490  0.5609  0.0983
   38DOPE   HN2 4776   6.243   4.955  10.229 -0.9741 -1.9248  1.6570
   38DOPE   HN3 4777   6.208   4.795  10.195 -1.5961  0.1442 -0.9239
   38DOPE   C12 4778   6.135   4.900  10.056 -0.4631 -0.5285 -0.1818
   38DOPE  H12A 4779   6.156   4.820   9.982  0.8724 -0.2101 -0.1647
   38DOPE  H12B 4780   6.139   5.002  10.012 -0.7319 -1.5108 -2.6491
   38DOPE   C11 4781   6.004   4.871  10.126 -0.1524  0.4899 -0.2549
   38DOPE  H11A 4782   5.921   4.880  10.053  0.3196 -1.8812 -1.1758
   38DOPE  H11B 4783   5.990   4.943  10.209  1.5990 -0.5962  1.0458
   38DOPE     P 4784   5.969   4.614  10.119  0.0911 -0.4073  0.0686
   38DOPE   O13 4785   6.085   4.548  10.052  0.0178 -0.1569  0.5943
   38DOPE   O14 4786   5.847   4.641  10.035 -0.2277 -0.2833  0.3021
   38DOPE   O11 4787   5.923   4.521  10.245 -0.0026 -0.1579 -0.0497
   38DOPE   O12 4788   6.001   4.750  10.192  0.1498  0.1487 -0.1214
   38DOPE    C1 4789   5.817   4.569  10.334  0.2192  0.4777  0.1447
   38DOPE    HA 4790   5.760   4.481  10.371  2.1390 -0.2379  1.5445
   38DOPE    HB 4791   5.748   4.636  10.280 -0.1871 -0.8236 -1.0042
   38DOPE    C2 4792   5.873   4.640  10.465 -0.1105 -0.9613  0.2718
   38DOPE    HS 4793   5.961   4.698  10.430 -0.3436  0.5983  2.1044
   38DOPE   O21 4794   5.908   4.550  10.576 -0.0865  0.6494  0.6650
   38DOPE   C21 4795   6.019   4.575  10.644 -0.0407 -0.2069  0.2971
   38DOPE   O22 4796   6.103   4.663  10.611 -0.0965  1.1029 -0.7376
   38DOPE   C22 4797   6.023   4.494  10.772  0.7201 -0.8720 -0.7360
   38DOPE   H2R 4798   6.005   4.386  10.756  3.9015 -1.6162  0.1549
   38DOPE   H2S 4799   5.935   4.543  10.819  1.3439  1.5193 -1.9050
   38DOPE    C3 4800   5.772   4.745  10.516  0.0400  0.1350 -0.5591
   38DOPE    HX 4801   5.681   4.699  10.561 -1.4014  2.5199 -0.8644
   38DOPE    HY 4802   5.753   4.806  10.424 -1.5479  1.2090  0.4278
   38DOPE   O31 4803   5.823   4.819  10.627 -0.3612 -0.0449  0.0798
   38DOPE   C31 4804   5.906   4.918  10.599 -0.6392 -0.3892  0.0832
   38DOPE   O32 4805   5.925   4.964  10.487  0.6321 -0.3005 -0.4295
   38DOPE   C32 4806   5.981   4.967  10.722  0.1115 -0.3453 -0.2546
   38DOPE   H2X 4807   6.090   4.943  10.718  0.3755  0.8079 -0.4250
   38DOPE   H2Y 4808   5.967   5.077  10.735  0.0568 -0.3621 -0.1736
   38DOPE   C23 4809   6.156   4.522  10.851  0.3399  0.2233 -0.1006
   38DOPE   H3R 4810   6.198   4.623  10.836 -0.8757  0.4195 -3.0026
   38DOPE   H3S 4811   6.232   4.459  10.799  1.5676  0.7315  1.0289
   38DOPE   C24 4812   6.150   4.474  10.991  0.0976 -0.4447  0.1315
   38DOPE   H4R 4813   6.125   4.368  11.009 -0.0584 -0.2846  0.9075
   38DOPE   H4S 4814   6.079   4.543  11.042  0.7797  0.6769 -0.3796
   38DOPE   C25 4815   6.300   4.489  11.043  0.0063  0.4597  0.3976
   38DOPE   H5R 4816   6.336   4.593  11.028 -1.0276  1.2042  2.6241
   38DOPE   H5S 4817   6.360   4.423  10.977 -0.2005 -1.7487  2.2988
   38DOPE   C26 4818   6.317   4.453  11.187 -0.2008  0.8179  0.4337
   38DOPE   H6R 4819   6.272   4.352  11.202  0.0460  0.8353  1.3334
   38DOPE   H6S 4820   6.269   4.528  11.253  0.2567  0.8149  0.7763
   38DOPE   C27 4821   6.466   4.424  11.220 -0.6456  0.3434  0.3264
   38DOPE   H7R 4822   6.512   4.525  11.231 -1.8287  0.7868  1.4164
   38DOPE   H7S 4823   6.530   4.364  11.153  1.9037  0.9328  2.0691
   38DOPE   C28 4824   6.483   4.349  11.354 -0.0633 -0.5102  0.0331
   38DOPE   H8R 4825   6.417   4.261  11.367 -1.7901  0.2176 -2.8061
   38DOPE   H8S 4826   6.432   4.414  11.429 -0.2639  1.2349 -1.5405
   38DOPE   C29 4827   6.624   4.308  11.388  0.1503 -0.0421 -0.6681
   38DOPE   H9R 4828   6.674   4.224  11.338 -0.0201 -2.0300  2.2614
   38DOPE  C210 4829   6.683   4.341  11.505 -0.2799 -0.8373 -0.3346
   38DOPE  H10R 4830   6.777   4.288  11.524 -1.6911 -3.3214  0.2450
   38DOPE  C211 4831   6.631   4.430  11.615 -0.4422  0.2892  0.3095
   38DOPE  H11R 4832   6.545   4.492  11.580 -0.8581  0.6119  1.8588
   38DOPE  H11S 4833   6.717   4.497  11.634 -0.4013  0.6306 -0.9650
   38DOPE  C212 4834   6.587   4.352  11.740 -0.8297 -0.2737 -0.1934
   38DOPE  H12R 4835   6.680   4.303  11.777 -1.3315 -1.9700 -1.0750
   38DOPE  H12S 4836   6.511   4.273  11.719 -1.2582 -0.3004  1.3519
   38DOPE  C213 4837   6.538   4.453  11.844 -0.5784 -0.6008 -0.2630
   38DOPE  H13R 4838   6.428   4.468  11.834 -0.4892  0.8028  0.5964
   38DOPE  H13S 4839   6.587   4.552  11.832 -1.1433 -0.0230  1.8369
   38DOPE  C214 4840   6.577   4.401  11.988 -0.2201 -0.1257 -0.7828
   38DOPE  H14R 4841   6.687   4.409  11.998 -0.1032 -1.2815 -1.0129
   38DOPE  H14S 4842   6.542   4.296  11.992  0.1600 -0.2947 -1.6560
   38DOPE  C215 4843   6.505   4.479  12.097 -0.2648 -0.4390  1.0356
   38DOPE  H15R 4844   6.530   4.438  12.198 -0.9099 -1.1977  0.8962
   38DOPE  H15S 4845   6.395   4.481  12.079 -0.4651 -1.9988  1.8400
   38DOPE  C216 4846   6.549   4.628  12.102  0.4367 -0.0142  0.9474
   38DOPE  H16R 4847   6.533   4.676  12.003 -1.0487 -2.0667  0.1185
   38DOPE  H16S 4848   6.660   4.628  12.110  0.4284 -0.0425  1.0724
   38DOPE  C217 4849   6.488   4.715  12.217  0.4010 -0.4971 -0.2874
   38DOPE  H17R 4850   6.380   4.686  12.221  0.3436 -0.3387 -0.6521
   38DOPE  H17S 4851   6.476   4.823  12.195 -0.1268 -0.4921  0.0081
   38DOPE  C218 4852   6.551   4.687  12.356  0.3734  0.0254 -0.5330
   38DOPE  H18R 4853   6.550   4.577  12.371 -1.5908 -0.4364 -3.1762
   38DOPE  H18S 4854   6.496   4.735  12.440 -1.3750 -1.1833 -0.9175
   38DOPE  H18T 4855   6.659   4.713  12.356  1.0432 -2.4949 -1.2789
   38DOPE   C33 4856   5.924   4.897  10.852 -0.8851  0.6911  0.2900
   38DOPE   H3X 4857   5.942   4.788  10.840  0.4491  0.8297  0.8328
   38DOPE   H3Y 4858   5.816   4.912  10.872 -1.2753 -2.1304  0.6521
   38DOPE   C34 4859   5.996   4.946  10.976  0.2204  0.2822  0.5382
   38DOPE   H4X 4860   6.107   4.934  10.972  0.3579  1.5491 -0.3073
   38DOPE   H4Y 4861   5.979   5.055  10.984 -0.8297  0.0822  1.1245
   38DOPE   C35 4862   5.932   4.894  11.108  1.1019  0.4206 -0.3171
   38DOPE   H5X 4863   5.933   4.783  11.108 -0.6197  0.3208  2.0884
   38DOPE   H5Y 4864   5.822   4.906  11.093  0.4116 -2.0580  2.0388
   38DOPE   C36 4865   5.975   4.971  11.232 -0.9287 -0.4404  0.9118
   38DOPE   H6X 4866   5.988   5.079  11.210  0.6832 -1.3584 -3.8106
   38DOPE   H6Y 4867   6.077   4.944  11.268 -0.5608  2.3683  2.3040
   38DOPE   C37 4868   5.892   4.953  11.356  0.1958  0.5241 -0.5015
   38DOPE   H7X 4869   5.875   4.845  11.375  1.0570  0.9947  3.8500
   38DOPE   H7Y 4870   5.952   4.980  11.445  3.1518  0.9343 -2.4694
   38DOPE   C38 4871   5.755   5.013  11.356 -0.5129  0.2932 -0.2729
   38DOPE   H8X 4872   5.706   4.952  11.435  0.6740  0.5484  0.7035
   38DOPE   H8Y 4873   5.700   4.995  11.261 -3.1489  0.1937  1.2025
   38DOPE   C39 4874   5.751   5.159  11.388 -0.5008  0.0250  1.3838
   38DOPE   H9X 4875   5.739   5.224  11.300 -1.8342 -0.7220  0.9862
   38DOPE  C310 4876   5.760   5.214  11.511 -0.5021 -0.0071 -0.6754
   38DOPE  H10X 4877   5.771   5.319  11.540 -0.3235 -0.2504  0.1732
   38DOPE  C311 4878   5.751   5.135  11.643  0.2258 -0.0263 -0.1530
   38DOPE  H11X 4879   5.648   5.154  11.679  1.8235  2.4548  3.7287
   38DOPE  H11Y 4880   5.784   5.029  11.647  1.3626  0.3012 -0.5280
   38DOPE  C312 4881   5.835   5.206  11.752  0.8182  0.3229 -1.1092
   38DOPE  H12X 4882   5.805   5.157  11.847  0.5709  2.5010 -0.0095
   38DOPE  H12Y 4883   5.805   5.313  11.747  0.6204  0.2228 -2.6080
   38DOPE  C313 4884   5.976   5.178  11.736  0.0431  0.1973  0.3834
   38DOPE  H13X 4885   5.986   5.074  11.700  0.1012  0.1279  0.5967
   38DOPE  H13Y 4886   6.014   5.239  11.651 -1.3297  1.2970  0.5227
   38DOPE  C314 4887   6.056   5.194  11.868  0.5527 -0.7899  0.2862
   38DOPE  H14X 4888   6.030   5.117  11.944  0.4846 -1.3181 -0.2654
   38DOPE  H14Y 4889   6.034   5.291  11.916  0.0184 -0.4758 -0.5686
   38DOPE  C315 4890   6.211   5.203  11.851 -0.3927 -0.1907 -0.2282
   38DOPE  H15X 4891   6.243   5.294  11.795 -1.1846  0.4955  0.4121
   38DOPE  H15Y 4892   6.243   5.113  11.793  3.3738  1.0558 -0.3320
   38DOPE  C316 4893   6.290   5.198  11.977  0.3790 -0.9779 -0.1241
   38DOPE  H16X 4894   6.256   5.105  12.027 -3.5999 -0.6097 -1.7613
   38DOPE  H16Y 4895   6.275   5.278  12.053  0.2889 -2.0444  1.0112
   38DOPE  C317 4896   6.448   5.200  11.956  0.7163 -0.5453  0.2758
   38DOPE  H17X 4897   6.470   5.123  11.879  0.7874 -1.6522  1.3720
   38DOPE  H17Y 4898   6.481   5.303  11.929  0.7662  0.1291  2.6358
   38DOPE  C318 4899   6.529   5.167  12.087  0.0330 -0.1637  0.7073
   38DOPE  H18X 4900   6.638   5.169  12.065  0.0691 -1.5370  0.6677
   38DOPE  H18Y 4901   6.499   5.235  12.170  1.3017 -1.9160  2.7074
   38DOPE  H18Z 4902   6.510   5.065  12.126 -0.9095 -1.3489 -2.5225
   39DOPE     N 4903   3.040   4.791   9.927  0.2556  0.2491 -0.2935
   39DOPE   HN1 4904   2.989   4.844  10.000  3.0180  2.8419 -0.0575
   39DOPE   HN2 4905   3.124   4.845   9.898 -0.2011  1.2231  0.1615
   39DOPE   HN3 4906   2.982   4.773   9.843  0.5970  1.2144 -0.7520
   39DOPE   C12 4907   3.095   4.662   9.973 -0.1091 -0.0016 -0.0971
   39DOPE  H12A 4908   3.015   4.614  10.033 -0.0155 -0.5042 -0.3699
   39DOPE  H12B 4909   3.185   4.681  10.036 -1.2353 -2.4608  2.4759
   39DOPE   C11 4910   3.129   4.585   9.852  0.1717 -0.5637 -0.6569
   39DOPE  H11A 4911   3.170   4.484   9.877  1.1033 -0.2882 -1.0617
   39DOPE  H11B 4912   3.211   4.636   9.797 -0.3972  0.7014 -0.3576
   39DOPE     P 4913   2.906   4.476   9.775 -0.3283  0.4088  0.0600
   39DOPE   O13 4914   2.931   4.377   9.670 -0.4993 -0.3301  0.2178
   39DOPE   O14 4915   2.783   4.557   9.764 -0.0106 -0.2969  0.1386
   39DOPE   O11 4916   2.929   4.423   9.922 -0.0113  0.0325  0.3536
   39DOPE   O12 4917   3.021   4.579   9.756  0.3365 -0.2549  0.1972
   39DOPE    C1 4918   2.983   4.299   9.962 -0.2378 -0.2441  0.3677
   39DOPE    HA 4919   3.072   4.319  10.025 -0.4822  1.8038  0.1338
   39DOPE    HB 4920   3.028   4.243   9.877  0.3565  0.4380  0.2251
   39DOPE    C2 4921   2.885   4.211  10.041  0.6655  0.3508  0.0869
   39DOPE    HS 4922   2.785   4.205   9.992  1.2008 -0.3323 -0.9433
   39DOPE   O21 4923   2.874   4.260  10.177 -0.5755  0.2199 -0.4815
   39DOPE   C21 4924   2.777   4.211  10.251  1.0403  0.0607  0.2763
   39DOPE   O22 4925   2.686   4.140  10.206 -0.1081 -0.1651 -0.0592
   39DOPE   C22 4926   2.797   4.250  10.404 -0.1785  1.0123  0.2401
   39DOPE   H2R 4927   2.855   4.344  10.418  1.7469 -0.1292  0.2822
   39DOPE   H2S 4928   2.851   4.171  10.460 -0.7136 -1.3676 -2.3742
   39DOPE    C3 4929   2.940   4.068  10.053 -0.7570  0.4585 -0.4380
   39DOPE    HX 4930   2.929   4.029   9.950 -2.1455  2.4006 -1.0740
   39DOPE    HY 4931   2.890   4.002  10.127  0.3164 -1.9688 -1.7711
   39DOPE   O31 4932   3.087   4.061  10.080 -0.3364  0.0604 -0.5040
   39DOPE   C31 4933   3.108   4.055  10.217 -0.2796 -0.3879 -0.3830
   39DOPE   O32 4934   3.027   4.050  10.309 -0.2495  0.3763  0.2190
   39DOPE   C32 4935   3.263   4.045  10.234 -0.0686  0.4618 -0.1595
   39DOPE   H2X 4936   3.298   3.981  10.150 -0.0331 -3.7511  2.7748
   39DOPE   H2Y 4937   3.306   4.147  10.227 -0.8114  0.7610 -0.5552
   39DOPE   C23 4938   2.655   4.256  10.469  0.2276 -0.5050 -0.1008
   39DOPE   H3R 4939   2.598   4.161  10.466  0.7169 -0.7789 -1.4148
   39DOPE   H3S 4940   2.587   4.332  10.427 -0.5854 -1.7383 -1.0766
   39DOPE   C24 4941   2.673   4.288  10.614  0.8186  0.0846  0.2389
   39DOPE   H4R 4942   2.697   4.396  10.623  1.7316 -0.1485  0.6929
   39DOPE   H4S 4943   2.755   4.230  10.661  1.0488  0.9128  0.8874
   39DOPE   C25 4944   2.553   4.241  10.690 -0.7606  0.2818 -0.3754
   39DOPE   H5R 4945   2.533   4.133  10.676  0.0587 -0.0641  0.9000
   39DOPE   H5S 4946   2.466   4.306  10.664 -0.2565  0.1033 -2.7600
   39DOPE   C26 4947   2.577   4.262  10.837  0.4642  0.1365 -1.1744
   39DOPE   H6R 4948   2.600   4.369  10.852  1.5258  0.1422 -2.6741
   39DOPE   H6S 4949   2.671   4.210  10.868  1.0997 -0.8087 -4.3354
   39DOPE   C27 4950   2.454   4.220  10.931 -0.3573  0.6297 -0.3705
   39DOPE   H7R 4951   2.419   4.116  10.918 -0.9606  0.6023  1.2982
   39DOPE   H7S 4952   2.374   4.291  10.901  0.6385  2.2932  0.7547
   39DOPE   C28 4953   2.498   4.251  11.079  0.2288  0.3068 -1.3209
   39DOPE   H8R 4954   2.401   4.261  11.134  0.3305  0.5561 -1.1875
   39DOPE   H8S 4955   2.556   4.345  11.081  0.2293  0.3562  1.8759
   39DOPE   C29 4956   2.588   4.146  11.132  0.7266  0.2898 -0.2738
   39DOPE   H9R 4957   2.672   4.139  11.061 -0.6567 -1.6249 -1.8295
   39DOPE  C210 4958   2.571   4.063  11.240 -0.2899  0.2299  0.3093
   39DOPE  H10R 4959   2.653   3.993  11.265 -1.3199 -0.9787  0.3992
   39DOPE  C211 4960   2.453   4.044  11.327 -0.1762  0.5896 -0.2951
   39DOPE  H11R 4961   2.414   3.940  11.317 -0.9099  0.3255  3.6788
   39DOPE  H11S 4962   2.368   4.103  11.287  0.0284  0.2369 -1.3020
   39DOPE  C212 4963   2.481   4.074  11.474  1.0511  0.1299  0.5152
   39DOPE  H12R 4964   2.555   4.003  11.516  0.1675 -1.1109  0.0494
   39DOPE  H12S 4965   2.382   4.057  11.523  0.7644 -0.9785 -0.4147
   39DOPE  C213 4966   2.499   4.224  11.502 -0.0613  0.8456 -0.0931
   39DOPE  H13R 4967   2.434   4.275  11.428  1.7047 -0.3829 -2.6520
   39DOPE  H13S 4968   2.598   4.263  11.470 -0.1066  1.1015  0.0748
   39DOPE  C214 4969   2.486   4.271  11.647 -0.4276  0.1230 -0.4058
   39DOPE  H14R 4970   2.379   4.259  11.672 -0.5427  2.1959  0.2421
   39DOPE  H14S 4971   2.523   4.375  11.646  2.8942 -0.9414 -0.3160
   39DOPE  C215 4972   2.585   4.203  11.742  0.0686  0.0976 -0.2828
   39DOPE  H15R 4973   2.676   4.164  11.691 -0.1515  0.6771 -1.1454
   39DOPE  H15S 4974   2.533   4.106  11.754  0.0711  0.1003 -0.2529
   39DOPE  C216 4975   2.628   4.277  11.869 -0.3697 -0.2800 -0.9512
   39DOPE  H16R 4976   2.536   4.320  11.915  0.8191 -1.1141  2.4350
   39DOPE  H16S 4977   2.685   4.368  11.839 -0.8156 -0.0792 -1.2035
   39DOPE  C217 4978   2.713   4.186  11.955 -0.1296  0.1457  0.4665
   39DOPE  H17R 4979   2.794   4.136  11.897 -0.5791  1.1601 -1.0962
   39DOPE  H17S 4980   2.633   4.110  11.971 -1.2874  1.0276 -0.8783
   39DOPE  C218 4981   2.752   4.242  12.092 -0.5430 -0.2952 -0.3413
   39DOPE  H18R 4982   2.663   4.275  12.150 -0.6945  0.6756 -1.0960
   39DOPE  H18S 4983   2.820   4.329  12.075 -1.0808  0.5183  1.4163
   39DOPE  H18T 4984   2.800   4.162  12.152 -1.5614 -1.3949 -0.9589
   39DOPE   C33 4985   3.319   3.975  10.355  1.1878  0.2234 -0.9690
   39DOPE   H3X 4986   3.274   3.875  10.372  0.8655  0.8009  2.0659
   39DOPE   H3Y 4987   3.290   4.023  10.451  1.8514  0.9070 -1.1045
   39DOPE   C34 4988   3.467   3.943  10.335  0.3564  0.7360 -0.9609
   39DOPE   H4X 4989   3.479   3.895  10.236  0.1998  0.2477 -0.7452
   39DOPE   H4Y 4990   3.523   4.038  10.347 -0.3141  0.9626  0.6085
   39DOPE   C35 4991   3.523   3.841  10.435 -0.2109 -0.4037  0.1857
   39DOPE   H5X 4992   3.628   3.817  10.410 -0.6681 -1.9514 -0.3199
   39DOPE   H5Y 4993   3.468   3.745  10.424  0.2647 -0.7707  0.8928
   39DOPE   C36 4994   3.517   3.891  10.575  1.0283 -0.0137 -0.0830
   39DOPE   H6X 4995   3.417   3.914  10.617  2.4608  2.7328  2.2614
   39DOPE   H6Y 4996   3.571   3.989  10.575  3.5590 -1.3122 -1.8244
   39DOPE   C37 4997   3.571   3.792  10.676  0.0302  0.4584  0.4366
   39DOPE   H7X 4998   3.495   3.712  10.683 -1.1989  1.7237  2.5397
   39DOPE   H7Y 4999   3.673   3.751  10.656 -0.0340  1.3034 -1.9429
   39DOPE   C38 5000   3.602   3.855  10.808  0.3213  1.1764  0.1669
   39DOPE   H8X 5001   3.676   3.936  10.788  2.0867 -0.1032  1.2136
   39DOPE   H8Y 5002   3.663   3.778  10.860 -0.4049  0.3375 -0.2084
   39DOPE   C39 5003   3.474   3.907  10.870  0.3755  0.2028  0.3215
   39DOPE   H9X 5004   3.387   3.880  10.809  0.4813 -0.1734  0.3337
   39DOPE  C310 5005   3.449   3.982  10.981  0.3562  0.4391  0.0009
   39DOPE  H10X 5006   3.348   4.015  11.009 -0.7829 -2.6943  0.0015
   39DOPE  C311 5007   3.567   4.035  11.060  0.1806 -0.4406 -0.1699
   39DOPE  H11X 5008   3.667   3.998  11.030  1.4664  2.1365  0.6459
   39DOPE  H11Y 5009   3.585   4.141  11.032  3.7050 -0.7765  0.4106
   39DOPE  C312 5010   3.547   4.030  11.211  0.0628 -0.7310  0.0694
   39DOPE  H12X 5011   3.639   4.080  11.250 -0.6490  0.6667  0.0405
   39DOPE  H12Y 5012   3.531   3.924  11.239 -1.8701  0.1386  2.6396
   39DOPE  C313 5013   3.437   4.127  11.261  0.0090  0.3162  0.1338
   39DOPE  H13X 5014   3.449   4.229  11.216  0.4261 -0.6126 -2.0002
   39DOPE  H13Y 5015   3.340   4.090  11.223  0.6966 -0.2104 -1.1579
   39DOPE  C314 5016   3.435   4.126  11.410 -0.6955  0.2230 -0.8493
   39DOPE  H14X 5017   3.537   4.138  11.451 -0.4367 -0.2755 -1.3364
   39DOPE  H14Y 5018   3.410   4.020  11.434  3.4076 -0.7931 -0.2971
   39DOPE  C315 5019   3.347   4.234  11.473 -0.6846  0.1645  0.0494
   39DOPE  H15X 5020   3.339   4.214  11.582 -0.7039 -1.0443 -0.1594
   39DOPE  H15Y 5021   3.245   4.212  11.434 -0.7936  1.0480 -0.1824
   39DOPE  C316 5022   3.388   4.376  11.447  0.2346  0.5797 -0.2891
   39DOPE  H16X 5023   3.317   4.452  11.486 -1.7026  0.0988 -2.6824
   39DOPE  H16Y 5024   3.384   4.400  11.339  1.0189 -0.2052 -0.5079
   39DOPE  C317 5025   3.526   4.418  11.497  0.5944 -0.1850  0.0366
   39DOPE  H17X 5026   3.597   4.347  11.451 -0.4216  0.6154 -2.9740
   39DOPE  H17Y 5027   3.551   4.518  11.455  1.9862 -0.8756 -0.8364
   39DOPE  C318 5028   3.532   4.404  11.649  0.3103  0.2808  0.6058
   39DOPE  H18X 5029   3.453   4.462  11.701  0.2618  1.2585 -0.5399
   39DOPE  H18Y 5030   3.533   4.298  11.683 -0.1373  0.0694 -0.0180
   39DOPE  H18Z 5031   3.625   4.446  11.692  1.9959 -0.9313 -1.6624
   40DOPE     N 5032   4.634   4.014  10.275 -0.1388  0.1062  0.1835
   40DOPE   HN1 5033   4.716   4.072  10.301 -0.4051  1.9854 -2.6609
   40DOPE   HN2 5034   4.573   4.086  10.231  0.3578 -0.1284 -0.9315
   40DOPE   HN3 5035   4.578   3.966  10.348 -1.1891 -1.1994 -1.3941
   40DOPE   C12 5036   4.672   3.909  10.168  0.0586  0.4389  0.8527
   40DOPE  H12A 5037   4.600   3.826  10.183 -1.9819  1.7491 -1.0122
   40DOPE  H12B 5038   4.776   3.874  10.183  0.7449 -0.2046 -3.9558
   40DOPE   C11 5039   4.632   3.958  10.026  0.0496  0.1314 -0.4379
   40DOPE  H11A 5040   4.658   3.878   9.953 -1.9733 -0.5259 -0.5213
   40DOPE  H11B 5041   4.686   4.048   9.991  1.9001 -0.5729  0.4977
   40DOPE     P 5042   4.433   4.128   9.999  0.0220 -0.5244  0.1476
   40DOPE   O13 5043   4.309   4.130  10.083 -0.3642 -0.2265 -0.2226
   40DOPE   O14 5044   4.418   4.161   9.858 -0.8291 -0.4708  0.1567
   40DOPE   O11 5045   4.544   4.213  10.079 -0.0109 -0.1219 -0.1014
   40DOPE   O12 5046   4.492   3.980  10.016  0.2227  0.3525  0.6297
   40DOPE    C1 5047   4.547   4.353  10.058 -0.4953 -0.2534  0.0206
   40DOPE    HA 5048   4.496   4.387   9.966  0.0162  1.9834  0.5081
   40DOPE    HB 5049   4.651   4.390  10.048  0.0778 -1.0816  2.2899
   40DOPE    C2 5050   4.492   4.423  10.190 -0.1602 -0.0837  0.4361
   40DOPE    HS 5051   4.571   4.404  10.266  1.5358  0.4965 -1.1119
   40DOPE   O21 5052   4.357   4.373  10.234 -0.3897  0.1658 -0.0598
   40DOPE   C21 5053   4.366   4.283  10.327  0.2840  0.2635  0.0155
   40DOPE   O22 5054   4.468   4.232  10.366  0.0086 -0.4690 -0.5153
   40DOPE   C22 5055   4.235   4.263  10.405  0.0993 -0.5798  0.1465
   40DOPE   H2R 5056   4.248   4.179  10.477  1.5735  1.3165  2.2539
   40DOPE   H2S 5057   4.161   4.226  10.331  2.2029 -3.7998 -0.5387
   40DOPE    C3 5058   4.484   4.575  10.174  0.4369 -0.5780  0.4416
   40DOPE    HX 5059   4.405   4.599  10.099  0.1545  0.8122  1.1485
   40DOPE    HY 5060   4.573   4.616  10.122  0.6255  1.4941  2.2454
   40DOPE   O31 5061   4.439   4.633  10.291 -0.0028 -0.0887 -0.3462
   40DOPE   C31 5062   4.540   4.650  10.377  0.3797  0.1624 -0.2981
   40DOPE   O32 5063   4.657   4.622  10.357 -0.3852  0.5424 -0.8610
   40DOPE   C32 5064   4.489   4.706  10.506 -0.1740 -0.2319 -0.0976
   40DOPE   H2X 5065   4.378   4.698  10.509 -0.4774  2.8824  1.7737
   40DOPE   H2Y 5066   4.527   4.642  10.589 -2.4906  0.2605  1.4343
   40DOPE   C23 5067   4.204   4.383  10.489  0.5335 -0.3157 -0.6561
   40DOPE   H3R 5068   4.103   4.378  10.536  0.9446 -1.1205  0.1948
   40DOPE   H3S 5069   4.225   4.480  10.440  0.5418  0.2731  0.4684
   40DOPE   C24 5070   4.293   4.386  10.617 -0.0921 -0.4975  0.5208
   40DOPE   H4R 5071   4.394   4.410  10.577 -0.2951  1.7271  1.2534
   40DOPE   H4S 5072   4.295   4.289  10.671  0.2817 -1.4825 -1.1614
   40DOPE   C25 5073   4.261   4.505  10.714  0.2928 -0.2763  0.0700
   40DOPE   H5R 5074   4.154   4.501  10.741  0.1168 -0.1090 -0.5857
   40DOPE   H5S 5075   4.262   4.601  10.658 -2.4027  0.0640  0.4953
   40DOPE   C26 5076   4.361   4.509  10.826 -0.0419 -0.0008  0.1698
   40DOPE   H6R 5077   4.342   4.607  10.875  2.5528  0.1430  1.0044
   40DOPE   H6S 5078   4.466   4.517  10.790  0.4813  0.5036  1.7308
   40DOPE   C27 5079   4.348   4.396  10.924  0.4837 -0.3392 -0.2157
   40DOPE   H7R 5080   4.348   4.295  10.878  1.2602 -1.1457  1.4569
   40DOPE   H7S 5081   4.250   4.420  10.972  0.7547  2.5908 -0.9610
   40DOPE   C28 5082   4.462   4.397  11.025 -0.6615 -0.1555 -0.5260
   40DOPE   H8R 5083   4.468   4.493  11.079  2.3688 -0.7168  0.3003
   40DOPE   H8S 5084   4.566   4.393  10.986 -0.6704 -2.2058 -0.4608
   40DOPE   C29 5085   4.437   4.284  11.118 -0.5076 -0.3476 -0.0258
   40DOPE   H9R 5086   4.376   4.199  11.081 -1.7350  0.7570 -0.6200
   40DOPE  C210 5087   4.480   4.280  11.247  0.4964 -0.5177 -0.6085
   40DOPE  H10R 5088   4.480   4.184  11.301  0.4595  0.1471  0.6023
   40DOPE  C211 5089   4.552   4.393  11.318 -0.2636  0.8862 -0.5097
   40DOPE  H11R 5090   4.600   4.474  11.258 -0.4554  2.5196  1.4440
   40DOPE  H11S 5091   4.635   4.351  11.379  1.8042  2.3608 -2.1563
   40DOPE  C212 5092   4.467   4.481  11.411 -0.3149  0.1973 -0.2582
   40DOPE  H12R 5093   4.370   4.496  11.360 -0.5600  0.2692  0.2198
   40DOPE  H12S 5094   4.520   4.579  11.415  0.3201 -0.1291 -0.5867
   40DOPE  C213 5095   4.433   4.419  11.552 -0.1747  0.7755  0.3439
   40DOPE  H13R 5096   4.525   4.406  11.613 -2.5656 -2.0745  3.7467
   40DOPE  H13S 5097   4.379   4.324  11.532 -0.1573  0.4097  1.9228
   40DOPE  C214 5098   4.338   4.514  11.622 -0.6503  0.1030  0.4090
   40DOPE  H14R 5099   4.237   4.501  11.577  0.2873 -1.3835 -1.3880
   40DOPE  H14S 5100   4.367   4.620  11.604  1.5952 -0.1977  1.8719
   40DOPE  C215 5101   4.334   4.487  11.771 -0.1948  0.7115  0.4824
   40DOPE  H15R 5102   4.439   4.493  11.806 -0.0108 -1.2398  0.3364
   40DOPE  H15S 5103   4.290   4.386  11.787 -0.4629  1.0508  2.0966
   40DOPE  C216 5104   4.266   4.586  11.854 -0.5381  0.5504  0.3801
   40DOPE  H16R 5105   4.157   4.570  11.839 -0.8466  1.0270  1.9722
   40DOPE  H16S 5106   4.296   4.690  11.828  0.8251 -0.0118 -0.4158
   40DOPE  C217 5107   4.280   4.560  12.005 -0.2898  0.1045 -0.2978
   40DOPE  H17R 5108   4.389   4.571  12.026 -0.7719  2.5537  1.4431
   40DOPE  H17S 5109   4.259   4.453  12.025  1.7455  0.0308  1.8782
   40DOPE  C218 5110   4.195   4.653  12.091 -0.6237  0.0969 -0.4854
   40DOPE  H18R 5111   4.209   4.639  12.201 -4.4602 -0.6969  0.0250
   40DOPE  H18S 5112   4.088   4.635  12.068 -0.9052 -0.1157  0.8550
   40DOPE  H18T 5113   4.216   4.756  12.056 -2.2361 -0.2884 -2.8271
   40DOPE   C33 5114   4.554   4.843  10.526 -0.3791 -0.1361  0.7419
   40DOPE   H3X 5115   4.550   4.909  10.436  2.3532  1.2848  1.5840
   40DOPE   H3Y 5116   4.663   4.836  10.543  0.4611  2.7708 -2.3682
   40DOPE   C34 5117   4.479   4.917  10.638 -0.2407 -0.6789 -0.8145
   40DOPE   H4X 5118   4.492   5.027  10.640  0.1292 -0.7120  0.9309
   40DOPE   H4Y 5119   4.370   4.897  10.636 -0.4010  0.1851 -1.3357
   40DOPE   C35 5120   4.518   4.867  10.777  0.4386  0.7126 -0.1895
   40DOPE   H5X 5121   4.628   4.871  10.796  0.4190 -0.8050  0.3948
   40DOPE   H5Y 5122   4.481   4.762  10.771 -3.1009  1.7821  0.7343
   40DOPE   C36 5123   4.449   4.949  10.881  1.0317  0.7764 -0.0875
   40DOPE   H6X 5124   4.353   4.988  10.842 -0.0069 -1.2532  0.2764
   40DOPE   H6Y 5125   4.515   5.031  10.916  1.4748  0.4626 -0.1763
   40DOPE   C37 5126   4.419   4.870  11.010  0.0193  0.0375 -0.8391
   40DOPE   H7X 5127   4.325   4.810  11.005  0.4297 -1.5338  4.2457
   40DOPE   H7Y 5128   4.494   4.789  11.009  0.8621  0.8061 -2.1729
   40DOPE   C38 5129   4.436   4.954  11.136  0.0104  0.0474  0.2063
   40DOPE   H8X 5130   4.366   5.041  11.132  0.1666  0.1569 -0.2402
   40DOPE   H8Y 5131   4.536   5.001  11.153 -0.3456  1.1243 -0.5391
   40DOPE   C39 5132   4.408   4.858  11.250  0.0915  0.2625 -0.6821
   40DOPE   H9X 5133   4.427   4.751  11.240  1.5771  0.0433  2.9512
   40DOPE  C310 5134   4.348   4.893  11.364  0.0052  0.1535 -1.2436
   40DOPE  H10X 5135   4.318   4.811  11.432 -0.8242  1.1645 -0.3605
   40DOPE  C311 5136   4.298   5.032  11.404  0.4252  0.0333 -0.0185
   40DOPE  H11X 5137   4.343   5.106  11.334 -0.9123  0.0302 -0.9234
   40DOPE  H11Y 5138   4.191   5.051  11.383  0.4853  2.5432  1.5560
   40DOPE  C312 5139   4.320   5.065  11.553 -0.5080  0.4889 -0.2055
   40DOPE  H12X 5140   4.292   5.172  11.566  1.6586  1.0330  0.3821
   40DOPE  H12Y 5141   4.424   5.040  11.584 -1.2115 -3.7724 -0.6478
   40DOPE  C313 5142   4.227   4.989  11.653 -0.3568 -0.7351 -0.5889
   40DOPE  H13X 5143   4.127   4.999  11.605  0.1195  0.0175 -1.4679
   40DOPE  H13Y 5144   4.261   4.884  11.657  2.9843  0.2628  0.9779
   40DOPE  C314 5145   4.204   5.057  11.782  0.2908  0.6687 -0.5222
   40DOPE  H14X 5146   4.182   5.164  11.761 -1.3426  0.1939 -1.4696
   40DOPE  H14Y 5147   4.295   5.054  11.845  0.5161 -1.2582 -0.9013
   40DOPE  C315 5148   4.081   5.001  11.864 -0.6842 -0.2461 -0.0418
   40DOPE  H15X 5149   4.060   4.892  11.869 -2.3245  0.0280 -0.4289
   40DOPE  H15Y 5150   3.993   5.029  11.802 -0.2577  0.4232 -0.3556
   40DOPE  C316 5151   4.086   5.057  12.010 -0.4786  0.9771 -0.1651
   40DOPE  H16X 5152   4.150   5.147  12.017  0.1191  0.4388  3.1516
   40DOPE  H16Y 5153   4.152   4.989  12.070 -1.4379  1.4067  1.4414
   40DOPE  C317 5154   3.948   5.079  12.071 -0.5680  0.0191 -0.0889
   40DOPE  H17X 5155   3.963   5.098  12.180  0.2164 -0.8626 -0.0328
   40DOPE  H17Y 5156   3.903   5.167  12.020  1.3229  1.5725  0.7774
   40DOPE  C318 5157   3.851   4.964  12.053  0.5751  0.4019  0.4120
   40DOPE  H18X 5158   3.865   4.887  12.131 -0.1176  0.1483  0.2945
   40DOPE  H18Y 5159   3.744   4.993  12.045  1.3380  4.0356  1.5375
   40DOPE  H18Z 5160   3.868   4.916  11.954  1.5619  0.8825  0.3280
   41DOPE     N 5161   3.502   4.967   9.381  0.4520  0.1410 -0.3971
   41DOPE   HN1 5162   3.469   5.065   9.374  0.4541  0.2094  0.3962
   41DOPE   HN2 5163   3.543   4.943   9.289 -0.5414  0.2069 -0.8691
   41DOPE   HN3 5164   3.427   4.896   9.396  1.6569 -1.1488 -0.3123
   41DOPE   C12 5165   3.594   4.973   9.499  0.4295 -0.2231  0.2230
   41DOPE  H12A 5166   3.688   5.023   9.467  0.3729  0.6452  1.3538
   41DOPE  H12B 5167   3.609   4.868   9.533 -2.2097 -1.3127 -1.5791
   41DOPE   C11 5168   3.543   5.057   9.615  0.5400 -1.2249 -0.2467
   41DOPE  H11A 5169   3.537   5.165   9.587 -2.9525 -1.3474 -0.4227
   41DOPE  H11B 5170   3.612   5.063   9.702  1.5307  1.8040 -1.1288
   41DOPE     P 5171   3.383   4.922   9.776 -0.0313 -0.4829  0.0715
   41DOPE   O13 5172   3.456   4.796   9.744  0.1032 -0.1700 -0.2043
   41DOPE   O14 5173   3.244   4.911   9.812 -0.3040 -0.4277 -0.1756
   41DOPE   O11 5174   3.464   5.000   9.887  0.8158  0.2670 -0.4763
   41DOPE   O12 5175   3.406   5.018   9.651  0.0007  0.2549 -0.5267
   41DOPE    C1 5176   3.432   5.136   9.917  0.2461 -0.1803  0.0441
   41DOPE    HA 5177   3.355   5.187   9.854  1.1375 -0.0861 -1.0053
   41DOPE    HB 5178   3.524   5.197   9.911 -0.2994  0.9244  2.1301
   41DOPE    C2 5179   3.373   5.162  10.059  0.2670  0.0718  0.5006
   41DOPE    HS 5180   3.356   5.271  10.062  2.3919  0.5134 -1.1262
   41DOPE   O21 5181   3.475   5.106  10.141  0.1498  0.0165  0.1743
   41DOPE   C21 5182   3.464   5.148  10.266 -0.3818 -0.0165 -0.0829
   41DOPE   O22 5183   3.388   5.236  10.302  0.2726 -0.0336 -0.4589
   41DOPE   C22 5184   3.582   5.083  10.343  0.3822 -0.0065 -0.2447
   41DOPE   H2R 5185   3.668   5.144  10.308  0.4654 -1.2267 -2.3123
   41DOPE   H2S 5186   3.579   4.976  10.314 -2.8844  0.4274 -2.0554
   41DOPE    C3 5187   3.238   5.068  10.082 -0.0317  0.7020  0.5861
   41DOPE    HX 5188   3.259   4.959  10.077  1.0467  0.8923  0.6826
   41DOPE    HY 5189   3.178   5.081   9.989  1.0804 -0.0460 -0.2638
   41DOPE   O31 5190   3.152   5.096  10.193  0.8163  0.1974 -0.3395
   41DOPE   C31 5191   3.150   5.016  10.300  0.2082  0.6489  0.4463
   41DOPE   O32 5192   3.190   4.903  10.300  0.1229  0.0763 -0.8130
   41DOPE   C32 5193   3.101   5.093  10.424 -0.3176  0.2002  0.2545
   41DOPE   H2X 5194   3.173   5.172  10.453  0.4466 -0.6715  0.8134
   41DOPE   H2Y 5195   3.005   5.134  10.388  0.3289 -1.4167 -3.8105
   41DOPE   C23 5196   3.591   5.090  10.495  0.0756  0.3452 -0.8507
   41DOPE   H3R 5197   3.600   5.198  10.520 -3.1600  0.6537 -0.5972
   41DOPE   H3S 5198   3.685   5.041  10.529 -0.8947 -0.0981  1.3899
   41DOPE   C24 5199   3.473   5.031  10.574 -0.1547  0.0511  0.1095
   41DOPE   H4R 5200   3.434   4.940  10.524 -3.1580  0.3350  1.7077
   41DOPE   H4S 5201   3.393   5.108  10.570  0.2477  0.4331 -0.5545
   41DOPE   C25 5202   3.488   4.990  10.721 -0.1556  0.2842 -0.3393
   41DOPE   H5R 5203   3.552   4.901  10.742 -0.5689 -0.2946 -1.4160
   41DOPE   H5S 5204   3.386   4.964  10.754  0.2847 -0.0216  0.8266
   41DOPE   C26 5205   3.548   5.100  10.805  0.2208  0.5823  0.6201
   41DOPE   H6R 5206   3.502   5.197  10.777  2.3365  1.0453 -1.6256
   41DOPE   H6S 5207   3.658   5.104  10.787  0.1332  3.4264  0.1911
   41DOPE   C27 5208   3.529   5.085  10.954  0.4715 -0.0686  0.1263
   41DOPE   H7R 5209   3.568   5.176  11.005 -3.7334  1.4041  1.1538
   41DOPE   H7S 5210   3.589   4.996  10.983 -0.3031 -0.9096 -0.8070
   41DOPE   C28 5211   3.390   5.064  11.010 -0.1178  0.1132 -0.5124
   41DOPE   H8R 5212   3.344   4.975  10.962 -1.6133  1.7706 -2.3114
   41DOPE   H8S 5213   3.329   5.155  10.996  1.5659  1.2802 -0.5305
   41DOPE   C29 5214   3.403   5.035  11.158  0.5503 -0.0231 -0.2077
   41DOPE   H9R 5215   3.438   5.120  11.219 -2.8059  1.1864  0.2408
   41DOPE  C210 5216   3.366   4.922  11.221 -0.4374  0.3133 -1.0209
   41DOPE  H10R 5217   3.377   4.923  11.330  0.8330  0.4831 -1.1351
   41DOPE  C211 5218   3.304   4.799  11.170  0.0076  0.9848 -0.4118
   41DOPE  H11R 5219   3.318   4.803  11.060 -0.4114 -1.2905 -0.6022
   41DOPE  H11S 5220   3.196   4.789  11.192  0.0142  0.1121 -0.7084
   41DOPE  C212 5221   3.383   4.662  11.199 -0.3061 -0.1666  0.3191
   41DOPE  H12R 5222   3.331   4.566  11.178  1.0855 -0.9357  0.2680
   41DOPE  H12S 5223   3.398   4.674  11.308 -0.9068 -3.1305  0.8125
   41DOPE  C213 5224   3.523   4.655  11.121  0.3212  0.0827 -0.1389
   41DOPE  H13R 5225   3.572   4.562  11.156 -1.5047 -0.4362  1.2465
   41DOPE  H13S 5226   3.580   4.744  11.155  0.7737 -0.0791 -0.4638
   41DOPE  C214 5227   3.509   4.666  10.965  0.7123  0.2607 -0.3225
   41DOPE  H14R 5228   3.491   4.766  10.920 -1.3026  0.1163  0.0595
   41DOPE  H14S 5229   3.423   4.602  10.935  1.9702 -0.4669 -2.5438
   41DOPE  C215 5230   3.636   4.619  10.890 -0.5503  0.5797  0.7174
   41DOPE  H15R 5231   3.725   4.652  10.947  0.1521  0.9954 -0.5689
   41DOPE  H15S 5232   3.642   4.671  10.792  1.0209 -0.6166  0.1276
   41DOPE  C216 5233   3.656   4.467  10.873  0.3148  0.0109 -0.4461
   41DOPE  H16R 5234   3.568   4.423  10.821  0.6200  1.2899 -2.1201
   41DOPE  H16S 5235   3.674   4.414  10.969  0.0387 -0.3469 -0.5913
   41DOPE  C217 5236   3.771   4.437  10.777 -0.2977  0.1742  0.5869
   41DOPE  H17R 5237   3.876   4.438  10.813  0.1361 -0.5771 -0.5988
   41DOPE  H17S 5238   3.756   4.516  10.700 -1.7064 -1.5866 -1.0731
   41DOPE  C218 5239   3.749   4.302  10.708  0.1740  0.0556 -0.1044
   41DOPE  H18R 5240   3.751   4.224  10.787  1.5425  0.9186  0.7602
   41DOPE  H18S 5241   3.821   4.275  10.629 -0.0017 -1.9409  0.3716
   41DOPE  H18T 5242   3.648   4.301  10.661 -1.5726 -2.2972  3.2491
   41DOPE   C33 5243   3.091   4.997  10.546 -0.2013  0.6499  0.7097
   41DOPE   H3X 5244   3.183   4.935  10.549  0.2499  0.8853 -3.0616
   41DOPE   H3Y 5245   3.004   4.931  10.527 -0.2359  0.8501  0.1363
   41DOPE   C34 5246   3.055   5.070  10.683  0.3331 -0.4758  0.7394
   41DOPE   H4X 5247   3.136   5.142  10.709  0.9043  0.2573 -2.5935
   41DOPE   H4Y 5248   2.966   5.135  10.673  1.2270  0.8468  1.1664
   41DOPE   C35 5249   3.035   4.978  10.804 -0.4281 -0.5052 -0.0805
   41DOPE   H5X 5250   3.132   4.923  10.808  0.0620  0.4025  1.6051
   41DOPE   H5Y 5251   2.956   4.902  10.791 -1.4665  0.6446 -0.6941
   41DOPE   C36 5252   2.997   5.061  10.925 -0.2800 -0.2823 -0.0917
   41DOPE   H6X 5253   2.906   5.118  10.897  0.2336  1.5852  1.8260
   41DOPE   H6Y 5254   3.084   5.128  10.940 -0.0004 -0.5790 -0.3520
   41DOPE   C37 5255   2.970   4.978  11.052  0.1196 -0.3235  0.2023
   41DOPE   H7X 5256   2.880   4.914  11.050  0.1670 -0.3777 -0.2231
   41DOPE   H7Y 5257   3.066   4.924  11.068  0.0376  0.1617  2.7523
   41DOPE   C38 5258   2.948   5.069  11.179 -0.2055 -0.3408  0.2908
   41DOPE   H8X 5259   2.854   5.121  11.154 -0.0594 -0.9345 -1.7510
   41DOPE   H8Y 5260   3.032   5.140  11.195 -1.0782  0.2618  2.5318
   41DOPE   C39 5261   2.930   4.971  11.295 -0.1789 -0.1767  0.0670
   41DOPE   H9X 5262   2.860   4.886  11.288 -1.0055  0.3423  1.5138
   41DOPE  C310 5263   2.992   4.989  11.415  0.2015 -0.5343  0.4558
   41DOPE  H10X 5264   2.975   4.910  11.490 -2.1182  0.6199  1.2335
   41DOPE  C311 5265   3.103   5.091  11.440  0.2791 -0.1735  0.3289
   41DOPE  H11X 5266   3.202   5.060  11.400  0.5897  0.6471  0.4354
   41DOPE  H11Y 5267   3.071   5.183  11.386  1.7969 -0.1147 -0.5317
   41DOPE  C312 5268   3.138   5.132  11.587  0.5212 -0.1888  0.1959
   41DOPE  H12X 5269   3.049   5.179  11.634  0.4354 -0.5289  0.3768
   41DOPE  H12Y 5270   3.206   5.218  11.574 -1.1478  1.1918  0.2188
   41DOPE  C313 5271   3.178   5.017  11.682  0.9937 -0.1456 -0.1269
   41DOPE  H13X 5272   3.112   4.929  11.691 -0.2138  0.4504 -2.4181
   41DOPE  H13Y 5273   3.277   4.971  11.659  0.3194 -1.3039 -0.7759
   41DOPE  C314 5274   3.182   5.079  11.828 -0.7927 -0.5242 -0.4619
   41DOPE  H14X 5275   3.081   5.109  11.863 -1.2642  0.2104 -2.3454
   41DOPE  H14Y 5276   3.258   5.159  11.846 -0.9724 -0.1615 -1.2978
   41DOPE  C315 5277   3.209   4.959  11.926  0.4838  0.7475 -0.0179
   41DOPE  H15X 5278   3.319   4.943  11.926  0.5820  1.3939 -0.7646
   41DOPE  H15Y 5279   3.167   4.864  11.887  1.8523  0.7073 -1.5120
   41DOPE  C316 5280   3.154   4.984  12.065  0.2148 -0.4964  0.3645
   41DOPE  H16X 5281   3.160   4.889  12.122 -1.8381  0.8915  3.1536
   41DOPE  H16Y 5282   3.043   4.995  12.066  0.3570  1.0436  1.1391
   41DOPE  C317 5283   3.221   5.093  12.153  0.2534 -0.3560 -0.1015
   41DOPE  H17X 5284   3.329   5.089  12.128  0.0951  2.8070 -1.8147
   41DOPE  H17Y 5285   3.194   5.191  12.109 -0.9371 -0.9371 -0.7179
   41DOPE  C318 5286   3.184   5.081  12.301 -0.1252  0.2095  0.7719
   41DOPE  H18X 5287   3.076   5.074  12.323  0.2946 -2.1883  2.4834
   41DOPE  H18Y 5288   3.235   4.995  12.351 -0.3580 -1.0466 -1.0485
   41DOPE  H18Z 5289   3.236   5.164  12.353  2.8804 -1.1038  0.0939
   42DOPE     N 5290   2.574   3.699  10.229 -0.3371 -0.9630 -0.0358
   42DOPE   HN1 5291   2.471   3.711  10.238 -0.3623 -0.2923 -1.0958
   42DOPE   HN2 5292   2.606   3.618  10.286 -1.8490 -2.4211 -1.1766
   42DOPE   HN3 5293   2.615   3.785  10.272  0.5918 -1.5057  0.1902
   42DOPE   C12 5294   2.627   3.683  10.089 -0.4535  0.3579 -0.3115
   42DOPE  H12A 5295   2.635   3.780  10.037  2.2255  0.2916 -0.1933
   42DOPE  H12B 5296   2.563   3.619  10.025 -2.9392  1.7765  0.6402
   42DOPE   C11 5297   2.773   3.628  10.096 -0.6247  0.2913  0.1550
   42DOPE  H11A 5298   2.796   3.589   9.994  0.7617  0.9238  0.2007
   42DOPE  H11B 5299   2.766   3.530  10.148  0.1964  0.7114  1.1118
   42DOPE     P 5300   3.014   3.673  10.183 -0.1303  0.2563 -0.1195
   42DOPE   O13 5301   3.107   3.757  10.101 -0.2359  1.6492 -0.1939
   42DOPE   O14 5302   3.011   3.523  10.173  0.1183 -0.0453 -0.0144
   42DOPE   O11 5303   3.028   3.702  10.333 -0.1630 -0.0006 -0.0160
   42DOPE   O12 5304   2.869   3.722  10.147  0.2636 -0.0282 -0.1468
   42DOPE    C1 5305   2.918   3.717  10.417  0.2061 -0.1082  0.0693
   42DOPE    HA 5306   2.833   3.647  10.398  1.1083 -1.3305  0.3625
   42DOPE    HB 5307   2.870   3.817  10.408 -0.0186 -0.0428  1.6869
   42DOPE    C2 5308   2.950   3.701  10.568  0.1314  0.3120 -0.1175
   42DOPE    HS 5309   2.864   3.677  10.634 -0.4593  1.0961 -0.5846
   42DOPE   O21 5310   2.999   3.822  10.626 -0.5085 -0.2294  0.8267
   42DOPE   C21 5311   2.923   3.926  10.632  0.4172 -0.6846  0.4080
   42DOPE   O22 5312   2.801   3.923  10.604  0.0090 -0.2367 -0.4166
   42DOPE   C22 5313   3.008   4.040  10.687  0.1718  0.4225  0.1588
   42DOPE   H2R 5314   2.949   4.133  10.694  0.0094  0.2846  0.6287
   42DOPE   H2S 5315   3.073   4.074  10.603 -0.7975 -0.3264 -0.9216
   42DOPE    C3 5316   3.051   3.583  10.593 -0.0988 -0.4239 -0.3775
   42DOPE    HX 5317   3.134   3.611  10.525  0.0125  1.3327  0.4386
   42DOPE    HY 5318   3.013   3.488  10.549  1.2338 -2.1683  1.9709
   42DOPE   O31 5319   3.102   3.572  10.727 -0.0272 -0.0169 -0.3864
   42DOPE   C31 5320   3.229   3.545  10.754 -0.2688 -0.7951  0.1268
   42DOPE   O32 5321   3.306   3.519  10.664 -0.3490 -0.5285  0.4908
   42DOPE   C32 5322   3.257   3.542  10.905  0.4019  0.7269 -0.1997
   42DOPE   H2X 5323   3.215   3.634  10.951  1.2932  0.4123  1.3151
   42DOPE   H2Y 5324   3.205   3.454  10.949  1.1722  0.1891 -0.3550
   42DOPE   C23 5325   3.070   3.995  10.822 -0.5246  0.1655 -0.1901
   42DOPE   H3R 5326   3.138   4.081  10.837  0.0284 -0.1040 -1.0825
   42DOPE   H3S 5327   3.136   3.906  10.810 -0.2562  0.4213 -0.6265
   42DOPE   C24 5328   2.971   3.977  10.936  0.6041  0.1390  0.4572
   42DOPE   H4R 5329   2.914   3.884  10.913  3.1884 -0.9647 -2.0548
   42DOPE   H4S 5330   2.912   4.070  10.944  0.7537  0.2874 -0.0825
   42DOPE   C25 5331   3.045   3.931  11.063 -0.2184 -0.1806  0.0448
   42DOPE   H5R 5332   3.124   4.009  11.072 -2.2296  2.2688 -1.8903
   42DOPE   H5S 5333   3.091   3.831  11.051 -0.7182 -0.2326 -1.6357
   42DOPE   C26 5334   2.949   3.932  11.187 -0.0959 -0.1168 -1.1205
   42DOPE   H6R 5335   2.864   3.862  11.170 -1.6801  1.2945  0.6706
   42DOPE   H6S 5336   2.919   4.038  11.200  0.9614  0.0212  0.5695
   42DOPE   C27 5337   3.029   3.897  11.315  0.0811  0.5169 -0.5341
   42DOPE   H7R 5338   3.110   3.970  11.334  0.0910  1.1356 -2.7129
   42DOPE   H7S 5339   3.065   3.794  11.292 -1.4988 -0.0149 -0.8107
   42DOPE   C28 5340   2.949   3.887  11.442 -0.0446 -0.0313 -0.0977
   42DOPE   H8R 5341   3.014   3.844  11.521 -0.4792 -0.4336  0.0469
   42DOPE   H8S 5342   2.865   3.814  11.433  0.8834 -1.4707  2.0056
   42DOPE   C29 5343   2.905   4.020  11.489  0.8666 -0.1233  0.4734
   42DOPE   H9R 5344   2.832   4.073  11.426  3.7052  1.2615 -1.8606
   42DOPE  C210 5345   2.948   4.083  11.606  0.2749  0.4271  0.3430
   42DOPE  H10R 5346   2.917   4.185  11.633 -0.5257 -0.2237  2.0040
   42DOPE  C211 5347   3.036   4.012  11.706 -0.6741 -0.4156  0.3531
   42DOPE  H11R 5348   3.133   3.978  11.664  0.3014  1.0332  1.3282
   42DOPE  H11S 5349   2.991   3.923  11.755 -0.3770 -1.0391 -0.4861
   42DOPE  C212 5350   3.081   4.106  11.817 -0.4124  0.0932 -0.1342
   42DOPE  H12R 5351   2.993   4.133  11.878  1.0693 -1.3800  2.8625
   42DOPE  H12S 5352   3.136   4.190  11.770 -2.2840  0.3471 -2.0108
   42DOPE  C213 5353   3.167   4.037  11.921  0.1026  0.5574 -0.2969
   42DOPE  H13R 5354   3.269   4.012  11.887  0.0140 -1.7712  0.8839
   42DOPE  H13S 5355   3.132   3.938  11.958  0.4295  0.8966  0.9714
   42DOPE  C214 5356   3.191   4.132  12.041  0.4063  0.5594  0.2501
   42DOPE  H14R 5357   3.224   4.070  12.127  0.5858  0.2413 -0.0466
   42DOPE  H14S 5358   3.097   4.189  12.059 -0.6238 -0.6146 -1.1260
   42DOPE  C215 5359   3.301   4.236  12.013  0.1481  0.3457  0.1928
   42DOPE  H15R 5360   3.269   4.295  11.925  0.0948  0.9373  0.6009
   42DOPE  H15S 5361   3.400   4.195  11.985 -0.5070  0.2498 -2.2281
   42DOPE  C216 5362   3.328   4.327  12.132  0.8521 -0.0933 -0.1682
   42DOPE  H16R 5363   3.378   4.260  12.205 -0.0152 -0.6424 -0.0655
   42DOPE  H16S 5364   3.231   4.357  12.178  0.2505 -1.5144 -0.4544
   42DOPE  C217 5365   3.405   4.452  12.093 -0.1401  0.0626 -0.0144
   42DOPE  H17R 5366   3.465   4.420  12.005 -1.7202 -1.4646 -0.6002
   42DOPE  H17S 5367   3.462   4.489  12.181  0.8342  1.9133 -1.3690
   42DOPE  C218 5368   3.311   4.565  12.047 -0.6297 -0.5438  0.4101
   42DOPE  H18R 5369   3.247   4.607  12.127 -2.1909 -0.7104 -0.7065
   42DOPE  H18S 5370   3.238   4.539  11.968  0.0671 -0.1511 -0.3854
   42DOPE  H18T 5371   3.380   4.636  11.996 -2.2597  0.7888 -0.0246
   42DOPE   C33 5372   3.408   3.537  10.954 -0.2467  0.8853 -0.0723
   42DOPE   H3X 5373   3.462   3.629  10.925  1.6614  0.3372  1.5260
   42DOPE   H3Y 5374   3.450   3.448  10.902  1.5498  0.4952  1.9016
   42DOPE   C34 5375   3.410   3.505  11.104  0.3246  1.1042  0.3494
   42DOPE   H4X 5376   3.345   3.416  11.119  3.2874 -1.4213 -0.5154
   42DOPE   H4Y 5377   3.508   3.457  11.126 -0.7957 -0.9988  1.0733
   42DOPE   C35 5378   3.380   3.614  11.210 -0.0088 -0.5682 -0.6594
   42DOPE   H5X 5379   3.275   3.650  11.209 -0.3085 -1.4194 -0.9118
   42DOPE   H5Y 5380   3.446   3.700  11.188 -1.1061  0.9562  1.6586
   42DOPE   C36 5381   3.400   3.562  11.354 -0.1433 -0.4258  0.0099
   42DOPE   H6X 5382   3.497   3.509  11.363 -0.9868 -2.3598 -1.4559
   42DOPE   H6Y 5383   3.323   3.487  11.385  1.0695 -0.6879  2.6041
   42DOPE   C37 5384   3.391   3.675  11.462  0.3323 -0.1674  0.3711
   42DOPE   H7X 5385   3.436   3.763  11.412  1.1933  0.0958  1.5740
   42DOPE   H7Y 5386   3.285   3.697  11.490  0.2771 -0.2724  0.2472
   42DOPE   C38 5387   3.460   3.638  11.594  0.5450 -0.5529  0.0806
   42DOPE   H8X 5388   3.465   3.731  11.655 -0.3281  0.3163 -1.1431
   42DOPE   H8Y 5389   3.560   3.617  11.550  0.3947 -1.1688  0.0197
   42DOPE   C39 5390   3.409   3.520  11.681  0.1691 -0.3050  0.0302
   42DOPE   H9X 5391   3.453   3.421  11.663  0.9147 -0.1097  0.7363
   42DOPE  C310 5392   3.329   3.539  11.784  0.7283  0.2760  0.0433
   42DOPE  H10X 5393   3.306   3.454  11.850  1.7987  2.5128  3.6352
   42DOPE  C311 5394   3.272   3.662  11.847 -0.7035 -0.4931  0.1033
   42DOPE  H11X 5395   3.290   3.746  11.777  1.5526 -0.4853  0.6119
   42DOPE  H11Y 5396   3.162   3.661  11.864 -0.8064  1.4981 -0.2752
   42DOPE  C312 5397   3.340   3.704  11.976 -0.0839  0.2545  0.2606
   42DOPE  H12X 5398   3.298   3.795  12.023 -0.5985 -0.3811  1.0557
   42DOPE  H12Y 5399   3.449   3.720  11.958  0.2481 -4.0484 -3.3460
   42DOPE  C313 5400   3.326   3.598  12.084 -0.3892 -0.2048 -0.0881
   42DOPE  H13X 5401   3.216   3.585  12.091 -0.1109 -2.4584  1.4118
   42DOPE  H13Y 5402   3.364   3.501  12.045  0.3213  0.0770 -0.1173
   42DOPE  C314 5403   3.388   3.642  12.221 -0.1243  0.3961  0.1144
   42DOPE  H14X 5404   3.336   3.737  12.244 -1.0801  0.6244 -2.6181
   42DOPE  H14Y 5405   3.497   3.659  12.210 -0.3246  0.7565 -1.6336
   42DOPE  C315 5406   3.367   3.539  12.331  0.2323 -0.2943  0.7585
   42DOPE  H15X 5407   3.429   3.458  12.287 -0.0800  0.2053 -0.6565
   42DOPE  H15Y 5408   3.261   3.510  12.318 -0.0038 -0.0069  1.8837
   42DOPE  C316 5409   3.398   3.597  12.473 -0.4580 -0.0792  0.1835
   42DOPE  H16X 5410   3.373   3.706  12.476 -3.8775 -0.6960 -0.7245
   42DOPE  H16Y 5411   3.509   3.594  12.477 -0.4602  0.6577  2.6303
   42DOPE  C317 5412   3.334   3.517  12.588  0.1240 -0.2808 -0.2423
   42DOPE  H17X 5413   3.366   3.579  12.674  1.4040  1.3862 -1.8543
   42DOPE  H17Y 5414   3.223   3.513  12.588  0.0838 -3.9702  1.7591
   42DOPE  C318 5415   3.389   3.376  12.591  0.2459 -0.0311  0.5068
   42DOPE  H18X 5416   3.497   3.384  12.566  0.0739 -0.1382 -0.3216
   42DOPE  H18Y 5417   3.382   3.339  12.695  0.1428  0.9674  0.8664
   42DOPE  H18Z 5418   3.344   3.299  12.525  0.7319  0.0157  0.1148
   43DOPE     N 5419   2.257   2.115   9.583  0.3460 -0.3184 -0.4236
   43DOPE   HN1 5420   2.167   2.117   9.531  1.0171  3.0050 -1.6781
   43DOPE   HN2 5421   2.284   2.215   9.588  1.3599 -0.4612 -2.1475
   43DOPE   HN3 5422   2.320   2.058   9.523 -1.3716 -0.1315 -2.5391
   43DOPE   C12 5423   2.233   2.059   9.714 -0.2684 -0.1100  0.0050
   43DOPE  H12A 5424   2.219   1.949   9.712 -0.0150 -0.1436  0.0503
   43DOPE  H12B 5425   2.142   2.113   9.748  0.4439  1.5410 -0.6010
   43DOPE   C11 5426   2.351   2.096   9.807  0.1963 -0.1162 -0.3334
   43DOPE  H11A 5427   2.448   2.055   9.771 -0.0805 -1.2471  0.1933
   43DOPE  H11B 5428   2.327   2.046   9.903  1.7451 -0.6526 -0.1942
   43DOPE     P 5429   2.292   2.321   9.928  0.2350  0.5993 -0.1968
   43DOPE   O13 5430   2.157   2.270   9.924 -0.2090  0.0092 -0.0846
   43DOPE   O14 5431   2.317   2.465   9.898 -0.1460  0.1516 -0.6870
   43DOPE   O11 5432   2.364   2.292  10.059  0.0888 -0.4523 -0.2946
   43DOPE   O12 5433   2.377   2.241   9.823 -0.2788  0.6035 -0.1317
   43DOPE    C1 5434   2.466   2.383  10.111  0.6803 -0.0667 -0.3828
   43DOPE    HA 5435   2.422   2.475  10.156  2.6525  0.7675 -0.0302
   43DOPE    HB 5436   2.537   2.411  10.030  1.0272 -0.2158 -0.1338
   43DOPE    C2 5437   2.546   2.307  10.226  0.6234 -0.5751  0.6844
   43DOPE    HS 5438   2.597   2.220  10.181 -1.5662 -1.5579 -0.0477
   43DOPE   O21 5439   2.459   2.270  10.324 -0.5987  0.1498 -0.2390
   43DOPE   C21 5440   2.497   2.154  10.391  0.3149  0.3710 -0.2182
   43DOPE   O22 5441   2.586   2.089  10.363 -0.9091  0.5061  0.0881
   43DOPE   C22 5442   2.411   2.133  10.518 -0.1006  0.1338 -0.2145
   43DOPE   H2R 5443   2.316   2.182  10.488 -1.7656 -3.6785 -1.6863
   43DOPE   H2S 5444   2.463   2.173  10.608 -0.2376 -0.6917  0.2390
   43DOPE    C3 5445   2.650   2.403  10.289  0.5225  0.1446  0.3045
   43DOPE    HX 5446   2.723   2.412  10.205  0.6768 -1.5166  0.2259
   43DOPE    HY 5447   2.700   2.346  10.370  1.7755 -0.5201 -0.8922
   43DOPE   O31 5448   2.588   2.531  10.318 -0.0964 -0.4504  0.2461
   43DOPE   C31 5449   2.544   2.540  10.448  1.0992  0.0172 -0.2105
   43DOPE   O32 5450   2.568   2.455  10.533  0.3868 -0.1828 -0.4549
   43DOPE   C32 5451   2.477   2.677  10.473 -0.3106  0.0734  0.6050
   43DOPE   H2X 5452   2.552   2.755  10.449  2.5133 -2.1204  1.7246
   43DOPE   H2Y 5453   2.393   2.686  10.401 -1.3649  2.9108  2.0139
   43DOPE   C23 5454   2.362   1.988  10.533 -0.1657  0.0439 -0.7265
   43DOPE   H3R 5455   2.441   1.920  10.495 -0.5188 -1.3068  0.8737
   43DOPE   H3S 5456   2.276   1.981  10.463 -1.0057 -0.4027  0.3167
   43DOPE   C24 5457   2.315   1.950  10.673 -0.7304 -0.1239  0.0702
   43DOPE   H4R 5458   2.261   1.853  10.662 -1.4517  0.2931 -0.1732
   43DOPE   H4S 5459   2.247   2.030  10.709  0.5099  0.9356  0.1345
   43DOPE   C25 5460   2.423   1.930  10.779 -0.4510  0.2499  0.1255
   43DOPE   H5R 5461   2.488   2.020  10.785 -1.1621  0.6825  2.1784
   43DOPE   H5S 5462   2.498   1.856  10.744  0.9627  1.2947  0.8694
   43DOPE   C26 5463   2.377   1.897  10.921  0.9771 -0.0112  0.6587
   43DOPE   H6R 5464   2.473   1.907  10.976  1.2112  1.1603  0.0688
   43DOPE   H6S 5465   2.332   1.796  10.929  0.5695  0.2051  1.1768
   43DOPE   C27 5466   2.276   1.990  10.986 -0.8367  0.0476 -0.2605
   43DOPE   H7R 5467   2.187   2.021  10.927 -0.4569  2.0197  0.1358
   43DOPE   H7S 5468   2.342   2.078  11.003  1.0769 -1.5148  0.9532
   43DOPE   C28 5469   2.223   1.936  11.123 -0.4475  0.0144 -0.2156
   43DOPE   H8R 5470   2.307   1.923  11.195 -0.6721  1.1159  0.2684
   43DOPE   H8S 5471   2.178   1.835  11.117 -0.3271 -0.1035  0.7036
   43DOPE   C29 5472   2.126   2.035  11.187  0.2553 -0.3628 -0.5675
   43DOPE   H9R 5473   2.059   2.083  11.114 -0.7414 -1.8352 -0.6777
   43DOPE  C210 5474   2.119   2.071  11.316  0.1858  1.0358  0.2375
   43DOPE  H10R 5475   2.047   2.148  11.346  0.1586  1.3979 -0.7194
   43DOPE  C211 5476   2.212   2.007  11.415  0.3197  0.6481  0.3066
   43DOPE  H11R 5477   2.317   2.020  11.380  0.1238 -0.7536 -0.9132
   43DOPE  H11S 5478   2.205   1.896  11.408 -1.5438  0.6304  1.6954
   43DOPE  C212 5479   2.191   2.063  11.559 -0.0002  0.1817  0.0239
   43DOPE  H12R 5480   2.100   2.017  11.603  0.9359 -1.0172  0.7635
   43DOPE  H12S 5481   2.176   2.173  11.562  3.8046  0.8036  1.6921
   43DOPE  C213 5482   2.317   2.022  11.648  0.5929  0.5359 -0.8132
   43DOPE  H13R 5483   2.400   2.093  11.629  0.8865  0.5605  0.4340
   43DOPE  H13S 5484   2.349   1.922  11.610 -1.7142 -2.0791  3.2877
   43DOPE  C214 5485   2.296   2.004  11.797 -0.2836 -0.0238  0.3317
   43DOPE  H14R 5486   2.232   1.916  11.817 -0.0328 -0.1668  0.5098
   43DOPE  H14S 5487   2.249   2.098  11.834  1.4814  1.3395 -0.6919
   43DOPE  C215 5488   2.440   2.000  11.867  0.1011 -0.2596  0.1679
   43DOPE  H15R 5489   2.496   2.083  11.819 -3.1360  0.7198 -2.3505
   43DOPE  H15S 5490   2.479   1.897  11.861 -0.3198 -0.5033  1.3413
   43DOPE  C216 5491   2.435   2.020  12.019 -0.0504 -0.3052 -0.4137
   43DOPE  H16R 5492   2.345   1.961  12.048 -2.6338  2.5121 -2.1171
   43DOPE  H16S 5493   2.420   2.130  12.031  2.1804  0.3970 -3.0679
   43DOPE  C217 5494   2.560   1.976  12.097 -0.6693  0.2533  0.3129
   43DOPE  H17R 5495   2.646   2.036  12.061 -2.3070  1.2623 -2.2821
   43DOPE  H17S 5496   2.584   1.869  12.077  0.2006  0.2140  1.4749
   43DOPE  C218 5497   2.535   1.987  12.247  0.3465 -0.1536  0.1807
   43DOPE  H18R 5498   2.514   2.091  12.280 -1.5201 -0.9249  1.5850
   43DOPE  H18S 5499   2.626   1.957  12.304  0.0845 -0.8037  0.2678
   43DOPE  H18T 5500   2.452   1.923  12.283  1.3862  0.1830  3.4569
   43DOPE   C33 5501   2.399   2.696  10.598  0.1362 -0.0225 -0.1360
   43DOPE   H3X 5502   2.348   2.604  10.633  0.5076 -0.2267 -0.1229
   43DOPE   H3Y 5503   2.314   2.766  10.591 -0.3020 -0.4899  0.3917
   43DOPE   C34 5504   2.496   2.746  10.714  0.1864 -0.3740  0.0100
   43DOPE   H4X 5505   2.596   2.700  10.701  0.9840  1.6432 -1.4868
   43DOPE   H4Y 5506   2.506   2.856  10.709  2.3437 -0.5668 -1.4851
   43DOPE   C35 5507   2.441   2.721  10.862  0.0969  0.1312  0.2883
   43DOPE   H5X 5508   2.334   2.750  10.861  0.1656  0.3841  0.3212
   43DOPE   H5Y 5509   2.492   2.790  10.932 -3.4140  3.0098  0.2479
   43DOPE   C36 5510   2.460   2.579  10.909  0.3939 -0.1205  0.3253
   43DOPE   H6X 5511   2.568   2.558  10.928  0.2602 -0.1867  1.0439
   43DOPE   H6Y 5512   2.421   2.511  10.830 -0.7771  1.2607 -0.3358
   43DOPE   C37 5513   2.379   2.555  11.035  0.2030 -0.0903 -0.8940
   43DOPE   H7X 5514   2.400   2.640  11.104 -0.6696 -0.3905 -0.2521
   43DOPE   H7Y 5515   2.269   2.547  11.028 -0.2603 -1.0320  3.8892
   43DOPE   C38 5516   2.416   2.424  11.115 -0.4321  0.4828 -0.0840
   43DOPE   H8X 5517   2.523   2.426  11.146 -0.2295  1.7786 -0.8055
   43DOPE   H8Y 5518   2.395   2.335  11.052  0.6058 -0.9589  1.4952
   43DOPE   C39 5519   2.330   2.409  11.240 -0.9852 -0.1779  0.1185
   43DOPE   H9X 5520   2.233   2.361  11.220  0.4118 -2.4610 -1.5917
   43DOPE  C310 5521   2.353   2.462  11.362 -0.8740  0.3157 -0.4977
   43DOPE  H10X 5522   2.290   2.445  11.450  0.4788  2.3960  0.9603
   43DOPE  C311 5523   2.486   2.520  11.399 -0.0662  0.6573 -0.3799
   43DOPE  H11X 5524   2.573   2.478  11.343 -1.1518 -1.6988 -0.4074
   43DOPE  H11Y 5525   2.495   2.629  11.379 -0.8058  0.6519 -0.7447
   43DOPE  C312 5526   2.509   2.504  11.550 -0.3431 -0.1647  0.4776
   43DOPE  H12X 5527   2.432   2.548  11.617 -1.3310 -0.0961 -0.6663
   43DOPE  H12Y 5528   2.593   2.572  11.578 -0.2938 -0.5063  1.1984
   43DOPE  C313 5529   2.552   2.361  11.588 -0.3944 -0.7351 -1.4660
   43DOPE  H13X 5530   2.467   2.291  11.601 -0.2248 -0.8822 -1.1388
   43DOPE  H13Y 5531   2.619   2.316  11.512 -1.2603 -2.3796 -1.3007
   43DOPE  C314 5532   2.619   2.361  11.734  0.7976 -0.4638  0.3020
   43DOPE  H14X 5533   2.709   2.427  11.732  1.2245 -1.0559 -0.8743
   43DOPE  H14Y 5534   2.652   2.256  11.745  0.4092 -0.4912  1.2451
   43DOPE  C315 5535   2.516   2.397  11.847  1.1099  0.0075 -0.1413
   43DOPE  H15X 5536   2.439   2.316  11.844  0.2885  0.6547  1.7257
   43DOPE  H15Y 5537   2.462   2.494  11.841 -1.7020 -1.2881  1.8862
   43DOPE  C316 5538   2.569   2.387  11.989 -0.0811  0.4464 -0.0112
   43DOPE  H16X 5539   2.627   2.293  11.999 -0.6300  0.1579  0.5494
   43DOPE  H16Y 5540   2.491   2.386  12.068  0.0691  0.8788  0.1432
   43DOPE  C317 5541   2.673   2.497  12.033 -0.0498 -0.4604 -0.2936
   43DOPE  H17X 5542   2.747   2.516  11.952 -1.3702 -1.3417 -1.7596
   43DOPE  H17Y 5543   2.615   2.591  12.043 -0.5310 -0.8555  0.7664
   43DOPE  C318 5544   2.735   2.457  12.172  0.4503  0.5680 -0.1768
   43DOPE  H18X 5545   2.794   2.367  12.147  0.0693  0.5440 -1.0234
   43DOPE  H18Y 5546   2.801   2.537  12.213  1.7530 -1.1741  1.2932
   43DOPE  H18Z 5547   2.658   2.432  12.249 -1.0257  0.5683 -1.6010
   44DOPE     N 5548   3.369   1.318   9.292 -0.0313  0.9332 -0.1302
   44DOPE   HN1 5549   3.304   1.383   9.244  0.7647  2.2155  0.4628
   44DOPE   HN2 5550   3.456   1.305   9.236  0.5741  0.8887  0.7926
   44DOPE   HN3 5551   3.320   1.227   9.301 -0.2593  1.2163  2.1455
   44DOPE   C12 5552   3.387   1.357   9.437  0.7359 -0.0607  0.1859
   44DOPE  H12A 5553   3.355   1.264   9.490 -0.9296 -0.2446 -1.0593
   44DOPE  H12B 5554   3.322   1.446   9.445  1.5577  0.5027  0.7279
   44DOPE   C11 5555   3.526   1.396   9.457 -0.3139 -0.2960  0.2060
   44DOPE  H11A 5556   3.592   1.311   9.430 -1.8106 -1.1649 -0.8290
   44DOPE  H11B 5557   3.538   1.431   9.562  0.6240 -1.7039  0.5905
   44DOPE     P 5558   3.690   1.581   9.372  0.1678  0.4904 -0.4533
   44DOPE   O13 5559   3.645   1.722   9.375  0.1956  0.0678 -0.0041
   44DOPE   O14 5560   3.783   1.553   9.258 -0.3963  0.1795 -0.9959
   44DOPE   O11 5561   3.758   1.543   9.509 -0.0732 -0.3768 -0.2618
   44DOPE   O12 5562   3.558   1.496   9.359 -0.3128 -0.2167  0.2855
   44DOPE    C1 5563   3.825   1.646   9.584 -0.2888 -0.1902  0.0042
   44DOPE    HA 5564   3.760   1.731   9.611  0.1420  0.5783 -1.3056
   44DOPE    HB 5565   3.915   1.679   9.527 -0.8118  2.3311  0.5294
   44DOPE    C2 5566   3.892   1.581   9.712  0.4715 -0.4924  0.1953
   44DOPE    HS 5567   3.942   1.670   9.756 -0.2107 -0.6176  1.2576
   44DOPE   O21 5568   3.983   1.470   9.690 -0.4418 -0.5417  0.0924
   44DOPE   C21 5569   4.087   1.471   9.776  0.6110  0.0337 -0.3536
   44DOPE   O22 5570   4.110   1.552   9.860 -0.1519 -0.1836 -0.2671
   44DOPE   C22 5571   4.177   1.350   9.737 -0.0239 -0.0844 -0.4424
   44DOPE   H2R 5572   4.273   1.365   9.792 -0.3573  0.8745 -0.0994
   44DOPE   H2S 5573   4.202   1.357   9.629 -2.3522  1.5287 -0.9504
   44DOPE    C3 5574   3.778   1.527   9.795  0.7886 -0.0213  0.1764
   44DOPE    HX 5575   3.737   1.438   9.744 -0.6288  0.3487  0.6161
   44DOPE    HY 5576   3.692   1.597   9.804  1.5498  0.6440  4.3350
   44DOPE   O31 5577   3.816   1.490   9.929 -0.5227 -0.1401 -0.4665
   44DOPE   C31 5578   3.836   1.589  10.012  0.7599  0.2836 -0.1626
   44DOPE   O32 5579   3.818   1.712   9.992 -0.8323 -0.5113 -0.7315
   44DOPE   C32 5580   3.894   1.527  10.140  0.1761 -0.3869 -0.2221
   44DOPE   H2X 5581   3.888   1.416  10.143 -0.8090 -0.3396  2.1416
   44DOPE   H2Y 5582   3.999   1.562  10.146  0.8939 -2.0358 -2.2288
   44DOPE   C23 5583   4.122   1.207   9.739 -0.1142 -0.1185 -0.4631
   44DOPE   H3R 5584   4.194   1.133   9.699  0.4808  0.5825 -0.7125
   44DOPE   H3S 5585   4.032   1.193   9.674  0.3240  0.1581 -1.1384
   44DOPE   C24 5586   4.081   1.174   9.886  0.3382  0.4694 -1.1457
   44DOPE   H4R 5587   4.035   1.073   9.889 -3.0238  1.8421 -1.8799
   44DOPE   H4S 5588   3.993   1.239   9.907 -0.0710 -0.0069 -1.3756
   44DOPE   C25 5589   4.193   1.199   9.991  0.8668  0.3549 -0.1562
   44DOPE   H5R 5590   4.195   1.309  10.006  0.2898  0.4764 -0.8785
   44DOPE   H5S 5591   4.285   1.160   9.944  0.7874 -0.8274  0.6311
   44DOPE   C26 5592   4.170   1.119  10.123  0.4195 -0.2747 -0.2000
   44DOPE   H6R 5593   4.172   1.013  10.092  0.1039 -0.0423 -1.0470
   44DOPE   H6S 5594   4.067   1.140  10.159  0.3064 -0.7609 -0.2373
   44DOPE   C27 5595   4.276   1.151  10.224 -0.4965 -0.1780 -0.1854
   44DOPE   H7R 5596   4.288   1.262  10.224 -1.3676 -0.0229 -2.4810
   44DOPE   H7S 5597   4.377   1.107  10.210  0.0399  0.7295  0.6636
   44DOPE   C28 5598   4.246   1.105  10.373 -0.2614  0.7574  0.0040
   44DOPE   H8R 5599   4.256   0.994  10.382 -0.0144  0.9068  2.0507
   44DOPE   H8S 5600   4.137   1.122  10.388 -1.1453 -3.7973  0.3675
   44DOPE   C29 5601   4.329   1.163  10.476 -0.2494  0.3995  0.2111
   44DOPE   H9R 5602   4.432   1.184  10.442  0.3154 -2.3895  0.0225
   44DOPE  C210 5603   4.309   1.164  10.606 -0.7101  0.5958 -0.3468
   44DOPE  H10R 5604   4.383   1.213  10.672  0.6449 -1.8701  0.1056
   44DOPE  C211 5605   4.184   1.110  10.680 -0.0290 -0.7976  0.2858
   44DOPE  H11R 5606   4.196   1.001  10.700  3.3249 -0.4510  0.6961
   44DOPE  H11S 5607   4.093   1.117  10.616 -0.3992  0.1191  0.8993
   44DOPE  C212 5608   4.175   1.188  10.812 -0.1043 -0.1492 -0.2908
   44DOPE  H12R 5609   4.151   1.294  10.787 -1.2286 -0.7911 -2.0770
   44DOPE  H12S 5610   4.275   1.191  10.860 -0.6893 -0.2143  0.9733
   44DOPE  C213 5611   4.074   1.129  10.910  0.3066 -0.5073 -0.0742
   44DOPE  H13R 5612   4.088   1.019  10.906  0.9122 -0.4668  0.7811
   44DOPE  H13S 5613   3.970   1.153  10.880 -0.1496 -0.7394  1.2482
   44DOPE  C214 5614   4.104   1.162  11.054 -0.2815  0.4943 -0.5536
   44DOPE  H14R 5615   4.103   1.273  11.068  0.4618  0.4052  0.2962
   44DOPE  H14S 5616   4.208   1.129  11.077  0.0116  1.5130 -0.3245
   44DOPE  C215 5617   4.003   1.098  11.152 -0.0884  0.2198 -0.1658
   44DOPE  H15R 5618   3.998   0.989  11.133  1.8756 -0.0316  0.5503
   44DOPE  H15S 5619   3.903   1.146  11.142  0.0366  0.6933  0.7423
   44DOPE  C216 5620   4.036   1.106  11.301 -0.0808  0.5263 -0.0938
   44DOPE  H16R 5621   4.007   1.210  11.326 -0.1890  0.5472 -0.2999
   44DOPE  H16S 5622   4.143   1.099  11.328 -0.2894 -0.5786  0.5171
   44DOPE  C217 5623   3.939   1.029  11.389  0.5291  0.2899  0.5612
   44DOPE  H17R 5624   3.942   0.921  11.362 -0.5337 -0.2900  2.5328
   44DOPE  H17S 5625   3.839   1.060  11.353  0.1322 -0.7161  0.7400
   44DOPE  C218 5626   3.953   1.044  11.542 -0.1854  0.0944  0.2497
   44DOPE  H18R 5627   4.041   0.992  11.586 -1.2167 -0.1892  2.0825
   44DOPE  H18S 5628   3.870   0.997  11.600  0.0059 -0.5787 -0.0098
   44DOPE  H18T 5629   3.934   1.148  11.574 -1.9377 -0.5439  1.4565
   44DOPE   C33 5630   3.818   1.579  10.274  0.2276  0.5519 -0.2475
   44DOPE   H3X 5631   3.709   1.594  10.264  0.1844 -0.1896 -0.9355
   44DOPE   H3Y 5632   3.854   1.684  10.285 -0.0667  0.7399 -1.0445
   44DOPE   C34 5633   3.857   1.506  10.399 -0.0621  0.1710 -0.0121
   44DOPE   H4X 5634   3.816   1.403  10.392  0.3300 -0.1408  1.7953
   44DOPE   H4Y 5635   3.967   1.492  10.398 -0.2236 -1.3309 -0.0327
   44DOPE   C35 5636   3.824   1.585  10.528 -0.0826 -0.5080  0.2559
   44DOPE   H5X 5637   3.717   1.612  10.544  0.0119  0.2285 -0.3297
   44DOPE   H5Y 5638   3.876   1.682  10.516 -4.7665  2.3306  0.5584
   44DOPE   C36 5639   3.865   1.521  10.659  0.0516  0.2086  0.8742
   44DOPE   H6X 5640   3.973   1.495  10.650  0.1675  1.0779 -0.4577
   44DOPE   H6Y 5641   3.800   1.431  10.649 -2.1561  1.6607  1.6227
   44DOPE   C37 5642   3.835   1.606  10.784  0.5266 -0.3596  0.3741
   44DOPE   H7X 5643   3.871   1.708  10.758  0.2641 -0.5207 -0.6453
   44DOPE   H7Y 5644   3.724   1.608  10.782  0.5241  1.6354 -2.0688
   44DOPE   C38 5645   3.890   1.559  10.914  0.5193 -1.0241  0.0955
   44DOPE   H8X 5646   3.871   1.450  10.926 -0.5390 -0.8558  0.0454
   44DOPE   H8Y 5647   3.837   1.600  11.003  1.1216 -1.3977  0.6305
   44DOPE   C39 5648   4.035   1.588  10.933 -0.1758 -0.3804 -0.3575
   44DOPE   H9X 5649   4.085   1.625  10.843  2.0922 -1.2589  0.4644
   44DOPE  C310 5650   4.111   1.579  11.043  0.0962  0.2403 -0.2455
   44DOPE  H10X 5651   4.219   1.597  11.033  0.3072  0.3805  1.8956
   44DOPE  C311 5652   4.070   1.523  11.178  0.4619  0.2490  0.5584
   44DOPE  H11X 5653   3.974   1.467  11.177  0.2193  0.3907  4.0597
   44DOPE  H11Y 5654   4.147   1.453  11.218  1.0787  1.0318  0.7603
   44DOPE  C312 5655   4.053   1.622  11.298 -0.3697  0.9782  0.5540
   44DOPE  H12X 5656   3.973   1.699  11.283 -0.0723  0.8524 -2.2617
   44DOPE  H12Y 5657   4.148   1.678  11.312  1.2226 -0.7706 -2.3103
   44DOPE  C313 5658   4.021   1.531  11.422  0.2874  0.6044 -1.0720
   44DOPE  H13X 5659   3.931   1.475  11.389 -0.2497  0.6994  0.1946
   44DOPE  H13Y 5660   4.102   1.461  11.449 -2.6841 -2.3694  0.8337
   44DOPE  C314 5661   3.998   1.610  11.550 -0.1670  0.1207 -0.1928
   44DOPE  H14X 5662   3.909   1.673  11.530 -1.0330 -0.5773  1.2636
   44DOPE  H14Y 5663   4.088   1.666  11.584 -0.3718 -0.1359  0.8302
   44DOPE  C315 5664   3.964   1.516  11.667 -0.0074  0.1638  0.2896
   44DOPE  H15X 5665   4.050   1.448  11.683  3.9957  4.3657 -1.2602
   44DOPE  H15Y 5666   3.879   1.451  11.637  0.3450  0.5750 -1.7509
   44DOPE  C316 5667   3.925   1.584  11.800  0.0868  0.1594 -0.4472
   44DOPE  H16X 5668   3.830   1.638  11.778 -0.7121 -1.6395 -1.6762
   44DOPE  H16Y 5669   4.005   1.653  11.834  0.0966 -0.2387  0.3641
   44DOPE  C317 5670   3.899   1.495  11.916 -0.4697 -0.0087 -0.0966
   44DOPE  H17X 5671   3.815   1.437  11.872 -2.2746  2.5756 -0.2929
   44DOPE  H17Y 5672   3.980   1.422  11.934 -0.9200 -1.0961 -2.1420
   44DOPE  C318 5673   3.843   1.563  12.046 -0.1649  0.3454  0.0961
   44DOPE  H18X 5674   3.899   1.658  12.055  1.4187 -0.5357 -0.1231
   44DOPE  H18Y 5675   3.736   1.592  12.039 -0.0676  0.3626 -1.6004
   44DOPE  H18Z 5676   3.855   1.499  12.137 -1.7744  2.7269  2.1222
   45DOPE     N 5677   4.386   6.656   8.858  0.3038 -0.9425  0.1743
   45DOPE   HN1 5678   4.433   6.643   8.767 -0.4693 -1.7942 -0.1225
   45DOPE   HN2 5679   4.436   6.626   8.944 -0.0643 -1.6638  0.1506
   45DOPE   HN3 5680   4.295   6.604   8.855 -1.6277  2.0265  2.1565
   45DOPE   C12 5681   4.349   6.804   8.876 -0.3835  0.6460  0.5759
   45DOPE  H12A 5682   4.252   6.827   8.829 -0.5195  0.8150  0.9363
   45DOPE  H12B 5683   4.430   6.854   8.819 -0.7817 -1.2874 -1.8885
   45DOPE   C11 5684   4.366   6.845   9.022 -0.0407 -0.6170 -0.9078
   45DOPE  H11A 5685   4.298   6.790   9.092  0.4789 -1.9453 -1.4054
   45DOPE  H11B 5686   4.332   6.950   9.029 -0.2829 -0.7366 -0.2411
   45DOPE     P 5687   4.547   6.723   9.175  0.2769 -0.2451 -0.5353
   45DOPE   O13 5688   4.688   6.747   9.233 -0.4582  0.1693  0.0299
   45DOPE   O14 5689   4.516   6.596   9.102  0.1987  0.3997 -0.8202
   45DOPE   O11 5690   4.458   6.724   9.306 -0.4739  0.7109  0.4687
   45DOPE   O12 5691   4.506   6.844   9.079 -0.4943 -0.4634 -0.4285
   45DOPE    C1 5692   4.434   6.842   9.375  0.4032 -1.1848 -0.6386
   45DOPE    HA 5693   4.385   6.925   9.318  0.5592 -0.8833 -0.3328
   45DOPE    HB 5694   4.532   6.878   9.413 -0.2836 -2.8891  3.1522
   45DOPE    C2 5695   4.346   6.812   9.495  0.0756 -0.6379  0.7771
   45DOPE    HS 5696   4.245   6.796   9.451  0.7202  0.3849 -1.2006
   45DOPE   O21 5697   4.378   6.915   9.591  0.0013 -0.1991 -0.3877
   45DOPE   C21 5698   4.305   7.026   9.570 -0.4991  0.5371  0.3050
   45DOPE   O22 5699   4.244   7.046   9.466 -0.7193  0.0438  0.3067
   45DOPE   C22 5700   4.331   7.124   9.687  0.3641 -0.1403  0.9553
   45DOPE   H2R 5701   4.275   7.213   9.651  2.8590  0.3344 -2.2281
   45DOPE   H2S 5702   4.440   7.144   9.697  0.4583 -1.0475  1.8113
   45DOPE    C3 5703   4.375   6.678   9.566  0.1497  0.5164 -1.1758
   45DOPE    HX 5704   4.464   6.675   9.633 -0.0146  1.1131 -0.9233
   45DOPE    HY 5705   4.390   6.603   9.486 -0.6821 -0.1732 -0.7046
   45DOPE   O31 5706   4.262   6.657   9.647  0.0614 -0.0956  0.1564
   45DOPE   C31 5707   4.222   6.532   9.657  0.3152  0.5417 -0.5998
   45DOPE   O32 5708   4.264   6.436   9.597 -0.5779 -0.5156  0.1802
   45DOPE   C32 5709   4.128   6.526   9.779  0.1645  0.4709  0.2218
   45DOPE   H2X 5710   4.029   6.483   9.750  0.4602 -0.2605  0.2848
   45DOPE   H2Y 5711   4.171   6.451   9.849 -1.5550 -2.2026 -1.4032
   45DOPE   C23 5712   4.271   7.070   9.823 -0.2754 -0.7410 -0.4150
   45DOPE   H3R 5713   4.305   6.964   9.815 -0.2250 -0.7310 -0.3273
   45DOPE   H3S 5714   4.160   7.068   9.830 -0.2864  0.9667  0.2255
   45DOPE   C24 5715   4.341   7.130   9.949 -0.4428 -0.2805  0.5972
   45DOPE   H4R 5716   4.326   7.240   9.941 -1.6354 -0.5558 -1.5815
   45DOPE   H4S 5717   4.448   7.104   9.961 -0.2367  0.6240  0.8037
   45DOPE   C25 5718   4.278   7.085  10.089 -0.0088  0.7145  0.5625
   45DOPE   H5R 5719   4.264   6.975  10.098 -1.2147  0.9475  1.9353
   45DOPE   H5S 5720   4.177   7.130  10.101 -0.0620  0.2885  1.8690
   45DOPE   C26 5721   4.358   7.155  10.192  1.2589 -0.6201 -1.4108
   45DOPE   H6R 5722   4.352   7.265  10.190  1.4282 -0.6096 -1.4247
   45DOPE   H6S 5723   4.467   7.132  10.193  1.2804 -0.9450  2.0287
   45DOPE   C27 5724   4.303   7.103  10.336 -0.3393  0.6297  0.3442
   45DOPE   H7R 5725   4.335   6.997  10.350 -2.8933 -0.2138  0.2791
   45DOPE   H7S 5726   4.194   7.103  10.316 -0.3068  1.0540  0.1660
   45DOPE   C28 5727   4.333   7.202  10.452  0.0889  0.7012  1.0306
   45DOPE   H8R 5728   4.255   7.176  10.527 -0.8175  0.4497  0.0355
   45DOPE   H8S 5729   4.307   7.306  10.423  0.1384  0.2467 -0.7784
   45DOPE   C29 5730   4.471   7.183  10.503  0.4471  0.4286  0.1458
   45DOPE   H9R 5731   4.546   7.197  10.424  0.0245  3.1238  0.1557
   45DOPE  C210 5732   4.519   7.124  10.612  0.7000  0.9017 -0.1260
   45DOPE  H10R 5733   4.628   7.121  10.632  0.5757 -0.5193  0.4267
   45DOPE  C211 5734   4.439   7.083  10.735 -0.9434 -0.4544  0.3844
   45DOPE  H11R 5735   4.456   6.974  10.738 -0.9983 -0.4453  1.5583
   45DOPE  H11S 5736   4.329   7.097  10.722 -0.3904  3.0177 -1.8917
   45DOPE  C212 5737   4.474   7.178  10.855 -0.1053 -0.0042 -0.2051
   45DOPE  H12R 5738   4.453   7.286  10.837  1.6002  0.5354  0.7891
   45DOPE  H12S 5739   4.585   7.175  10.861 -0.1965 -0.4503  2.1056
   45DOPE  C213 5740   4.426   7.133  10.996 -0.2954  0.2399  0.6329
   45DOPE  H13R 5741   4.438   7.023  11.009  0.3127 -0.0931 -2.2238
   45DOPE  H13S 5742   4.319   7.162  10.994  0.1023  1.9381  1.7474
   45DOPE  C214 5743   4.497   7.204  11.107 -0.2131 -0.8060 -0.7364
   45DOPE  H14R 5744   4.471   7.312  11.100 -1.1008 -0.9042  0.6617
   45DOPE  H14S 5745   4.608   7.197  11.104 -0.1345 -1.8547  1.8915
   45DOPE  C215 5746   4.429   7.171  11.247 -0.5056 -0.2774 -0.5709
   45DOPE  H15R 5747   4.418   7.060  11.250  1.7303 -0.5410 -0.5809
   45DOPE  H15S 5748   4.335   7.229  11.258  0.2276  0.9281 -0.4945
   45DOPE  C216 5749   4.523   7.202  11.370 -0.4269  0.0407  0.7256
   45DOPE  H16R 5750   4.528   7.313  11.367 -1.9023  0.1207 -1.5738
   45DOPE  H16S 5751   4.618   7.146  11.361 -1.8903 -2.4810  0.1574
   45DOPE  C217 5752   4.448   7.169  11.500  0.0879  0.6151  0.4979
   45DOPE  H17R 5753   4.432   7.059  11.498  0.2847  0.5986 -0.9412
   45DOPE  H17S 5754   4.350   7.220  11.504  0.3901  1.1703  2.8566
   45DOPE  C218 5755   4.513   7.217  11.630  0.3027  0.0643  0.2181
   45DOPE  H18R 5756   4.617   7.179  11.639 -0.8821 -3.2415  1.6758
   45DOPE  H18S 5757   4.452   7.188  11.719  1.7302  0.7872  1.4785
   45DOPE  H18T 5758   4.532   7.327  11.635  1.6316 -0.0832 -1.0589
   45DOPE   C33 5759   4.103   6.662   9.854 -0.8099 -0.3728 -0.0041
   45DOPE   H3X 5760   4.010   6.650   9.913 -0.7580 -2.9444 -0.3412
   45DOPE   H3Y 5761   4.097   6.744   9.780  0.3183  0.9093  1.2544
   45DOPE   C34 5762   4.209   6.709   9.953  1.0732  0.2617 -0.2025
   45DOPE   H4X 5763   4.304   6.698   9.895  1.1670  2.9849 -0.7004
   45DOPE   H4Y 5764   4.186   6.814   9.980 -1.4377 -0.1538 -0.5610
   45DOPE   C35 5765   4.209   6.629  10.085  0.8927  0.2069  0.5072
   45DOPE   H5X 5766   4.281   6.546  10.067  1.0020  0.1752  1.0685
   45DOPE   H5Y 5767   4.107   6.595  10.114  0.0283  2.8019  0.7592
   45DOPE   C36 5768   4.250   6.701  10.210 -0.0414 -0.2170  0.1315
   45DOPE   H6X 5769   4.166   6.756  10.259  0.4278 -0.5541  1.3497
   45DOPE   H6Y 5770   4.332   6.772  10.186 -1.4453  1.0150 -1.2860
   45DOPE   C37 5771   4.314   6.606  10.311  0.3717 -0.1752  0.1519
   45DOPE   H7X 5772   4.251   6.517  10.329 -0.3754  0.4257  0.5622
   45DOPE   H7Y 5773   4.410   6.569  10.269  0.7352 -3.1900  3.2260
   45DOPE   C38 5774   4.350   6.669  10.445  0.2141  0.1624 -0.5297
   45DOPE   H8X 5775   4.251   6.689  10.493 -1.0186  1.3310 -3.3394
   45DOPE   H8Y 5776   4.409   6.762  10.433  1.3094 -0.6552 -1.8239
   45DOPE   C39 5777   4.417   6.567  10.526 -0.1879  0.7704  0.2210
   45DOPE   H9X 5778   4.484   6.496  10.477 -0.2676 -0.8125  2.2568
   45DOPE  C310 5779   4.426   6.588  10.657 -0.5751  0.3771 -0.3906
   45DOPE  H10X 5780   4.474   6.514  10.723  1.1575  0.8450 -1.0807
   45DOPE  C311 5781   4.356   6.695  10.731  0.2731 -0.6984  0.4934
   45DOPE  H11X 5782   4.345   6.791  10.675  1.4135 -1.3401 -0.9084
   45DOPE  H11Y 5783   4.256   6.652  10.752 -0.4711 -0.6655 -2.5331
   45DOPE  C312 5784   4.428   6.721  10.859  0.0417 -0.2678  0.2716
   45DOPE  H12X 5785   4.428   6.828  10.890  1.3222 -0.4599  1.0300
   45DOPE  H12Y 5786   4.538   6.707  10.848 -0.1545 -0.9895 -0.9441
   45DOPE  C313 5787   4.364   6.655  10.985  0.2993  0.5283  1.3190
   45DOPE  H13X 5788   4.255   6.679  10.992 -0.7611 -3.7802  2.5766
   45DOPE  H13Y 5789   4.363   6.544  10.973 -0.9323  0.4411  2.0869
   45DOPE  C314 5790   4.439   6.694  11.104  0.4014 -0.2510 -0.0726
   45DOPE  H14X 5791   4.440   6.805  11.110  2.4144 -0.2420  0.0657
   45DOPE  H14Y 5792   4.546   6.667  11.090  0.3416 -0.3092 -0.4257
   45DOPE  C315 5793   4.395   6.624  11.235 -0.3183 -0.1984 -0.2126
   45DOPE  H15X 5794   4.442   6.523  11.241  1.8934  0.8076  0.4287
   45DOPE  H15Y 5795   4.284   6.619  11.242 -0.2332 -1.7603  0.5121
   45DOPE  C316 5796   4.458   6.700  11.355  1.1776 -0.0221  1.0328
   45DOPE  H16X 5797   4.428   6.807  11.343 -0.1125 -0.4316  0.3948
   45DOPE  H16Y 5798   4.569   6.696  11.346  1.1869 -0.2383  1.2309
   45DOPE  C317 5799   4.396   6.643  11.486  0.3799 -0.0375 -0.8707
   45DOPE  H17X 5800   4.288   6.631  11.463  0.2899  0.0482 -0.5016
   45DOPE  H17Y 5801   4.448   6.546  11.502 -0.4378 -0.2477  0.7121
   45DOPE  C318 5802   4.419   6.739  11.607  0.1364 -0.3937 -0.9744
   45DOPE  H18X 5803   4.348   6.824  11.601 -1.9364 -2.0354 -0.9274
   45DOPE  H18Y 5804   4.394   6.685  11.701 -0.0585 -0.9815 -1.3547
   45DOPE  H18Z 5805   4.521   6.781  11.601 -0.2311  0.5796 -0.4724
   46DOPE     N 5806   4.796   4.992   9.579 -0.0198  0.3517 -0.1429
   46DOPE   HN1 5807   4.765   5.088   9.602 -2.5066  0.3511 -2.8330
   46DOPE   HN2 5808   4.812   5.005   9.477  0.6719  1.8830  0.1345
   46DOPE   HN3 5809   4.712   4.932   9.592  0.7312 -0.8577 -0.6787
   46DOPE   C12 5810   4.929   4.947   9.638 -0.3733 -0.0567  0.7237
   46DOPE  H12A 5811   5.007   5.016   9.599  0.2213 -0.9943  0.2322
   46DOPE  H12B 5812   4.947   4.844   9.603 -1.2394 -0.1803  0.6174
   46DOPE   C11 5813   4.937   4.951   9.790  0.0300 -0.1789  0.4536
   46DOPE  H11A 5814   4.942   5.059   9.812  2.8084 -0.3014  0.6973
   46DOPE  H11B 5815   5.032   4.906   9.824  1.0308  2.3371  1.2006
   46DOPE     P 5816   4.795   4.749   9.884  0.1198  0.3056  0.3559
   46DOPE   O13 5817   4.904   4.698   9.969 -0.0150  0.1649 -0.1589
   46DOPE   O14 5818   4.779   4.685   9.755  0.1549 -0.0763  0.2279
   46DOPE   O11 5819   4.655   4.763   9.954 -0.6471  0.7395  0.0405
   46DOPE   O12 5820   4.823   4.900   9.855  0.5397 -0.0385 -0.5829
   46DOPE    C1 5821   4.568   4.870   9.915  0.4323 -0.1702  0.1933
   46DOPE    HA 5822   4.469   4.825   9.893  0.1018  0.5899  0.0902
   46DOPE    HB 5823   4.597   4.930   9.825  0.9625 -0.8726 -0.1116
   46DOPE    C2 5824   4.549   4.992  10.015  0.8677  0.7238 -0.3508
   46DOPE    HS 5825   4.470   5.061   9.978  0.5543  0.5847  0.0383
   46DOPE   O21 5826   4.675   5.052  10.043 -0.2398  0.4728  0.1525
   46DOPE   C21 5827   4.688   5.180  10.003 -0.3504  0.1226  0.5000
   46DOPE   O22 5828   4.601   5.251   9.949 -0.5569  0.6452 -0.6660
   46DOPE   C22 5829   4.831   5.229  10.023  0.4790 -0.4774 -0.1887
   46DOPE   H2R 5830   4.876   5.250   9.924  1.3140  1.1221  0.4921
   46DOPE   H2S 5831   4.893   5.157  10.080  0.6760  1.1673  1.8112
   46DOPE    C3 5832   4.484   4.944  10.156 -0.1762  0.2528 -0.0131
   46DOPE    HX 5833   4.560   4.896  10.221 -0.2774  0.9792  0.6604
   46DOPE    HY 5834   4.421   4.853  10.152  2.8839 -1.9943  0.1022
   46DOPE   O31 5835   4.422   5.056  10.213 -0.3708 -0.6483  0.1539
   46DOPE   C31 5836   4.300   5.080  10.166  0.6251 -0.4911  0.0822
   46DOPE   O32 5837   4.233   5.011  10.091  0.8998 -0.1687 -0.1313
   46DOPE   C32 5838   4.252   5.209  10.230 -0.6527 -0.1799  0.1340
   46DOPE   H2X 5839   4.303   5.216  10.329 -1.0605 -1.8165  0.4823
   46DOPE   H2Y 5840   4.279   5.290  10.159 -0.8466  2.0849  2.5014
   46DOPE   C23 5841   4.825   5.361  10.110 -0.0444  0.1734 -0.7785
   46DOPE   H3R 5842   4.789   5.344  10.214 -1.8258  2.0715 -1.0339
   46DOPE   H3S 5843   4.756   5.435  10.066  1.8882  0.6950 -3.1276
   46DOPE   C24 5844   4.966   5.429  10.130 -1.1949 -0.0612 -0.5034
   46DOPE   H4R 5845   5.000   5.468  10.032 -3.5055  0.7254 -1.0714
   46DOPE   H4S 5846   5.045   5.357  10.162  1.1017  1.4742 -2.4349
   46DOPE   C25 5847   4.963   5.546  10.231  0.5441 -0.0094  0.1883
   46DOPE   H5R 5848   4.863   5.595  10.229  1.0659  1.0774 -1.6943
   46DOPE   H5S 5849   5.034   5.624  10.197 -0.1026 -0.9080 -3.6716
   46DOPE   C26 5850   4.988   5.495  10.376  0.0494 -0.6544  0.0072
   46DOPE   H6R 5851   5.085   5.443  10.396  0.6735  1.6484  4.2969
   46DOPE   H6S 5852   4.907   5.419  10.379  0.0116 -0.6573 -0.8972
   46DOPE   C27 5853   4.969   5.601  10.484  0.5758 -0.2518  0.5098
   46DOPE   H7R 5854   4.883   5.667  10.459  2.5787  2.0996 -0.6979
   46DOPE   H7S 5855   5.067   5.652  10.474  0.8322 -0.4695  1.7379
   46DOPE   C28 5856   4.951   5.534  10.626 -0.0662 -0.1919 -0.6629
   46DOPE   H8R 5857   5.043   5.480  10.656  1.4257  1.9033 -1.1935
   46DOPE   H8S 5858   4.875   5.454  10.615 -0.5326  0.0228  0.7541
   46DOPE   C29 5859   4.901   5.632  10.724  0.8670  0.0390 -0.7549
   46DOPE   H9R 5860   4.805   5.676  10.694  0.1377 -0.9925 -0.0153
   46DOPE  C210 5861   4.965   5.669  10.836  0.3148  1.0030 -0.5856
   46DOPE  H10R 5862   4.914   5.739  10.904  0.2536 -2.4577  3.3235
   46DOPE  C211 5863   5.092   5.608  10.892 -0.6595 -0.3137 -0.2743
   46DOPE  H11R 5864   5.169   5.688  10.900  0.9534 -1.9249  1.4339
   46DOPE  H11S 5865   5.145   5.527  10.839  0.7700 -0.0706  0.7159
   46DOPE  C212 5866   5.065   5.560  11.029 -0.1260 -0.0433 -1.1382
   46DOPE  H12R 5867   5.143   5.490  11.068  1.4918  1.8236 -0.8352
   46DOPE  H12S 5868   4.973   5.499  11.031 -0.1081 -0.1228 -2.2368
   46DOPE  C213 5869   5.054   5.674  11.138  0.1738  0.0657  0.6840
   46DOPE  H13R 5870   4.952   5.719  11.130  0.0404 -0.1540  1.1280
   46DOPE  H13S 5871   5.132   5.751  11.119 -0.2034  0.3508  0.2631
   46DOPE  C214 5872   5.072   5.620  11.281  0.1892  0.2041  0.6931
   46DOPE  H14R 5873   5.161   5.554  11.277  0.0461  0.0621 -0.6374
   46DOPE  H14S 5874   4.981   5.572  11.323  0.6692  0.0163  1.5466
   46DOPE  C215 5875   5.108   5.738  11.380  0.0349  0.1761 -0.2342
   46DOPE  H15R 5876   5.026   5.813  11.385  1.6360  1.9597  0.2070
   46DOPE  H15S 5877   5.192   5.786  11.325 -2.7230  1.1417 -4.0324
   46DOPE  C216 5878   5.132   5.691  11.525 -0.7629 -0.0953  0.5425
   46DOPE  H16R 5879   5.204   5.608  11.514 -0.8431  0.0018 -1.0513
   46DOPE  H16S 5880   5.037   5.658  11.571 -0.5121 -1.8165 -0.0982
   46DOPE  C217 5881   5.199   5.802  11.611  0.1167  0.1340  0.3094
   46DOPE  H17R 5882   5.127   5.886  11.617 -0.8258 -0.6727  0.5437
   46DOPE  H17S 5883   5.286   5.845  11.556 -1.0900  1.1669 -0.8461
   46DOPE  C218 5884   5.240   5.752  11.749  0.9725 -0.2422 -0.2243
   46DOPE  H18R 5885   5.313   5.668  11.752 -0.3265 -1.4613 -1.4440
   46DOPE  H18S 5886   5.164   5.716  11.822  1.5549 -1.2374 -0.0837
   46DOPE  H18T 5887   5.293   5.832  11.804  1.4125 -0.9728  0.4376
   46DOPE   C33 5888   4.102   5.206  10.256 -0.8645  0.4825  1.1154
   46DOPE   H3X 5889   4.066   5.112  10.302  0.1321  0.4660  1.8831
   46DOPE   H3Y 5890   4.054   5.204  10.155  1.0348  1.4831  0.1295
   46DOPE   C34 5891   4.047   5.321  10.339 -0.5482  0.2254 -0.0554
   46DOPE   H4X 5892   4.057   5.410  10.273 -0.8862 -1.6169 -2.7718
   46DOPE   H4Y 5893   3.939   5.299  10.354 -0.3291  0.2816  1.8371
   46DOPE   C35 5894   4.114   5.345  10.474  0.4572 -0.3604 -0.6463
   46DOPE   H5X 5895   4.055   5.428  10.518 -1.7505 -1.5730 -1.1896
   46DOPE   H5Y 5896   4.218   5.382  10.459  1.0830 -1.9029 -0.3009
   46DOPE   C36 5897   4.123   5.224  10.562  0.3793  0.0154  0.0696
   46DOPE   H6X 5898   4.139   5.130  10.506 -0.7303  0.0973 -0.4073
   46DOPE   H6Y 5899   4.026   5.216  10.615 -0.1484 -3.1792 -1.2125
   46DOPE   C37 5900   4.228   5.249  10.672  0.5965 -0.1327 -0.8194
   46DOPE   H7X 5901   4.224   5.161  10.739  0.0919  0.2036 -0.4047
   46DOPE   H7Y 5902   4.335   5.253  10.642  0.8877  0.8252  0.2551
   46DOPE   C38 5903   4.207   5.383  10.752 -0.6467  1.0243 -0.5076
   46DOPE   H8X 5904   4.112   5.370  10.810  0.0704 -2.0621  0.1791
   46DOPE   H8Y 5905   4.204   5.469  10.683  1.3904  2.4644  1.0846
   46DOPE   C39 5906   4.326   5.411  10.844 -0.2826  0.2478  0.0070
   46DOPE   H9X 5907   4.417   5.437  10.788  1.4095  0.2237  2.5872
   46DOPE  C310 5908   4.336   5.426  10.979  0.6460  0.3292  0.4195
   46DOPE  H10X 5909   4.431   5.454  11.025 -0.1719  0.6915  1.9460
   46DOPE  C311 5910   4.218   5.417  11.074 -0.4145  0.0306 -0.5541
   46DOPE  H11X 5911   4.169   5.516  11.087  1.4125  0.8395  0.6683
   46DOPE  H11Y 5912   4.143   5.344  11.038 -1.3931 -0.3219  2.0267
   46DOPE  C312 5913   4.242   5.368  11.218 -0.2879 -0.4205 -1.1741
   46DOPE  H12X 5914   4.320   5.290  11.213 -0.3092 -1.2449  4.5944
   46DOPE  H12Y 5915   4.144   5.332  11.256  0.9792 -0.8881  1.9528
   46DOPE  C313 5916   4.286   5.491  11.303  0.0553 -0.8129  0.2278
   46DOPE  H13X 5917   4.380   5.528  11.257  0.0081 -0.4698  0.4062
   46DOPE  H13Y 5918   4.217   5.577  11.294 -0.7338 -1.1765  2.1935
   46DOPE  C314 5919   4.318   5.470  11.451  0.3753 -0.2530  0.1866
   46DOPE  H14X 5920   4.428   5.475  11.463  0.4127  0.8584 -0.4957
   46DOPE  H14Y 5921   4.270   5.375  11.482 -1.3611  1.3167  2.6949
   46DOPE  C315 5922   4.257   5.582  11.540 -0.2337  0.3020  0.0912
   46DOPE  H15X 5923   4.147   5.584  11.527 -0.4264 -0.5181  1.4271
   46DOPE  H15Y 5924   4.302   5.681  11.516  0.9110 -0.0074  0.8737
   46DOPE  C316 5925   4.268   5.550  11.689 -0.2647 -0.2829  0.3001
   46DOPE  H16X 5926   4.372   5.575  11.718  1.1070  0.4415 -4.3065
   46DOPE  H16Y 5927   4.254   5.443  11.714 -0.1393 -0.1346  1.0152
   46DOPE  C317 5928   4.170   5.631  11.779 -0.1937 -0.1362  0.2352
   46DOPE  H17X 5929   4.182   5.591  11.882  1.0334  1.7212  0.8794
   46DOPE  H17Y 5930   4.209   5.735  11.776 -0.8099  0.0852 -0.5054
   46DOPE  C318 5931   4.026   5.627  11.742 -0.3183  0.6137 -0.3148
   46DOPE  H18X 5932   3.999   5.701  11.664  0.3372  0.6813 -0.4830
   46DOPE  H18Y 5933   4.003   5.521  11.719 -1.4290  0.4010  1.6244
   46DOPE  H18Z 5934   3.960   5.659  11.825  1.6074  0.7226  1.2583
   47DOPE     N 5935   2.282   3.926   9.975 -0.3987 -0.1071  0.5074
   47DOPE   HN1 5936   2.246   4.017   9.939 -1.3419 -1.7549 -3.2030
   47DOPE   HN2 5937   2.304   3.939  10.076 -1.1463  1.6531  0.4856
   47DOPE   HN3 5938   2.361   3.882   9.925  0.2708 -0.0046  1.4515
   47DOPE   C12 5939   2.156   3.837   9.978  0.4108 -0.1038  0.2433
   47DOPE  H12A 5940   2.178   3.742  10.031 -0.2524  0.7060  2.0594
   47DOPE  H12B 5941   2.132   3.819   9.871  0.6082  0.6685  0.0671
   47DOPE   C11 5942   2.037   3.916  10.032 -0.6005  0.0987 -0.0632
   47DOPE  H11A 5943   2.068   3.959  10.129  1.5160  1.1311 -1.1183
   47DOPE  H11B 5944   1.950   3.850  10.052  0.6704 -1.4421  0.6484
   47DOPE     P 5945   2.042   4.165   9.964  0.2231 -0.2760  0.1903
   47DOPE   O13 5946   1.923   4.240   9.921 -0.1178 -0.2658 -0.1270
   47DOPE   O14 5947   2.172   4.190   9.900 -0.3589 -0.2119 -0.0447
   47DOPE   O11 5948   2.044   4.177  10.120  0.5373 -0.2440  0.0484
   47DOPE   O12 5949   2.000   4.013   9.938 -0.1639 -0.2387  0.3952
   47DOPE    C1 5950   2.094   4.294  10.182  0.5181 -0.1834 -0.2029
   47DOPE    HA 5951   2.055   4.303  10.285  0.2201  2.4049 -0.4695
   47DOPE    HB 5952   2.076   4.390  10.129  2.3933  1.0608  1.2560
   47DOPE    C2 5953   2.251   4.291  10.193 -0.0855  0.5105 -0.1373
   47DOPE    HS 5954   2.299   4.228  10.116 -1.4891  0.9672 -1.4498
   47DOPE   O21 5955   2.278   4.236  10.323  0.3850 -0.2472  0.6584
   47DOPE   C21 5956   2.276   4.100  10.327 -0.0525  0.1464  0.3314
   47DOPE   O22 5957   2.278   4.026  10.231  0.4897 -0.1914 -0.5372
   47DOPE   C22 5958   2.282   4.060  10.471 -0.7368 -0.1073 -0.5962
   47DOPE   H2R 5959   2.218   4.126  10.532  0.6889  1.2150 -0.4561
   47DOPE   H2S 5960   2.389   4.070  10.502 -0.4957 -1.1624 -1.0254
   47DOPE    C3 5961   2.321   4.427  10.180  0.0983  0.1130  0.4787
   47DOPE    HX 5962   2.303   4.458  10.075 -2.1891  1.9730  1.3175
   47DOPE    HY 5963   2.430   4.419  10.200  0.2619 -0.8607 -0.7225
   47DOPE   O31 5964   2.251   4.516  10.265  0.0173 -0.8618  0.3211
   47DOPE   C31 5965   2.296   4.541  10.389  0.2206 -0.0492 -0.1722
   47DOPE   O32 5966   2.384   4.482  10.449  0.4211  0.6618 -0.1065
   47DOPE   C32 5967   2.208   4.650  10.454 -0.1389  0.4733 -0.1224
   47DOPE   H2X 5968   2.263   4.746  10.444 -0.0564  0.4467  0.0741
   47DOPE   H2Y 5969   2.113   4.655  10.397 -0.7379  0.5690  0.8571
   47DOPE   C23 5970   2.251   3.915  10.480  0.4499  0.4045 -0.2981
   47DOPE   H3R 5971   2.325   3.862  10.416 -1.2494  0.9109 -2.8421
   47DOPE   H3S 5972   2.149   3.899  10.438  1.0660 -2.0910 -1.0178
   47DOPE   C24 5973   2.253   3.857  10.630 -0.8761  1.1282  0.3827
   47DOPE   H4R 5974   2.263   3.747  10.627 -1.9812  1.0133  0.4738
   47DOPE   H4S 5975   2.158   3.893  10.674 -1.8587  0.6136 -1.2220
   47DOPE   C25 5976   2.388   3.905  10.705  0.0447 -0.0644  0.0952
   47DOPE   H5R 5977   2.382   4.011  10.736  4.5512 -0.1989  2.3822
   47DOPE   H5S 5978   2.463   3.895  10.624 -0.6231 -1.2647 -0.3994
   47DOPE   C26 5979   2.424   3.819  10.834  0.0776  0.0984 -0.0548
   47DOPE   H6R 5980   2.401   3.713  10.810 -3.3462  1.0937 -1.9950
   47DOPE   H6S 5981   2.336   3.849  10.896 -0.5731 -0.4251 -0.7125
   47DOPE   C27 5982   2.561   3.855  10.884  0.2004 -0.3922  0.5382
   47DOPE   H7R 5983   2.562   3.963  10.911 -0.2660 -0.2288 -0.0871
   47DOPE   H7S 5984   2.639   3.833  10.809 -1.7190 -0.5015 -1.5256
   47DOPE   C28 5985   2.585   3.777  11.013 -0.0449 -0.5686 -0.5929
   47DOPE   H8R 5986   2.506   3.815  11.082  1.2725  1.9500 -0.3450
   47DOPE   H8S 5987   2.684   3.816  11.044 -0.3908 -1.1081  1.3135
   47DOPE   C29 5988   2.596   3.624  11.015  0.2484 -0.1853 -0.0176
   47DOPE   H9R 5989   2.630   3.585  10.918 -1.6716  3.0042 -2.1664
   47DOPE  C210 5990   2.555   3.541  11.111 -0.2621 -0.0529 -0.5568
   47DOPE  H10R 5991   2.586   3.436  11.100  2.1494  0.7697 -2.4864
   47DOPE  C211 5992   2.493   3.587  11.249  0.2394  0.3438 -0.0943
   47DOPE  H11R 5993   2.402   3.524  11.263  1.2440 -1.4186 -1.1381
   47DOPE  H11S 5994   2.451   3.689  11.243  1.0004  0.5707 -2.2138
   47DOPE  C212 5995   2.602   3.576  11.347  0.8218  0.1509 -0.1925
   47DOPE  H12R 5996   2.677   3.657  11.329  0.6839  0.3833  0.2800
   47DOPE  H12S 5997   2.651   3.476  11.348 -2.3814 -1.5696  2.0672
   47DOPE  C213 5998   2.548   3.602  11.490 -0.2087  0.3156  0.9858
   47DOPE  H13R 5999   2.538   3.708  11.521 -1.2338 -0.2895  2.8668
   47DOPE  H13S 6000   2.632   3.571  11.557  2.0769  2.5255 -0.6424
   47DOPE  C214 6001   2.423   3.525  11.530  0.0464  0.3154 -0.2477
   47DOPE  H14R 6002   2.439   3.422  11.490 -2.4764 -0.0154 -0.5872
   47DOPE  H14S 6003   2.337   3.560  11.469 -0.0765  0.9619  0.2929
   47DOPE  C215 6004   2.395   3.521  11.682  0.7829 -0.4315 -0.5282
   47DOPE  H15R 6005   2.351   3.615  11.722  0.6312 -0.8541  0.3136
   47DOPE  H15S 6006   2.488   3.505  11.739 -0.5550  0.2213  1.9654
   47DOPE  C216 6007   2.312   3.406  11.722 -0.2142  0.1836  0.3242
   47DOPE  H16R 6008   2.295   3.403  11.831 -0.7991  1.2800  0.2762
   47DOPE  H16S 6009   2.356   3.310  11.686 -2.2492 -0.6007 -0.1756
   47DOPE  C217 6010   2.165   3.413  11.669 -0.1862 -0.1840 -0.6436
   47DOPE  H17R 6011   2.158   3.439  11.561 -0.0231 -1.7180 -1.0443
   47DOPE  H17S 6012   2.116   3.487  11.735  0.4026 -0.6324  0.3206
   47DOPE  C218 6013   2.102   3.286  11.689 -0.1374  0.4163 -0.3234
   47DOPE  H18R 6014   1.991   3.287  11.679 -0.2470 -0.5573  0.6150
   47DOPE  H18S 6015   2.136   3.245  11.786 -1.0023  0.0136 -0.1863
   47DOPE  H18T 6016   2.131   3.216  11.607 -0.9574  0.6869 -0.8546
   47DOPE   C33 6017   2.168   4.609  10.594 -0.4954 -0.7776 -0.1100
   47DOPE   H3X 6018   2.262   4.592  10.652 -1.1133 -1.3733  0.7454
   47DOPE   H3Y 6019   2.114   4.512  10.596 -0.8502 -0.6228 -1.4616
   47DOPE   C34 6020   2.097   4.722  10.666  0.3104 -0.1477  0.0934
   47DOPE   H4X 6021   2.152   4.819  10.670 -0.8074  0.6001 -1.4375
   47DOPE   H4Y 6022   1.994   4.744  10.631 -0.1715  0.5558  1.8472
   47DOPE   C35 6023   2.069   4.677  10.811 -0.8182  0.1977  0.2067
   47DOPE   H5X 6024   2.157   4.620  10.847 -0.5648  0.2929 -0.2576
   47DOPE   H5Y 6025   1.984   4.606  10.810 -0.7436  0.1023  0.5962
   47DOPE   C36 6026   2.025   4.788  10.906 -0.8691 -0.0469 -0.2566
   47DOPE   H6X 6027   1.921   4.820  10.880 -1.7439  0.3849  3.2890
   47DOPE   H6Y 6028   2.095   4.873  10.908  0.0282 -0.6880 -2.1737
   47DOPE   C37 6029   2.000   4.749  11.055  0.3517 -0.3606  0.1721
   47DOPE   H7X 6030   1.929   4.665  11.041 -0.4530  0.2411  0.5651
   47DOPE   H7Y 6031   2.084   4.687  11.092  0.2060 -1.0849 -0.6587
   47DOPE   C38 6032   1.962   4.871  11.142 -0.2988 -0.4222 -0.2023
   47DOPE   H8X 6033   1.871   4.914  11.097  1.1156  2.9657 -0.1283
   47DOPE   H8Y 6034   2.041   4.949  11.136 -0.3570 -0.3271  0.2335
   47DOPE   C39 6035   1.947   4.814  11.282 -0.0707 -0.0901  1.5202
   47DOPE   H9X 6036   1.937   4.704  11.277 -0.0154 -0.2361  3.8718
   47DOPE  C310 6037   1.957   4.872  11.399  0.4240 -0.1269  1.1036
   47DOPE  H10X 6038   1.933   4.813  11.489  0.0840 -0.9006  0.5114
   47DOPE  C311 6039   1.962   5.016  11.413  0.2239  0.6367  0.2024
   47DOPE  H11X 6040   2.066   5.051  11.430 -0.3364  2.3011  0.4657
   47DOPE  H11Y 6041   1.927   5.067  11.320 -0.4757  0.3628  0.3087
   47DOPE  C312 6042   1.863   5.057  11.523  0.1321 -0.5583 -0.0198
   47DOPE  H12X 6043   1.761   5.023  11.496 -0.7578  2.8828 -1.5022
   47DOPE  H12Y 6044   1.856   5.167  11.506 -3.1289 -1.0096 -2.4624
   47DOPE  C313 6045   1.919   5.038  11.669  0.3357 -0.5256 -0.2316
   47DOPE  H13X 6046   1.945   4.930  11.673 -0.1641 -0.6164  1.4212
   47DOPE  H13Y 6047   2.008   5.101  11.691  1.8272 -2.9252  0.9431
   47DOPE  C314 6048   1.807   5.053  11.777 -0.5766 -0.2472 -0.3720
   47DOPE  H14X 6049   1.730   4.984  11.737  1.2672 -1.5098 -1.8860
   47DOPE  H14Y 6050   1.773   5.159  11.774 -0.2346 -0.1561 -1.1854
   47DOPE  C315 6051   1.851   5.011  11.912  0.6507  0.2064 -0.2651
   47DOPE  H15X 6052   1.885   4.907  11.894 -0.4225 -0.3959  0.9958
   47DOPE  H15Y 6053   1.771   5.003  11.989  2.2572 -3.4534  1.2533
   47DOPE  C316 6054   1.964   5.073  11.987 -0.7669  0.3565  0.5933
   47DOPE  H16X 6055   1.921   5.167  12.028 -2.4478  0.0901 -0.4442
   47DOPE  H16Y 6056   2.045   5.097  11.916 -0.0970  0.9530  1.5368
   47DOPE  C317 6057   2.020   4.995  12.105 -0.2285 -0.1304 -0.3364
   47DOPE  H17X 6058   1.937   4.969  12.174  0.2722 -1.6234 -0.2730
   47DOPE  H17Y 6059   2.068   4.907  12.058 -2.7394 -0.6447 -2.1553
   47DOPE  C318 6060   2.136   5.064  12.176 -0.3826 -0.2290  0.0011
   47DOPE  H18X 6061   2.220   5.096  12.111 -0.7130 -0.8266 -0.7400
   47DOPE  H18Y 6062   2.099   5.154  12.230 -1.3945 -0.3146 -0.5129
   47DOPE  H18Z 6063   2.193   5.002  12.248 -0.4379 -1.0001 -0.6012
   48DOPE     N 6064   0.362   0.797   9.158  0.4876  0.2920 -0.7204
   48DOPE   HN1 6065   0.370   0.704   9.203 -2.9257  0.2273  0.0314
   48DOPE   HN2 6066   0.283   0.844   9.208  1.2034  0.7154  0.0425
   48DOPE   HN3 6067   0.332   0.786   9.059  0.2178  0.1380 -0.6229
   48DOPE   C12 6068   0.482   0.891   9.160 -0.3595 -0.3729 -0.0977
   48DOPE  H12A 6069   0.458   0.978   9.095 -1.4311  1.3191  2.4307
   48DOPE  H12B 6070   0.561   0.830   9.111  0.6866 -0.4822  1.6353
   48DOPE   C11 6071   0.520   0.952   9.297  0.3735  0.5467  0.4363
   48DOPE  H11A 6072   0.617   1.004   9.279  0.2309  0.0700 -2.0960
   48DOPE  H11B 6073   0.544   0.866   9.363 -0.5424 -1.5836 -1.8251
   48DOPE     P 6074   0.426   1.096   9.492 -0.0194 -0.0145  0.2720
   48DOPE   O13 6075   0.292   1.141   9.537  0.2958 -0.4045 -0.0146
   48DOPE   O14 6076   0.535   1.204   9.485 -0.2089  0.9190 -0.8619
   48DOPE   O11 6077   0.485   0.977   9.579 -0.1251 -0.3361  0.5070
   48DOPE   O12 6078   0.416   1.031   9.352  0.5630 -0.8431  0.2375
   48DOPE    C1 6079   0.406   0.869   9.631 -0.3174 -0.5601 -0.6260
   48DOPE    HA 6080   0.358   0.821   9.543 -1.6876 -0.0884 -0.1595
   48DOPE    HB 6081   0.322   0.913   9.689  0.3978  1.2204 -0.8753
   48DOPE    C2 6082   0.493   0.771   9.718 -0.0164  0.2933  0.6865
   48DOPE    HS 6083   0.428   0.686   9.746 -3.8833  3.2957  1.7577
   48DOPE   O21 6084   0.546   0.843   9.830  0.9228 -0.3471 -0.0523
   48DOPE   C21 6085   0.458   0.879   9.922  0.4055 -0.5553  0.0355
   48DOPE   O22 6086   0.345   0.824   9.932  0.2556 -0.2278  0.3018
   48DOPE   C22 6087   0.504   0.986  10.018  0.2270  0.5211 -0.5192
   48DOPE   H2R 6088   0.470   1.082   9.973 -1.7872  0.2600  0.3665
   48DOPE   H2S 6089   0.614   0.975  10.031  0.0635 -0.2227  0.3937
   48DOPE    C3 6090   0.613   0.719   9.629 -0.0239 -0.3004 -0.5499
   48DOPE    HX 6091   0.692   0.794   9.607  2.0502 -2.8980 -2.6831
   48DOPE    HY 6092   0.564   0.679   9.538 -0.8771 -1.6496  0.4635
   48DOPE   O31 6093   0.672   0.612   9.703  0.4113  0.1924  0.5321
   48DOPE   C31 6094   0.765   0.630   9.794 -0.0855  0.0104  1.0867
   48DOPE   O32 6095   0.817   0.732   9.826  0.0451 -0.0640 -0.2616
   48DOPE   C32 6096   0.808   0.490   9.848 -0.7896  0.2724 -0.0668
   48DOPE   H2X 6097   0.809   0.425   9.758  1.2677  2.1747 -1.5210
   48DOPE   H2Y 6098   0.911   0.505   9.886 -0.6242 -0.4657 -0.2030
   48DOPE   C23 6099   0.421   0.978  10.151  0.4566  0.2240 -0.1882
   48DOPE   H3R 6100   0.441   0.883  10.204 -1.2040 -0.0437  0.0018
   48DOPE   H3S 6101   0.312   0.971  10.130  0.3592  3.2902 -1.3322
   48DOPE   C24 6102   0.431   1.105  10.238 -0.6019  0.2344 -0.1816
   48DOPE   H4R 6103   0.367   1.171  10.175 -0.5526  0.3052 -0.1569
   48DOPE   H4S 6104   0.538   1.132  10.240 -0.7043  0.8350  2.7981
   48DOPE   C25 6105   0.381   1.096  10.389  0.3199 -0.0147  0.5144
   48DOPE   H5R 6106   0.451   1.018  10.428 -1.6510 -0.1864  4.1093
   48DOPE   H5S 6107   0.276   1.060  10.392  0.5169 -0.7291 -0.4690
   48DOPE   C26 6108   0.397   1.218  10.474  0.1580 -0.2516  0.5215
   48DOPE   H6R 6109   0.341   1.309  10.445  0.7737  0.8270  2.5132
   48DOPE   H6S 6110   0.503   1.247  10.454 -0.3678  0.3033 -1.6670
   48DOPE   C27 6111   0.386   1.186  10.622 -0.5135 -0.5032  0.0620
   48DOPE   H7R 6112   0.460   1.109  10.653 -0.0129 -0.4030 -0.8277
   48DOPE   H7S 6113   0.285   1.148  10.646 -1.2371  1.5948  0.5439
   48DOPE   C28 6114   0.419   1.313  10.701 -0.4070 -0.7132  0.3763
   48DOPE   H8R 6115   0.356   1.397  10.666  0.2867 -0.1625  0.4408
   48DOPE   H8S 6116   0.525   1.338  10.682 -0.7414  2.5023  2.0845
   48DOPE   C29 6117   0.391   1.279  10.852 -0.3922  0.2982  0.5936
   48DOPE   H9R 6118   0.291   1.237  10.872 -0.6318  1.3680  1.8067
   48DOPE  C210 6119   0.470   1.291  10.952 -0.2072  0.6973 -0.0603
   48DOPE  H10R 6120   0.440   1.243  11.046  0.0517  0.4656 -0.0957
   48DOPE  C211 6121   0.614   1.334  10.954 -0.3341 -0.2719  0.0248
   48DOPE  H11R 6122   0.622   1.433  10.905 -1.0484 -0.8441 -1.3126
   48DOPE  H11S 6123   0.683   1.277  10.888  0.5490  0.8599 -0.0579
   48DOPE  C212 6124   0.686   1.341  11.091 -0.4757 -0.1682 -0.9623
   48DOPE  H12R 6125   0.615   1.391  11.160  0.8191 -1.4973  1.4719
   48DOPE  H12S 6126   0.779   1.400  11.080 -0.3616 -0.5118 -1.9486
   48DOPE  C213 6127   0.724   1.204  11.148 -0.1517 -0.5231  0.4965
   48DOPE  H13R 6128   0.812   1.167  11.091 -1.3165 -1.1297 -0.9936
   48DOPE  H13S 6129   0.645   1.127  11.134 -1.5191  1.0155 -0.6589
   48DOPE  C214 6130   0.762   1.204  11.297 -0.6661  0.5704  0.2981
   48DOPE  H14R 6131   0.845   1.276  11.309 -1.3392  1.2246  1.1729
   48DOPE  H14S 6132   0.798   1.100  11.317 -1.4968 -0.1098 -1.4894
   48DOPE  C215 6133   0.655   1.252  11.396  0.1056 -0.2885 -0.4126
   48DOPE  H15R 6134   0.671   1.359  11.370  1.1898 -0.6581 -1.3817
   48DOPE  H15S 6135   0.702   1.248  11.496 -0.7221 -1.6177 -0.0619
   48DOPE  C216 6136   0.514   1.189  11.378  0.4846  0.5904  0.7710
   48DOPE  H16R 6137   0.547   1.084  11.366  3.0716  1.6241 -3.3123
   48DOPE  H16S 6138   0.458   1.209  11.284  0.1520 -0.4897  0.7310
   48DOPE  C217 6139   0.419   1.202  11.497  0.3438 -0.0657  0.0641
   48DOPE  H17R 6140   0.328   1.138  11.485 -0.1205  0.7223 -0.7338
   48DOPE  H17S 6141   0.385   1.307  11.511 -0.1386 -0.0704 -0.9378
   48DOPE  C218 6142   0.485   1.150  11.628 -0.5507 -0.0977 -0.3331
   48DOPE  H18R 6143   0.410   1.157  11.709 -0.1038 -2.1855  0.3300
   48DOPE  H18S 6144   0.575   1.212  11.649  1.1528 -1.0328 -4.0023
   48DOPE  H18T 6145   0.518   1.044  11.620  0.4125  0.2624 -1.4266
   48DOPE   C33 6146   0.708   0.429   9.959 -0.1205  0.0437  0.8899
   48DOPE   H3X 6147   0.646   0.360   9.898 -0.1586 -1.4374  2.5037
   48DOPE   H3Y 6148   0.635   0.503   9.997  1.3748  2.5935 -0.9126
   48DOPE   C34 6149   0.770   0.343  10.071 -0.1051  0.2870 -0.7661
   48DOPE   H4X 6150   0.823   0.266  10.011 -0.1864 -0.7927  0.5099
   48DOPE   H4Y 6151   0.842   0.404  10.131 -1.6609  0.0294  1.4806
   48DOPE   C35 6152   0.659   0.291  10.162 -0.0159 -0.3305  0.4956
   48DOPE   H5X 6153   0.605   0.209  10.111 -1.5657  0.2680  1.1157
   48DOPE   H5Y 6154   0.600   0.377  10.200  3.2492  0.5614  4.2344
   48DOPE   C36 6155   0.714   0.221  10.287  0.8021  0.1649 -0.0167
   48DOPE   H6X 6156   0.797   0.275  10.337  2.7352 -1.9660 -0.8081
   48DOPE   H6Y 6157   0.739   0.119  10.253 -3.9631 -0.8664 -1.2591
   48DOPE   C37 6158   0.599   0.225  10.387  0.2992  0.1405  0.1042
   48DOPE   H7X 6159   0.560   0.325  10.416  0.7628 -0.3261  2.5443
   48DOPE   H7Y 6160   0.513   0.176  10.335  1.6195 -1.7900 -0.3568
   48DOPE   C38 6161   0.627   0.139  10.511 -0.7661  0.0055 -0.2627
   48DOPE   H8X 6162   0.726   0.178  10.544 -1.7910  2.5734  0.0179
   48DOPE   H8Y 6163   0.645   0.038  10.467 -0.1010  0.1019 -0.2311
   48DOPE   C39 6164   0.521   0.139  10.615 -0.2332 -0.2005  0.1743
   48DOPE   H9X 6165   0.432   0.079  10.589 -1.0855  1.4248 -0.8745
   48DOPE  C310 6166   0.514   0.216  10.727 -0.0283 -0.2117  0.1294
   48DOPE  H10X 6167   0.429   0.196  10.794  0.0631 -0.6767  0.1123
   48DOPE  C311 6168   0.621   0.314  10.775  0.4320 -0.1684 -0.3764
   48DOPE  H11X 6169   0.645   0.288  10.880 -0.1381 -1.3821 -0.5317
   48DOPE  H11Y 6170   0.716   0.299  10.719  0.9624  1.0260  0.1723
   48DOPE  C312 6171   0.575   0.460  10.784 -0.0931  0.4947 -0.7466
   48DOPE  H12X 6172   0.654   0.510  10.844  0.9891  0.6417 -2.2305
   48DOPE  H12Y 6173   0.478   0.461  10.838 -0.5630  0.1894 -1.5691
   48DOPE  C313 6174   0.548   0.529  10.654  0.1647  0.4137  0.4129
   48DOPE  H13X 6175   0.477   0.466  10.597 -0.3507 -0.6309  2.1089
   48DOPE  H13Y 6176   0.487   0.621  10.670 -1.1005 -0.6822  2.3891
   48DOPE  C314 6177   0.681   0.573  10.589  0.0914 -0.1085  0.4330
   48DOPE  H14X 6178   0.751   0.487  10.578  1.5362  1.3224 -2.9607
   48DOPE  H14Y 6179   0.736   0.636  10.664  1.6644 -1.8422  0.8089
   48DOPE  C315 6180   0.661   0.651  10.458  0.5519  0.2040 -0.0443
   48DOPE  H15X 6181   0.571   0.714  10.472 -0.2563 -0.5875 -1.3861
   48DOPE  H15Y 6182   0.624   0.577  10.383  0.2363 -2.2475  2.3552
   48DOPE  C316 6183   0.777   0.737  10.409  0.4004  0.8559 -0.7499
   48DOPE  H16X 6184   0.857   0.661  10.402  0.5391  1.0717 -1.6945
   48DOPE  H16Y 6185   0.805   0.812  10.486  1.7122 -0.4162  0.0521
   48DOPE  C317 6186   0.765   0.801  10.278  0.6202  0.7547 -0.4222
   48DOPE  H17X 6187   0.682   0.874  10.279 -2.5209 -2.5431 -0.8312
   48DOPE  H17Y 6188   0.859   0.856  10.257  0.7678  0.3761 -0.7695
   48DOPE  C318 6189   0.735   0.698  10.159 -0.3593 -0.3910 -0.1019
   48DOPE  H18X 6190   0.752   0.739  10.057 -0.6325 -2.3487 -0.9712
   48DOPE  H18Y 6191   0.809   0.616  10.174 -1.0018 -0.9952 -0.1942
   48DOPE  H18Z 6192   0.629   0.667  10.165 -0.8649  1.3144  0.2958
   49DOPE     N 6193   2.641   5.282   9.603 -0.4192 -0.2858 -0.0882
   49DOPE   HN1 6194   2.586   5.198   9.630 -1.9826  0.6862 -0.1686
   49DOPE   HN2 6195   2.585   5.340   9.538  0.4480 -0.1203 -0.7091
   49DOPE   HN3 6196   2.713   5.236   9.543 -0.8572 -1.6087  0.3719
   49DOPE   C12 6197   2.700   5.378   9.706  0.5278 -0.0087  0.1887
   49DOPE  H12A 6198   2.789   5.338   9.760  1.3809  0.5490 -0.7447
   49DOPE  H12B 6199   2.621   5.404   9.779 -2.8641  1.0501 -3.4827
   49DOPE   C11 6200   2.754   5.500   9.626 -0.5061 -0.0887  0.3146
   49DOPE  H11A 6201   2.848   5.469   9.576 -0.1291  1.0487  0.3035
   49DOPE  H11B 6202   2.778   5.583   9.695  1.8053  0.1880 -0.7409
   49DOPE     P 6203   2.685   5.689   9.465 -0.0099 -0.1697  0.0959
   49DOPE   O13 6204   2.601   5.706   9.341 -0.3339  0.1357  0.3693
   49DOPE   O14 6205   2.826   5.725   9.445  0.1894 -0.2107 -0.1153
   49DOPE   O11 6206   2.625   5.781   9.577 -0.0950  0.3311  0.0376
   49DOPE   O12 6207   2.664   5.540   9.517  0.1076 -0.1325 -0.0939
   49DOPE    C1 6208   2.489   5.750   9.626 -0.0461  0.2161  0.1207
   49DOPE    HA 6209   2.481   5.640   9.622  0.6784  0.1571  0.1557
   49DOPE    HB 6210   2.410   5.775   9.551 -0.9706 -4.0691 -0.5974
   49DOPE    C2 6211   2.460   5.811   9.764 -0.1286  0.0434  0.2443
   49DOPE    HS 6212   2.466   5.920   9.742 -1.8867 -0.4843 -3.8879
   49DOPE   O21 6213   2.548   5.756   9.865 -0.3912 -0.1019  0.1519
   49DOPE   C21 6214   2.647   5.830   9.894 -0.3079  0.2245  0.3635
   49DOPE   O22 6215   2.691   5.926   9.836 -0.2624 -0.5779 -0.7382
   49DOPE   C22 6216   2.718   5.763  10.012  0.5771 -0.3727 -0.7812
   49DOPE   H2R 6217   2.813   5.718   9.977  1.6579  1.1484  0.0822
   49DOPE   H2S 6218   2.656   5.685  10.062  3.0504 -0.3671  2.6554
   49DOPE    C3 6219   2.310   5.778   9.803 -0.6357  0.0312  0.1209
   49DOPE    HX 6220   2.293   5.673   9.771 -0.2406  0.3487 -1.1831
   49DOPE    HY 6221   2.242   5.838   9.738  1.3726  1.1657 -1.0537
   49DOPE   O31 6222   2.272   5.807   9.937 -0.6420 -0.2308 -0.1385
   49DOPE   C31 6223   2.289   5.711  10.024 -0.2319 -0.4585  0.0723
   49DOPE   O32 6224   2.321   5.594  10.001 -0.1534  0.2592 -0.6833
   49DOPE   C32 6225   2.274   5.769  10.162 -0.4460  0.3228 -0.4465
   49DOPE   H2X 6226   2.289   5.879  10.161  2.4144  0.0946  2.7382
   49DOPE   H2Y 6227   2.172   5.745  10.199 -0.3760 -2.7610 -1.9653
   49DOPE   C23 6228   2.747   5.853  10.136  0.6507 -0.2738 -0.0506
   49DOPE   H3R 6229   2.650   5.898  10.167  1.3566  0.9362  0.4468
   49DOPE   H3S 6230   2.806   5.942  10.104  0.0440 -0.4058 -1.6752
   49DOPE   C24 6231   2.813   5.790  10.255 -0.0638  0.0423 -0.2659
   49DOPE   H4R 6232   2.912   5.744  10.236 -0.2757 -1.1957  1.3823
   49DOPE   H4S 6233   2.762   5.705  10.304 -1.0829  0.6849 -0.1912
   49DOPE   C25 6234   2.816   5.895  10.368  0.3067  0.1958 -0.1623
   49DOPE   H5R 6235   2.709   5.923  10.378  0.1952 -0.2143 -0.1721
   49DOPE   H5S 6236   2.867   5.984  10.325 -1.2131  0.7177 -0.9641
   49DOPE   C26 6237   2.854   5.844  10.506 -0.2586 -0.0525 -1.1762
   49DOPE   H6R 6238   2.958   5.805  10.504 -0.8257 -1.7007 -0.3620
   49DOPE   H6S 6239   2.791   5.758  10.536  1.6144 -1.3933 -0.8500
   49DOPE   C27 6240   2.853   5.970  10.596 -0.1074 -0.1234  0.4966
   49DOPE   H7R 6241   2.758   6.025  10.584 -1.1488 -2.0444 -0.7277
   49DOPE   H7S 6242   2.934   6.037  10.558 -0.4973  1.1163  1.7876
   49DOPE   C28 6243   2.895   5.948  10.747  0.3777 -0.4145 -0.0263
   49DOPE   H8R 6244   2.884   6.041  10.806 -1.8769 -2.9273  4.0425
   49DOPE   H8S 6245   3.004   5.925  10.746  0.9934  2.1799  0.9746
   49DOPE   C29 6246   2.839   5.824  10.820 -0.7031 -0.5214  0.4551
   49DOPE   H9R 6247   2.812   5.738  10.758 -0.9880 -0.9103  1.1084
   49DOPE  C210 6248   2.782   5.835  10.939  0.6505  0.0999 -0.3851
   49DOPE  H10R 6249   2.746   5.742  10.986 -1.6433  0.7644 -0.6843
   49DOPE  C211 6250   2.795   5.950  11.038 -0.8135  0.0209  0.2024
   49DOPE  H11R 6251   2.700   5.994  11.073 -0.6671  1.2901 -0.8824
   49DOPE  H11S 6252   2.852   6.041  11.007  0.2038  0.4420  2.9716
   49DOPE  C212 6253   2.874   5.903  11.164  0.2039 -0.2153 -0.1356
   49DOPE  H12R 6254   2.819   5.818  11.208  1.2220 -0.0873  1.4698
   49DOPE  H12S 6255   2.879   5.989  11.234 -0.1590 -0.2837 -0.0229
   49DOPE  C213 6256   3.015   5.860  11.127  0.1379 -0.6263 -0.4168
   49DOPE  H13R 6257   3.057   5.922  11.045  0.7113 -0.1570  0.2147
   49DOPE  H13S 6258   3.008   5.753  11.096 -0.3051 -0.7968  0.2486
   49DOPE  C214 6259   3.104   5.865  11.258  0.0331 -0.2210  0.2277
   49DOPE  H14R 6260   3.136   5.969  11.283 -1.7044  0.3062  0.4442
   49DOPE  H14S 6261   3.194   5.810  11.225  0.7059  0.9846 -0.0211
   49DOPE  C215 6262   3.030   5.802  11.383  0.2663  0.0560 -0.1166
   49DOPE  H15R 6263   3.010   5.698  11.350  0.1681  0.3215 -0.9095
   49DOPE  H15S 6264   2.940   5.858  11.414 -0.9707 -0.9426 -1.7932
   49DOPE  C216 6265   3.125   5.776  11.499  0.3477 -0.0541 -0.0555
   49DOPE  H16R 6266   3.179   5.873  11.510 -0.8800  0.8418 -1.4925
   49DOPE  H16S 6267   3.207   5.705  11.475  0.5822 -0.0114  0.5801
   49DOPE  C217 6268   3.061   5.735  11.630  0.1153 -0.0415  0.0561
   49DOPE  H17R 6269   2.983   5.662  11.601 -0.1175  0.7456 -1.4298
   49DOPE  H17S 6270   3.017   5.817  11.690  0.9117 -2.1830  3.9191
   49DOPE  C218 6271   3.164   5.673  11.726  0.2563  0.5927 -0.7018
   49DOPE  H18R 6272   3.217   5.586  11.683  0.4331 -0.6640  1.8545
   49DOPE  H18S 6273   3.117   5.634  11.819  1.1100 -1.5368 -1.1085
   49DOPE  H18T 6274   3.239   5.752  11.751 -1.8163  1.5546  3.5064
   49DOPE   C33 6275   2.384   5.710  10.262 -0.0561  0.6208  0.3612
   49DOPE   H3X 6276   2.489   5.726  10.232  0.1468  0.4224  0.9461
   49DOPE   H3Y 6277   2.370   5.601  10.246 -0.6988  1.1059 -3.0698
   49DOPE   C34 6278   2.361   5.767  10.404  1.3063  0.1480  0.1250
   49DOPE   H4X 6279   2.358   5.877  10.396  0.1931  0.0026 -2.3353
   49DOPE   H4Y 6280   2.271   5.729  10.458  0.1104  2.1738 -0.3644
   49DOPE   C35 6281   2.484   5.739  10.490 -0.0511 -1.0279 -0.0942
   49DOPE   H5X 6282   2.569   5.753  10.419 -0.2232  0.4901 -0.0445
   49DOPE   H5Y 6283   2.495   5.630  10.509  1.1264 -1.2076 -1.5768
   49DOPE   C36 6284   2.488   5.812  10.625  0.0310  0.2410  0.8237
   49DOPE   H6X 6285   2.500   5.922  10.619  0.0945  0.2363  0.8600
   49DOPE   H6Y 6286   2.570   5.771  10.689  0.1196  0.7872  1.0644
   49DOPE   C37 6287   2.356   5.786  10.701  0.0115  0.8757 -0.0198
   49DOPE   H7X 6288   2.277   5.859  10.671 -0.4087  1.5427  2.4164
   49DOPE   H7Y 6289   2.312   5.688  10.674  0.4787  0.2682  1.3373
   49DOPE   C38 6290   2.352   5.795  10.853  0.6126 -0.0043 -0.4396
   49DOPE   H8X 6291   2.248   5.825  10.878 -0.2367  0.0780 -3.7233
   49DOPE   H8Y 6292   2.422   5.877  10.881  0.2840 -0.4253  1.7931
   49DOPE   C39 6293   2.393   5.665  10.929  0.4555 -0.4563  0.8433
   49DOPE   H9X 6294   2.403   5.578  10.862 -0.8574  0.1637 -0.2168
   49DOPE  C310 6295   2.412   5.669  11.064 -0.5677  1.0901  0.3455
   49DOPE  H10X 6296   2.438   5.576  11.118 -0.8059  1.2276  0.7009
   49DOPE  C311 6297   2.423   5.785  11.155  0.2066  0.7360  0.0696
   49DOPE  H11X 6298   2.444   5.880  11.100  1.9529  0.0499 -0.5377
   49DOPE  H11Y 6299   2.320   5.789  11.194 -0.2029 -1.8724 -0.5322
   49DOPE  C312 6300   2.528   5.772  11.264 -0.6696 -0.3780 -0.1187
   49DOPE  H12X 6301   2.621   5.738  11.213  2.4636  1.8774  3.5281
   49DOPE  H12Y 6302   2.490   5.687  11.325 -2.7074  0.5359 -0.0343
   49DOPE  C313 6303   2.546   5.898  11.347 -0.8400  0.4606 -0.7149
   49DOPE  H13X 6304   2.590   5.977  11.282  0.3882  0.4354  0.0656
   49DOPE  H13Y 6305   2.443   5.937  11.367 -1.6025  0.0671 -3.4731
   49DOPE  C314 6306   2.625   5.870  11.478 -0.0087  0.3348  0.3173
   49DOPE  H14X 6307   2.719   5.815  11.459 -0.5306 -0.9467  1.3244
   49DOPE  H14Y 6308   2.564   5.807  11.546 -3.0445  2.0454 -0.6490
   49DOPE  C315 6309   2.664   5.993  11.556  0.1833  0.9146  0.3957
   49DOPE  H15X 6310   2.580   6.065  11.567  0.2359  0.6288  3.1526
   49DOPE  H15Y 6311   2.734   6.053  11.493  1.5133  2.0276  2.8054
   49DOPE  C316 6312   2.732   5.968  11.687 -0.0439 -0.8912 -0.2565
   49DOPE  H16X 6313   2.814   5.894  11.681  1.1001  0.1616  1.3837
   49DOPE  H16Y 6314   2.652   5.924  11.749 -0.2896  2.8667  2.4369
   49DOPE  C317 6315   2.776   6.097  11.754 -0.5953  0.2620  0.8348
   49DOPE  H17X 6316   2.866   6.133  11.701  0.7083 -1.7418  1.5684
   49DOPE  H17Y 6317   2.692   6.169  11.751 -0.4980  0.3766  0.8666
   49DOPE  C318 6318   2.811   6.091  11.897  0.7012 -0.1891 -0.6751
   49DOPE  H18X 6319   2.724   6.041  11.945  1.2720  0.1079  0.7196
   49DOPE  H18Y 6320   2.898   6.027  11.924 -0.6980 -1.3490  1.3811
   49DOPE  H18Z 6321   2.828   6.191  11.944  0.9166 -0.1975 -0.7351
   50DOPE     N 6322   3.094   3.288  10.273 -0.2288  0.3058  0.0960
   50DOPE   HN1 6323   3.162   3.306  10.350  0.4182 -0.2833 -0.3204
   50DOPE   HN2 6324   3.148   3.256  10.190 -0.9821  0.2196 -0.3703
   50DOPE   HN3 6325   3.049   3.379  10.250 -0.8264 -0.4419 -1.9165
   50DOPE   C12 6326   2.995   3.182  10.300 -0.6714 -0.9432  0.0959
   50DOPE  H12A 6327   3.049   3.086  10.316  1.3667  0.3296  1.3744
   50DOPE  H12B 6328   2.935   3.172  10.207  1.4179 -1.1022 -1.3054
   50DOPE   C11 6329   2.904   3.219  10.417 -0.1971  0.4257  0.2388
   50DOPE  H11A 6330   2.959   3.271  10.499 -1.5737  0.6310  1.0560
   50DOPE  H11B 6331   2.858   3.129  10.461  1.3347  0.3470  1.7924
   50DOPE     P 6332   2.689   3.362  10.451 -0.2835 -0.2252  0.0064
   50DOPE   O13 6333   2.588   3.256  10.469 -0.0533 -0.2264 -0.4856
   50DOPE   O14 6334   2.648   3.479  10.375  0.3979  0.5334  0.0241
   50DOPE   O11 6335   2.764   3.403  10.589 -0.3175  0.1260 -0.4526
   50DOPE   O12 6336   2.803   3.303  10.360 -1.1007 -0.3875 -0.2563
   50DOPE    C1 6337   2.711   3.382  10.724  0.1422  0.2196  0.3418
   50DOPE    HA 6338   2.600   3.376  10.716  0.1399  1.4439 -1.0993
   50DOPE    HB 6339   2.744   3.470  10.784  1.9515 -0.2013  0.0199
   50DOPE    C2 6340   2.774   3.258  10.794 -0.1430  0.0358  0.5555
   50DOPE    HS 6341   2.780   3.178  10.716 -2.7636  1.0419 -0.7900
   50DOPE   O21 6342   2.685   3.216  10.905 -0.2227 -0.5631 -0.2625
   50DOPE   C21 6343   2.713   3.088  10.948  0.5031 -0.7245  0.9427
   50DOPE   O22 6344   2.793   3.013  10.895  0.0961 -0.9261  0.1005
   50DOPE   C22 6345   2.619   3.050  11.065  0.4370  1.2559 -0.8237
   50DOPE   H2R 6346   2.522   3.028  11.014 -0.3410  2.8129 -0.0977
   50DOPE   H2S 6347   2.592   3.136  11.130  0.4202 -0.4280  1.5024
   50DOPE    C3 6348   2.919   3.290  10.839  0.0042 -0.9077 -0.3754
   50DOPE    HX 6349   2.979   3.316  10.749  2.2644  1.6322  1.6699
   50DOPE    HY 6350   2.969   3.201  10.883  1.8875  0.7422  1.0514
   50DOPE   O31 6351   2.920   3.401  10.925 -0.3359  0.2191 -0.6185
   50DOPE   C31 6352   2.915   3.382  11.060 -0.7535 -0.0553 -0.0390
   50DOPE   O32 6353   2.909   3.271  11.112 -0.4260 -0.1539  0.2213
   50DOPE   C32 6354   2.933   3.514  11.133 -0.0452 -0.2159 -0.6251
   50DOPE   H2X 6355   2.991   3.579  11.064  0.7631  0.6010  0.7540
   50DOPE   H2Y 6356   2.837   3.563  11.161  0.7143  0.9825  0.0012
   50DOPE   C23 6357   2.669   2.925  11.141  0.6547 -0.4837  0.2600
   50DOPE   H3R 6358   2.723   2.853  11.076 -0.7295 -2.1085  0.8612
   50DOPE   H3S 6359   2.575   2.878  11.175 -1.6880  2.3753 -1.6672
   50DOPE   C24 6360   2.762   2.954  11.255  0.2303 -0.1333 -0.4123
   50DOPE   H4R 6361   2.847   2.999  11.199  0.5002 -1.8165 -1.4191
   50DOPE   H4S 6362   2.806   2.862  11.298  3.0059 -0.1621 -2.9839
   50DOPE   C25 6363   2.709   3.046  11.367  0.1408 -0.8051  0.2982
   50DOPE   H5R 6364   2.713   3.146  11.319 -1.9140 -0.7012  0.2556
   50DOPE   H5S 6365   2.793   3.049  11.441  1.3481 -1.9443 -0.9630
   50DOPE   C26 6366   2.570   3.002  11.427  0.3852 -0.5757  0.3717
   50DOPE   H6R 6367   2.586   2.903  11.475  2.0819  0.3049  1.7429
   50DOPE   H6S 6368   2.494   2.999  11.346  0.9369 -1.6566 -0.1210
   50DOPE   C27 6369   2.511   3.099  11.528  0.1012 -0.0735 -0.4875
   50DOPE   H7R 6370   2.416   3.055  11.565 -0.3959  0.0664 -1.5490
   50DOPE   H7S 6371   2.496   3.195  11.474  0.1974  0.4241  0.3622
   50DOPE   C28 6372   2.600   3.135  11.644 -0.4429 -0.5661 -0.3089
   50DOPE   H8R 6373   2.545   3.219  11.693  0.0972 -0.2887 -0.1644
   50DOPE   H8S 6374   2.703   3.167  11.616 -1.6250  2.7844 -1.3359
   50DOPE   C29 6375   2.606   3.009  11.729 -0.2829 -0.0649  0.4483
   50DOPE   H9R 6376   2.673   2.941  11.675  1.0500  0.9732  0.7337
   50DOPE  C210 6377   2.557   2.979  11.851  0.1012 -0.4338  0.2430
   50DOPE  H10R 6378   2.569   2.873  11.877  0.5301 -1.0076 -2.0428
   50DOPE  C211 6379   2.486   3.078  11.943  0.2436 -0.1907  0.1595
   50DOPE  H11R 6380   2.389   3.038  11.978 -0.4796  0.9736 -0.4600
   50DOPE  H11S 6381   2.467   3.173  11.888  1.9781 -0.7218 -1.4587
   50DOPE  C212 6382   2.573   3.128  12.054  0.9679 -0.2464  0.2317
   50DOPE  H12R 6383   2.610   3.052  12.127 -0.4620 -1.0851  0.1283
   50DOPE  H12S 6384   2.501   3.201  12.096  1.2922 -0.0665  0.4795
   50DOPE  C213 6385   2.697   3.212  12.009  0.2656 -0.4964 -0.0450
   50DOPE  H13R 6386   2.664   3.276  11.925 -1.7193 -1.1050  0.2155
   50DOPE  H13S 6387   2.773   3.141  11.968  0.1174 -0.4490 -0.4094
   50DOPE  C214 6388   2.767   3.296  12.115 -0.3994  0.1692 -0.2158
   50DOPE  H14R 6389   2.758   3.227  12.202  1.3251  0.4504  0.2369
   50DOPE  H14S 6390   2.707   3.383  12.147  0.5498  0.8841 -0.3111
   50DOPE  C215 6391   2.910   3.319  12.094  0.2272 -0.0456  0.6039
   50DOPE  H15R 6392   2.926   3.381  12.004  2.4029 -0.7588  0.4419
   50DOPE  H15S 6393   2.964   3.226  12.067  1.2686  0.7026  0.0728
   50DOPE  C216 6394   2.981   3.375  12.219  0.4889 -0.2148  0.8469
   50DOPE  H16R 6395   2.918   3.455  12.263  1.5331 -0.1661  2.3182
   50DOPE  H16S 6396   3.082   3.407  12.187 -0.0478 -0.5474 -1.3404
   50DOPE  C217 6397   2.991   3.275  12.339  0.7727 -0.4335 -0.5501
   50DOPE  H17R 6398   3.054   3.190  12.305 -2.4900 -2.4255 -2.1620
   50DOPE  H17S 6399   2.891   3.230  12.360  0.2919  0.5316 -0.6715
   50DOPE  C218 6400   3.043   3.352  12.464 -0.2464 -0.1756  0.6456
   50DOPE  H18R 6401   3.035   3.290  12.556  0.1871 -0.8717  0.2274
   50DOPE  H18S 6402   2.988   3.447  12.477 -1.7042 -1.0763  1.3893
   50DOPE  H18T 6403   3.149   3.377  12.445 -1.0220  1.5044 -1.9206
   50DOPE   C33 6404   3.019   3.498  11.261 -0.2551  0.1306 -0.7701
   50DOPE   H3X 6405   3.069   3.595  11.283 -0.2584  0.3846 -1.8246
   50DOPE   H3Y 6406   3.105   3.427  11.258 -0.6190 -0.2925 -1.7122
   50DOPE   C34 6407   2.957   3.468  11.400  0.5649 -0.0652 -0.3536
   50DOPE   H4X 6408   2.915   3.568  11.427 -0.2607  0.2968 -2.7130
   50DOPE   H4Y 6409   2.871   3.397  11.400  2.0191 -1.8960  0.3240
   50DOPE   C35 6410   3.064   3.437  11.506 -0.8626  0.3256  0.3695
   50DOPE   H5X 6411   3.120   3.527  11.540  1.1511 -0.3851 -0.8873
   50DOPE   H5Y 6412   3.136   3.367  11.459 -0.7941  0.8671 -0.3364
   50DOPE   C36 6413   3.009   3.366  11.628  0.5935  0.1747  0.5335
   50DOPE   H6X 6414   3.091   3.353  11.702 -1.7922  0.9017  3.4997
   50DOPE   H6Y 6415   2.976   3.265  11.595 -1.1945  0.7341  0.4986
   50DOPE   C37 6416   2.895   3.440  11.699 -0.2767 -0.1027  0.4127
   50DOPE   H7X 6417   2.806   3.433  11.634 -0.7995 -1.1220  1.1948
   50DOPE   H7Y 6418   2.879   3.367  11.782  1.8092  0.1654  1.1206
   50DOPE   C38 6419   2.928   3.573  11.761  0.0485 -0.7055  0.1230
   50DOPE   H8X 6420   3.006   3.631  11.708  0.0702 -0.4082  0.4829
   50DOPE   H8Y 6421   2.971   3.558  11.862  3.8450  0.3224 -1.1846
   50DOPE   C39 6422   2.808   3.671  11.767 -0.9687 -0.1198 -0.1671
   50DOPE   H9X 6423   2.791   3.713  11.667 -0.2008 -0.0073 -0.2573
   50DOPE  C310 6424   2.726   3.700  11.870  0.3159  0.5747 -0.2870
   50DOPE  H10X 6425   2.655   3.783  11.862  0.6804  0.9470  0.2276
   50DOPE  C311 6426   2.718   3.620  11.996 -1.0256 -0.5972  0.1431
   50DOPE  H11X 6427   2.628   3.557  11.981  0.2687 -2.2055 -1.1705
   50DOPE  H11Y 6428   2.803   3.552  12.016 -1.4460 -0.5587  2.3389
   50DOPE  C312 6429   2.716   3.708  12.118  0.9137  0.2670 -0.6372
   50DOPE  H12X 6430   2.775   3.802  12.112  0.3772  0.5712 -1.3967
   50DOPE  H12Y 6431   2.748   3.650  12.207 -3.1119 -0.3868  0.6353
   50DOPE  C313 6432   2.574   3.743  12.174 -0.0452 -0.1222  0.9131
   50DOPE  H13X 6433   2.508   3.783  12.094 -0.5097 -2.2296  0.1836
   50DOPE  H13Y 6434   2.523   3.649  12.204  0.3047  0.2018  2.6073
   50DOPE  C314 6435   2.579   3.832  12.300 -0.0185  0.2450  0.1702
   50DOPE  H14X 6436   2.629   3.926  12.268  0.9417 -0.2489  0.1936
   50DOPE  H14Y 6437   2.646   3.788  12.376  1.2498  1.5993 -0.1240
   50DOPE  C315 6438   2.440   3.881  12.345 -0.1430 -0.6718  0.0700
   50DOPE  H15X 6439   2.384   3.901  12.251  0.1085 -1.4468 -0.2573
   50DOPE  H15Y 6440   2.439   3.976  12.402 -2.1461 -1.3046  1.1842
   50DOPE  C316 6441   2.352   3.770  12.398 -0.3846 -0.7849  0.2899
   50DOPE  H16X 6442   2.367   3.770  12.508 -1.8097  0.5700  0.5217
   50DOPE  H16Y 6443   2.388   3.670  12.365  0.3376 -1.1726  2.1327
   50DOPE  C317 6444   2.200   3.793  12.382 -0.1887  0.0776  0.0222
   50DOPE  H17X 6445   2.177   3.887  12.436  0.1090  2.0655 -3.0698
   50DOPE  H17Y 6446   2.172   3.817  12.277  0.3332  2.9494  0.4693
   50DOPE  C318 6447   2.116   3.667  12.428  0.3572 -0.1347 -0.0972
   50DOPE  H18X 6448   2.143   3.581  12.363 -1.3791 -1.4505  0.8477
   50DOPE  H18Y 6449   2.130   3.640  12.535  1.4861  3.2464  0.7388
   50DOPE  H18Z 6450   2.010   3.695  12.410 -0.5214 -2.5450  0.9742
   51DOPE     N 6451   4.283   5.699   9.217 -0.3447  0.5202  0.2391
   51DOPE   HN1 6452   4.375   5.663   9.251 -1.7705 -2.8082  0.9685
   51DOPE   HN2 6453   4.269   5.653   9.125 -1.2874  2.4861 -0.6462
   51DOPE   HN3 6454   4.277   5.802   9.212 -0.1189  0.5016 -0.5816
   51DOPE   C12 6455   4.189   5.634   9.321 -0.0953 -0.0655 -0.1345
   51DOPE  H12A 6456   4.085   5.660   9.289  0.0366  0.2083 -0.3460
   51DOPE  H12B 6457   4.211   5.675   9.422  1.5522 -1.2574  0.0152
   51DOPE   C11 6458   4.206   5.481   9.327  0.1648 -0.5890  0.7825
   51DOPE  H11A 6459   4.181   5.443   9.226 -1.3123 -2.3463  1.7485
   51DOPE  H11B 6460   4.127   5.430   9.386  1.1336 -0.5856  2.1573
   51DOPE     P 6461   4.382   5.424   9.512 -0.0404  0.8367 -0.1834
   51DOPE   O13 6462   4.531   5.414   9.521 -0.7469  0.2703  0.1160
   51DOPE   O14 6463   4.308   5.309   9.579  0.7150  0.4554 -0.5720
   51DOPE   O11 6464   4.327   5.559   9.585 -0.1967 -0.0726 -0.7499
   51DOPE   O12 6465   4.333   5.435   9.362 -0.0435 -0.2322 -0.4375
   51DOPE    C1 6466   4.412   5.671   9.597  0.3563 -0.6872  0.3433
   51DOPE    HA 6467   4.394   5.739   9.511  0.0824 -1.2479 -0.0558
   51DOPE    HB 6468   4.521   5.652   9.601  0.7159  0.5122 -1.8234
   51DOPE    C2 6469   4.376   5.761   9.713  0.2402 -0.4544 -1.2616
   51DOPE    HS 6470   4.468   5.820   9.736  0.1876 -1.4617  2.0076
   51DOPE   O21 6471   4.349   5.678   9.830 -0.2267 -0.3832  0.1709
   51DOPE   C21 6472   4.444   5.614   9.884  0.8354 -0.5558  0.6678
   51DOPE   O22 6473   4.563   5.613   9.852  0.9022  0.7160  0.2536
   51DOPE   C22 6474   4.392   5.546  10.010  0.4774  0.4526 -0.2548
   51DOPE   H2R 6475   4.465   5.462  10.019  2.2232  1.8279 -0.8998
   51DOPE   H2S 6476   4.286   5.516   9.998  0.1066  1.9382 -0.7884
   51DOPE    C3 6477   4.245   5.850   9.691  0.3830 -0.3917  0.7349
   51DOPE    HX 6478   4.169   5.776   9.659  1.3045 -0.8828 -0.3673
   51DOPE    HY 6479   4.263   5.913   9.601  0.1232 -1.2512  0.0640
   51DOPE   O31 6480   4.196   5.929   9.807 -0.2591 -0.1129 -0.1983
   51DOPE   C31 6481   4.272   6.016   9.855 -0.2749 -0.3603  0.2874
   51DOPE   O32 6482   4.384   6.052   9.825 -0.2353  0.3818 -0.5697
   51DOPE   C32 6483   4.195   6.086   9.964 -0.1476 -0.0573 -0.1549
   51DOPE   H2X 6484   4.119   6.147   9.911 -0.2489 -1.2197 -1.3894
   51DOPE   H2Y 6485   4.142   6.008  10.023 -2.3177  0.2185 -1.6417
   51DOPE   C23 6486   4.408   5.639  10.135  0.1653 -0.1387 -0.2713
   51DOPE   H3R 6487   4.337   5.724  10.128  0.5967  0.2591  0.0958
   51DOPE   H3S 6488   4.508   5.685  10.149 -1.2229  3.3849 -0.8596
   51DOPE   C24 6489   4.392   5.566  10.273 -0.1565  0.4631 -0.1024
   51DOPE   H4R 6490   4.318   5.483  10.265  0.8131 -0.4204 -0.2035
   51DOPE   H4S 6491   4.360   5.641  10.349 -0.5050 -0.2416  0.4656
   51DOPE   C25 6492   4.527   5.508  10.311  0.6506 -0.2962  0.0950
   51DOPE   H5R 6493   4.609   5.583  10.316  1.3451 -1.1382  2.0224
   51DOPE   H5S 6494   4.553   5.436  10.231 -0.4889 -0.8892  0.2304
   51DOPE   C26 6495   4.528   5.430  10.446  1.2679  0.3855  0.5946
   51DOPE   H6R 6496   4.429   5.379  10.452  1.1461  0.3446 -1.3431
   51DOPE   H6S 6497   4.507   5.504  10.526 -0.3619 -0.0355  0.5954
   51DOPE   C27 6498   4.646   5.333  10.465  0.3195  0.4541 -0.9177
   51DOPE   H7R 6499   4.733   5.402  10.473  1.5716 -1.0647 -1.1331
   51DOPE   H7S 6500   4.672   5.259  10.387  3.8005  0.5415  0.0031
   51DOPE   C28 6501   4.622   5.272  10.607 -0.6741 -0.2438  0.0097
   51DOPE   H8R 6502   4.537   5.203  10.588 -1.0978  0.7036 -1.7212
   51DOPE   H8S 6503   4.595   5.339  10.690 -2.5528 -0.3475 -0.4767
   51DOPE   C29 6504   4.739   5.188  10.656 -0.3454 -0.0922 -0.3556
   51DOPE   H9R 6505   4.787   5.124  10.581 -0.1453  0.5372 -0.7765
   51DOPE  C210 6506   4.812   5.199  10.765 -0.5202  0.6821  0.6819
   51DOPE  H10R 6507   4.899   5.133  10.782  1.5877  2.3388 -2.5910
   51DOPE  C211 6508   4.790   5.291  10.888 -0.2029  0.2598  0.5956
   51DOPE  H11R 6509   4.714   5.366  10.856  0.5097 -0.2564 -2.7567
   51DOPE  H11S 6510   4.886   5.340  10.915  1.0073 -1.2776 -0.6795
   51DOPE  C212 6511   4.726   5.214  11.004 -0.6124 -0.2565 -0.2753
   51DOPE  H12R 6512   4.775   5.115  11.016  1.3516  0.8885  2.2032
   51DOPE  H12S 6513   4.621   5.184  10.987 -0.6380 -1.5385  1.8109
   51DOPE  C213 6514   4.731   5.291  11.131  0.0203 -0.4534 -0.8575
   51DOPE  H13R 6515   4.682   5.390  11.121  0.2617 -0.2533 -0.1561
   51DOPE  H13S 6516   4.840   5.304  11.151 -0.1420  1.0418 -0.8871
   51DOPE  C214 6517   4.669   5.223  11.258  0.1543 -0.2675 -0.3603
   51DOPE  H14R 6518   4.725   5.130  11.281 -1.6825 -1.7877 -1.6707
   51DOPE  H14S 6519   4.563   5.194  11.237 -0.0539  1.3434 -1.7462
   51DOPE  C215 6520   4.685   5.307  11.382 -0.2105 -0.3377 -0.0111
   51DOPE  H15R 6521   4.622   5.257  11.458 -1.2857 -0.6381 -1.0730
   51DOPE  H15S 6522   4.658   5.414  11.366  1.9248  0.4308  1.1895
   51DOPE  C216 6523   4.829   5.304  11.442 -0.5051 -0.3043  0.1902
   51DOPE  H16R 6524   4.905   5.363  11.385 -0.6671  1.1517  1.4177
   51DOPE  H16S 6525   4.869   5.200  11.449 -0.5686 -0.3544 -0.1856
   51DOPE  C217 6526   4.829   5.364  11.584  0.1301 -0.2081 -0.4078
   51DOPE  H17R 6527   4.771   5.306  11.659  2.0425  0.3457  1.5778
   51DOPE  H17S 6528   4.771   5.458  11.594 -0.2498 -0.5839  1.3476
   51DOPE  C218 6529   4.968   5.376  11.638 -0.7123 -0.0638 -0.0746
   51DOPE  H18R 6530   5.025   5.281  11.653 -1.5795 -0.2919  2.0433
   51DOPE  H18S 6531   4.961   5.426  11.736 -1.4422 -1.8435  0.8297
   51DOPE  H18T 6532   5.022   5.452  11.577 -0.0235 -0.7298 -0.3148
   51DOPE   C33 6533   4.281   6.169  10.057  0.1807 -0.3112 -0.2240
   51DOPE   H3X 6534   4.303   6.270  10.014 -0.3403 -0.6580 -1.3384
   51DOPE   H3Y 6535   4.383   6.125  10.067  0.0318 -0.9012 -1.2088
   51DOPE   C34 6536   4.212   6.177  10.193 -0.7391  0.6544  0.0851
   51DOPE   H4X 6537   4.141   6.258  10.220  0.2742  1.7949 -0.5807
   51DOPE   H4Y 6538   4.163   6.081  10.218 -0.6961  0.0872 -1.8418
   51DOPE   C35 6539   4.320   6.188  10.301 -0.0901 -0.2477 -0.5413
   51DOPE   H5X 6540   4.370   6.287  10.287  1.1123 -0.7012  0.3961
   51DOPE   H5Y 6541   4.391   6.103  10.292  0.0895 -0.3925  1.7709
   51DOPE   C36 6542   4.261   6.189  10.441 -0.6040  0.2120  0.1387
   51DOPE   H6X 6543   4.213   6.090  10.455  3.0077 -1.6140  0.8787
   51DOPE   H6Y 6544   4.196   6.279  10.450  1.8387  2.2585 -1.4864
   51DOPE   C37 6545   4.365   6.203  10.551 -0.5044  0.5585 -0.2991
   51DOPE   H7X 6546   4.446   6.128  10.534  0.3123  1.3521 -0.0008
   51DOPE   H7Y 6547   4.398   6.308  10.562 -1.6427  0.8498  0.4993
   51DOPE   C38 6548   4.310   6.160  10.690  0.2671 -0.0163 -0.3537
   51DOPE   H8X 6549   4.398   6.150  10.757  1.6023 -0.8236 -2.1449
   51DOPE   H8Y 6550   4.272   6.055  10.695  1.4779 -0.4069  1.7156
   51DOPE   C39 6551   4.210   6.260  10.746  0.2971 -0.8010 -0.0513
   51DOPE   H9X 6552   4.138   6.298  10.672 -1.3528 -1.3201  1.2154
   51DOPE  C310 6553   4.213   6.320  10.868 -0.3062  0.1783  0.5386
   51DOPE  H10X 6554   4.131   6.392  10.882 -1.9782 -1.5631 -0.0503
   51DOPE  C311 6555   4.296   6.277  10.984  0.4528 -0.2448  0.2882
   51DOPE  H11X 6556   4.333   6.173  10.976  2.1246  0.3309  0.1670
   51DOPE  H11Y 6557   4.389   6.334  11.009  0.6589 -1.4825  2.7300
   51DOPE  C312 6558   4.218   6.282  11.119  0.3241  0.8668  0.0845
   51DOPE  H12X 6559   4.132   6.212  11.122  0.2155  0.9685 -0.5871
   51DOPE  H12Y 6560   4.166   6.378  11.138  0.4700  0.8989  0.3308
   51DOPE  C313 6561   4.304   6.253  11.244  0.1181  0.1382  0.5889
   51DOPE  H13X 6562   4.315   6.143  11.246 -2.9707 -0.2743  0.8501
   51DOPE  H13Y 6563   4.405   6.298  11.245  1.4060 -2.5112 -0.5913
   51DOPE  C314 6564   4.235   6.283  11.376  0.3417  0.6175  0.7264
   51DOPE  H14X 6565   4.138   6.232  11.393  1.3207 -1.3883  0.5246
   51DOPE  H14Y 6566   4.213   6.392  11.374 -0.0081  0.6274  2.6723
   51DOPE  C315 6567   4.326   6.259  11.499 -0.2932  0.4636  0.1467
   51DOPE  H15X 6568   4.423   6.311  11.484  0.3661  0.1964  2.8534
   51DOPE  H15Y 6569   4.351   6.151  11.508  0.8957  0.5220 -1.9596
   51DOPE  C316 6570   4.254   6.309  11.622 -0.2532  0.1366  0.3582
   51DOPE  H16X 6571   4.156   6.258  11.617  0.5252 -1.3025 -1.1316
   51DOPE  H16Y 6572   4.237   6.418  11.611  2.8393  0.6860  0.2431
   51DOPE  C317 6573   4.332   6.293  11.749 -0.7003  0.7216  1.3090
   51DOPE  H17X 6574   4.361   6.187  11.767  1.6214  1.2239  0.7979
   51DOPE  H17Y 6575   4.431   6.342  11.744  0.0695 -0.9095 -2.4392
   51DOPE  C318 6576   4.264   6.336  11.876  0.0891  0.5762  0.2412
   51DOPE  H18X 6577   4.233   6.441  11.859  1.5852  0.9457 -0.3559
   51DOPE  H18Y 6578   4.173   6.277  11.900 -0.2060  0.4805 -1.0892
   51DOPE  H18Z 6579   4.331   6.343  11.965 -0.9696 -0.8417  1.2051
   52DOPE     N 6580   2.612   3.062  10.215  0.2006  0.0541  0.0103
   52DOPE   HN1 6581   2.672   3.077  10.299 -0.3918 -5.4889  1.7869
   52DOPE   HN2 6582   2.636   2.969  10.177 -1.4783 -0.5000  0.2090
   52DOPE   HN3 6583   2.628   3.124  10.133 -0.1917 -0.6354 -0.6027
   52DOPE   C12 6584   2.456   3.063  10.235  0.0102 -0.3326  0.6472
   52DOPE  H12A 6585   2.426   3.011  10.328 -2.2652 -0.0454  0.1356
   52DOPE  H12B 6586   2.419   3.013  10.143  0.6958  2.6307 -1.4159
   52DOPE   C11 6587   2.395   3.202  10.243  0.5408 -1.0583 -0.2844
   52DOPE  H11A 6588   2.463   3.262  10.179 -0.2713 -0.0361 -0.2158
   52DOPE  H11B 6589   2.404   3.258  10.339 -1.7025 -0.5767 -0.2875
   52DOPE     P 6590   2.197   3.357  10.177  0.3076  0.0551  0.1446
   52DOPE   O13 6591   2.087   3.348  10.081  0.0698  0.5147 -0.3659
   52DOPE   O14 6592   2.303   3.448  10.137 -0.6311 -0.2390  0.7756
   52DOPE   O11 6593   2.148   3.399  10.321  0.1149 -0.2739 -0.3516
   52DOPE   O12 6594   2.259   3.214  10.193 -0.5838 -0.0708 -0.2092
   52DOPE    C1 6595   2.109   3.306  10.425  0.4286 -0.4130 -0.4324
   52DOPE    HA 6596   2.184   3.224  10.418  0.8431 -0.1200  0.4631
   52DOPE    HB 6597   2.009   3.267  10.398  0.2983  0.1679 -0.8096
   52DOPE    C2 6598   2.101   3.376  10.567  0.3764  0.1659 -0.5895
   52DOPE    HS 6599   2.078   3.303  10.648 -1.5250  1.4563  0.1132
   52DOPE   O21 6600   2.009   3.481  10.566  0.5358 -0.7742 -0.0498
   52DOPE   C21 6601   1.885   3.432  10.571  0.2628  0.6469 -0.2495
   52DOPE   O22 6602   1.860   3.310  10.575 -0.4706  0.1981 -0.5166
   52DOPE   C22 6603   1.790   3.544  10.575 -0.0072  1.0418  0.3619
   52DOPE   H2R 6604   1.692   3.498  10.550  1.7354 -3.7290  1.1847
   52DOPE   H2S 6605   1.817   3.623  10.502  0.2682  2.0409  1.4997
   52DOPE    C3 6606   2.240   3.427  10.607 -0.1668  0.5853 -0.1598
   52DOPE    HX 6607   2.260   3.529  10.568  0.4956  0.2095 -0.8154
   52DOPE    HY 6608   2.323   3.369  10.561 -1.9036 -1.7414 -0.5387
   52DOPE   O31 6609   2.260   3.427  10.747  0.1531  0.3232 -0.1382
   52DOPE   C31 6610   2.272   3.311  10.808  0.0058 -0.4472 -0.2928
   52DOPE   O32 6611   2.288   3.200  10.759 -0.1000 -0.3342  0.0663
   52DOPE   C32 6612   2.273   3.341  10.960 -0.0596  0.1720  0.4580
   52DOPE   H2X 6613   2.370   3.394  10.970  0.6671 -0.7378 -1.3183
   52DOPE   H2Y 6614   2.183   3.405  10.977  0.7159  1.5696 -0.5174
   52DOPE   C23 6615   1.787   3.602  10.722  0.1675  0.0775  0.2888
   52DOPE   H3R 6616   1.777   3.519  10.795  2.1127 -1.1166 -0.7084
   52DOPE   H3S 6617   1.707   3.679  10.729  1.0960  0.9793  1.3037
   52DOPE   C24 6618   1.913   3.690  10.745 -0.8701 -0.2194  0.2057
   52DOPE   H4R 6619   1.930   3.739  10.647  0.8181  0.3926  0.7693
   52DOPE   H4S 6620   2.014   3.644  10.756 -0.3284  1.3274  2.3155
   52DOPE   C25 6621   1.903   3.800  10.846 -0.2861  0.9496 -0.6060
   52DOPE   H5R 6622   1.821   3.872  10.824  0.9719  2.9587  0.9506
   52DOPE   H5S 6623   1.997   3.859  10.839  0.9727 -0.7352  1.2734
   52DOPE   C26 6624   1.871   3.752  10.983  0.3333  0.2907 -0.3479
   52DOPE   H6R 6625   1.771   3.710  11.005  0.7348  0.7579  2.8370
   52DOPE   H6S 6626   1.884   3.835  11.056  0.5238 -0.8934  0.9967
   52DOPE   C27 6627   1.956   3.637  11.034 -0.6116  0.2204 -0.0560
   52DOPE   H7R 6628   1.934   3.549  10.969  0.1103  0.3845 -0.5327
   52DOPE   H7S 6629   1.928   3.610  11.138 -2.3526 -0.7657 -0.7163
   52DOPE   C28 6630   2.106   3.668  11.044 -0.4231 -0.4163 -0.6051
   52DOPE   H8R 6631   2.142   3.679  10.940  0.9984  0.1798 -0.0810
   52DOPE   H8S 6632   2.159   3.586  11.098  0.1409  0.5369  0.3338
   52DOPE   C29 6633   2.138   3.798  11.110  0.2267  0.0505 -0.5933
   52DOPE   H9R 6634   2.132   3.884  11.042 -0.9084  2.6693  2.6021
   52DOPE  C210 6635   2.168   3.830  11.236 -0.0830 -0.5444  0.3981
   52DOPE  H10R 6636   2.181   3.936  11.260  0.4863 -0.1376 -1.5187
   52DOPE  C211 6637   2.170   3.739  11.351 -0.2704  0.3654 -0.4307
   52DOPE  H11R 6638   2.265   3.744  11.410  0.0140 -0.6178 -0.7778
   52DOPE  H11S 6639   2.164   3.633  11.319  0.7229  0.6777 -1.7034
   52DOPE  C212 6640   2.063   3.755  11.460 -0.3048  0.0107 -0.4913
   52DOPE  H12R 6641   2.064   3.857  11.502 -0.3351  0.9310 -2.6334
   52DOPE  H12S 6642   2.084   3.674  11.535 -0.2825  0.7655  0.3345
   52DOPE  C213 6643   1.923   3.715  11.415 -0.4795 -0.0193 -0.2102
   52DOPE  H13R 6644   1.929   3.612  11.374  2.2967 -0.4453  1.0531
   52DOPE  H13S 6645   1.891   3.772  11.325 -1.0995  1.7734  1.0730
   52DOPE  C214 6646   1.810   3.750  11.524 -0.3450  0.8142  0.5028
   52DOPE  H14R 6647   1.720   3.708  11.475  0.5235 -2.5933  1.5452
   52DOPE  H14S 6648   1.795   3.858  11.546  3.1699  1.4019  0.4593
   52DOPE  C215 6649   1.834   3.678  11.656 -0.1382 -0.1291  0.6410
   52DOPE  H15R 6650   1.928   3.701  11.712  0.7351 -0.6161 -0.5616
   52DOPE  H15S 6651   1.838   3.568  11.645 -2.2774 -0.1645 -0.1914
   52DOPE  C216 6652   1.710   3.688  11.742  0.0045  0.0141 -0.4961
   52DOPE  H16R 6653   1.629   3.619  11.712 -1.8658  1.7052  0.4362
   52DOPE  H16S 6654   1.668   3.789  11.722 -1.6175 -0.9698 -2.3728
   52DOPE  C217 6655   1.737   3.668  11.889 -0.2156 -0.1602 -0.2503
   52DOPE  H17R 6656   1.833   3.711  11.923 -0.4934 -0.3008  0.7772
   52DOPE  H17S 6657   1.755   3.559  11.901 -0.7855 -0.1000  1.5253
   52DOPE  C218 6658   1.616   3.714  11.972  0.1077 -0.3931 -0.0296
   52DOPE  H18R 6659   1.584   3.814  11.935  0.9707  0.5063  1.5404
   52DOPE  H18S 6660   1.533   3.644  11.950 -1.1509  0.8899  0.4590
   52DOPE  H18T 6661   1.648   3.726  12.078  1.2704  0.1717 -0.4197
   52DOPE   C33 6662   2.280   3.214  11.046  0.1899  0.0083  0.1116
   52DOPE   H3X 6663   2.369   3.158  11.009  2.3433  2.3629  1.3810
   52DOPE   H3Y 6664   2.191   3.151  11.029  0.3878  0.1492 -1.6904
   52DOPE   C34 6665   2.297   3.228  11.196  0.5725  0.8906 -0.3516
   52DOPE   H4X 6666   2.312   3.126  11.237 -1.1859  1.2516  1.3553
   52DOPE   H4Y 6667   2.393   3.281  11.214 -0.7926  2.6710  2.6239
   52DOPE   C35 6668   2.174   3.295  11.261  0.2150 -0.5853 -0.2854
   52DOPE   H5X 6669   2.152   3.374  11.186  3.5903 -1.4362 -2.3983
   52DOPE   H5Y 6670   2.198   3.346  11.357 -2.2766  0.6568 -0.2435
   52DOPE   C36 6671   2.054   3.202  11.288  0.6528 -0.6280 -0.0207
   52DOPE   H6X 6672   2.085   3.115  11.349 -2.0749  0.0325  2.4986
   52DOPE   H6Y 6673   2.018   3.170  11.187  0.0362  2.2517 -0.7970
   52DOPE   C37 6674   1.927   3.268  11.348  0.0895  0.3372 -0.5064
   52DOPE   H7X 6675   1.862   3.186  11.385 -0.6008  0.3295 -1.6788
   52DOPE   H7Y 6676   1.967   3.323  11.435  0.0357 -1.1478  0.4795
   52DOPE   C38 6677   1.840   3.359  11.260  0.0674 -0.6804  0.7419
   52DOPE   H8X 6678   1.815   3.288  11.179  0.2851  0.3136 -0.2197
   52DOPE   H8Y 6679   1.903   3.446  11.231  2.1704 -1.9553  1.2484
   52DOPE   C39 6680   1.721   3.416  11.333  0.2207  0.8924 -0.1371
   52DOPE   H9X 6681   1.722   3.419  11.443 -0.8075  3.5647 -0.1172
   52DOPE  C310 6682   1.606   3.434  11.274 -0.4006  0.2857  0.5089
   52DOPE  H10X 6683   1.518   3.467  11.330  0.2825  0.2082  1.6552
   52DOPE  C311 6684   1.582   3.413  11.126 -0.6840  0.3573  0.5489
   52DOPE  H11X 6685   1.674   3.414  11.064 -0.8336 -1.8727  0.1925
   52DOPE  H11Y 6686   1.538   3.314  11.099  1.7181 -0.6101 -0.1010
   52DOPE  C312 6687   1.506   3.535  11.058  0.5167  0.2305  0.2506
   52DOPE  H12X 6688   1.530   3.545  10.950  0.2336 -1.3662  0.0162
   52DOPE  H12Y 6689   1.533   3.633  11.104  0.7400 -0.6212  2.0086
   52DOPE  C313 6690   1.355   3.520  11.073 -0.5192 -0.6938 -0.3479
   52DOPE  H13X 6691   1.341   3.412  11.049  1.5664 -0.8412 -1.1183
   52DOPE  H13Y 6692   1.335   3.541  11.180  2.2346 -1.5163  0.4189
   52DOPE  C314 6693   1.272   3.606  10.969  0.7120 -0.0024  0.4691
   52DOPE  H14X 6694   1.324   3.601  10.871 -0.9397 -1.0561 -0.3989
   52DOPE  H14Y 6695   1.274   3.713  10.998  0.1048 -0.7488  3.6444
   52DOPE  C315 6696   1.132   3.551  10.948 -0.3853 -0.2589 -0.3173
   52DOPE  H15X 6697   1.060   3.614  11.004  0.3655  1.0023 -0.7183
   52DOPE  H15Y 6698   1.136   3.456  11.005  1.4166  0.4444  0.8132
   52DOPE  C316 6699   1.080   3.530  10.799 -0.0968 -0.3385 -0.3817
   52DOPE  H16X 6700   1.157   3.472  10.743  1.1831  0.3994  0.5528
   52DOPE  H16Y 6701   1.075   3.627  10.745  0.4869 -1.0958 -1.8462
   52DOPE  C317 6702   0.945   3.458  10.800 -0.1453  0.3555 -0.2866
   52DOPE  H17X 6703   0.965   3.350  10.820  0.3015  0.4442 -0.2363
   52DOPE  H17Y 6704   0.875   3.493  10.879 -1.4253 -0.7391 -0.8938
   52DOPE  C318 6705   0.863   3.467  10.666 -0.1495  0.0777  0.1750
   52DOPE  H18X 6706   0.923   3.421  10.585 -2.4131 -1.9410 -0.4891
   52DOPE  H18Y 6707   0.770   3.406  10.669 -0.4627  0.5706  0.8614
   52DOPE  H18Z 6708   0.841   3.573  10.644 -1.7190 -0.2342  0.1125
   53DOPE     N 6709   5.946   0.094   9.616 -1.2527 -0.5096 -0.1847
   53DOPE   HN1 6710   6.005   0.059   9.538  0.3484 -1.6990  1.4635
   53DOPE   HN2 6711   5.865   0.151   9.586 -0.1179 -0.1241 -2.8058
   53DOPE   HN3 6712   6.007   0.158   9.670 -1.4393 -0.2520 -0.2793
   53DOPE   C12 6713   5.909  -0.029   9.687 -0.0473 -0.4439 -0.1129
   53DOPE  H12A 6714   5.811  -0.017   9.737 -0.8066 -0.4340 -1.5318
   53DOPE  H12B 6715   5.986  -0.060   9.761  2.3340  0.9601 -1.8531
   53DOPE   C11 6716   5.904  -0.147   9.579  0.7035  0.7948 -0.3441
   53DOPE  H11A 6717   5.859  -0.231   9.637 -0.5619  0.4524 -1.7641
   53DOPE  H11B 6718   6.006  -0.184   9.552  0.0486 -2.6368  1.2832
   53DOPE     P 6719   5.788  -0.220   9.357 -0.0493 -0.3281 -0.6422
   53DOPE   O13 6720   5.888  -0.331   9.350 -0.7386 -0.4456  0.2465
   53DOPE   O14 6721   5.771  -0.147   9.232 -0.2900  0.3766  0.6404
   53DOPE   O11 6722   5.651  -0.276   9.395  0.3318  0.1921  0.5109
   53DOPE   O12 6723   5.830  -0.109   9.462 -0.2635  0.3897 -0.5375
   53DOPE    C1 6724   5.552  -0.191   9.450  0.4902 -0.1695  0.5638
   53DOPE    HA 6725   5.455  -0.217   9.404  0.5225  0.7028 -0.0324
   53DOPE    HB 6726   5.564  -0.081   9.437 -0.6424 -0.0520  0.4032
   53DOPE    C2 6727   5.541  -0.191   9.606 -0.2699  0.8318 -0.0248
   53DOPE    HS 6728   5.640  -0.150   9.635  1.1722 -0.8469 -2.1883
   53DOPE   O21 6729   5.529  -0.327   9.656  1.0546 -0.0443  0.2399
   53DOPE   C21 6730   5.593  -0.364   9.767 -0.1615 -0.2876  0.9078
   53DOPE   O22 6731   5.669  -0.296   9.828  0.7278 -0.4372 -0.1720
   53DOPE   C22 6732   5.562  -0.513   9.785  0.0246  0.6992  0.1808
   53DOPE   H2R 6733   5.621  -0.564   9.706  0.4502  2.3449 -0.6006
   53DOPE   H2S 6734   5.451  -0.523   9.783 -0.3728  4.0790  0.4488
   53DOPE    C3 6735   5.426  -0.109   9.660  0.3596  0.2564  0.3394
   53DOPE    HX 6736   5.328  -0.133   9.614  0.9499 -0.2096 -0.7091
   53DOPE    HY 6737   5.442  -0.003   9.630  0.3898  0.5386  1.3113
   53DOPE   O31 6738   5.411  -0.113   9.805 -0.1966  0.5065 -0.7755
   53DOPE   C31 6739   5.518  -0.045   9.863  0.0645  0.5875 -0.0015
   53DOPE   O32 6740   5.591   0.034   9.809 -0.6384 -0.1574  0.0850
   53DOPE   C32 6741   5.493  -0.063  10.017  0.1349 -0.4025 -0.5880
   53DOPE   H2X 6742   5.389  -0.033  10.042  0.2746  0.1822 -0.6964
   53DOPE   H2Y 6743   5.506  -0.172  10.039  1.0807 -0.3648 -0.9235
   53DOPE   C23 6744   5.596  -0.559   9.927 -0.3730  1.0164 -0.2407
   53DOPE   H3R 6745   5.706  -0.553   9.941 -0.4097 -0.4808  0.9407
   53DOPE   H3S 6746   5.575  -0.667   9.940  1.5292  0.2808 -2.5180
   53DOPE   C24 6747   5.523  -0.483  10.033  0.2494 -0.2527  0.3416
   53DOPE   H4R 6748   5.418  -0.468   9.998  0.5211  1.1628  0.0830
   53DOPE   H4S 6749   5.571  -0.386  10.057 -0.1453 -0.7624  3.6955
   53DOPE   C25 6750   5.527  -0.540  10.177  0.1579 -0.5791  0.1582
   53DOPE   H5R 6751   5.631  -0.558  10.211  0.4389  0.4208 -0.1329
   53DOPE   H5S 6752   5.476  -0.638  10.164 -1.9058  0.5161 -0.4542
   53DOPE   C26 6753   5.429  -0.471  10.277 -0.4383 -0.3069 -0.2086
   53DOPE   H6R 6754   5.327  -0.485  10.235 -0.1741 -1.2711 -0.5522
   53DOPE   H6S 6755   5.447  -0.362  10.284  1.8146 -0.6427 -0.2404
   53DOPE   C27 6756   5.440  -0.518  10.425  0.2748  0.4375 -0.3902
   53DOPE   H7R 6757   5.450  -0.628  10.434 -0.0755  0.5734  3.7740
   53DOPE   H7S 6758   5.345  -0.500  10.479 -1.2164 -2.1043 -2.0026
   53DOPE   C28 6759   5.560  -0.460  10.501  0.0738  0.3545 -0.4598
   53DOPE   H8R 6760   5.649  -0.451  10.435 -1.1770  1.6369 -2.0626
   53DOPE   H8S 6761   5.586  -0.537  10.576  2.5614  1.9506  0.4673
   53DOPE   C29 6762   5.525  -0.319  10.560  0.3327  0.0846 -0.2291
   53DOPE   H9R 6763   5.461  -0.263  10.490  0.7695  0.3688 -0.4032
   53DOPE  C210 6764   5.561  -0.274  10.681  0.5584 -0.2987  0.0303
   53DOPE  H10R 6765   5.525  -0.175  10.713  1.2271 -0.4584  1.3449
   53DOPE  C211 6766   5.626  -0.359  10.782  0.2889  0.5765  0.4809
   53DOPE  H11R 6767   5.726  -0.318  10.807  0.2793  1.8990 -1.3790
   53DOPE  H11S 6768   5.645  -0.462  10.746 -0.0575  1.2317 -1.7760
   53DOPE  C212 6769   5.539  -0.358  10.907  0.2767  1.0739 -0.2118
   53DOPE  H12R 6770   5.442  -0.409  10.890  0.1112  1.5682 -0.8104
   53DOPE  H12S 6771   5.505  -0.256  10.933 -0.8345  0.6255  0.1262
   53DOPE  C213 6772   5.630  -0.419  11.022  0.1115  0.2511 -0.0242
   53DOPE  H13R 6773   5.730  -0.377  11.000  0.9896 -1.8175 -0.2298
   53DOPE  H13S 6774   5.637  -0.529  11.006  1.0432  0.0094  1.7596
   53DOPE  C214 6775   5.584  -0.388  11.164  0.7992  1.0189  0.9862
   53DOPE  H14R 6776   5.505  -0.459  11.197  1.5702  1.4433  4.1257
   53DOPE  H14S 6777   5.546  -0.283  11.172  0.4256  0.8913  0.9239
   53DOPE  C215 6778   5.702  -0.406  11.255 -0.5186  0.1493  0.1099
   53DOPE  H15R 6779   5.785  -0.352  11.203 -0.7485 -0.7239 -1.2203
   53DOPE  H15S 6780   5.729  -0.511  11.277  0.6839  0.3419 -0.3372
   53DOPE  C216 6781   5.682  -0.351  11.396  0.2213  0.3644 -0.2605
   53DOPE  H16R 6782   5.594  -0.404  11.438  0.2146  1.9504  1.9155
   53DOPE  H16S 6783   5.660  -0.242  11.407 -2.7871 -0.2047  0.2793
   53DOPE  C217 6784   5.816  -0.382  11.475  0.2573  0.1092  0.0364
   53DOPE  H17R 6785   5.892  -0.317  11.426  1.2745 -0.0364  1.3708
   53DOPE  H17S 6786   5.853  -0.485  11.459  2.1931  0.7556  0.1356
   53DOPE  C218 6787   5.810  -0.351  11.628 -0.0775 -0.0612 -0.6279
   53DOPE  H18R 6788   5.789  -0.244  11.650  0.6742 -0.1887  0.8313
   53DOPE  H18S 6789   5.907  -0.378  11.675  0.6263 -1.0687 -2.5914
   53DOPE  H18T 6790   5.733  -0.404  11.688  2.1024 -0.5825  1.9127
   53DOPE   C33 6791   5.587   0.022  10.117  0.4174  0.2190  0.2174
   53DOPE   H3X 6792   5.548   0.125  10.106  0.2133  0.1344  0.1392
   53DOPE   H3Y 6793   5.695   0.025  10.089  0.0678  0.0486 -1.2214
   53DOPE   C34 6794   5.567  -0.024  10.263 -0.0093  0.2247 -0.5224
   53DOPE   H4X 6795   5.470  -0.002  10.311  0.8646  2.4407  0.3359
   53DOPE   H4Y 6796   5.601  -0.130  10.264  0.1670  0.2615 -1.6774
   53DOPE   C35 6797   5.657   0.063  10.346  0.2135  0.4026  0.1952
   53DOPE   H5X 6798   5.630   0.171  10.340  3.1658  1.2378  0.6674
   53DOPE   H5Y 6799   5.762   0.060  10.311  0.0903 -0.5902 -0.1220
   53DOPE   C36 6800   5.648   0.009  10.493 -0.2268  0.1155 -0.6508
   53DOPE   H6X 6801   5.662  -0.101  10.478 -2.4437 -0.3248  0.1174
   53DOPE   H6Y 6802   5.546   0.022  10.535  1.0253  0.4540  2.5848
   53DOPE   C37 6803   5.761   0.079  10.575  0.1585  0.2842 -0.3111
   53DOPE   H7X 6804   5.861   0.056  10.532  0.4203 -0.3828  0.6121
   53DOPE   H7Y 6805   5.742   0.187  10.560  0.3143  0.2760 -0.5717
   53DOPE   C38 6806   5.750   0.048  10.728 -0.4807 -0.2771  0.9606
   53DOPE   H8X 6807   5.849   0.075  10.769 -0.2206 -0.7912  0.6850
   53DOPE   H8Y 6808   5.741  -0.063  10.726 -0.5715 -0.2726 -1.5656
   53DOPE   C39 6809   5.640   0.122  10.803  0.1242  0.2124 -0.2822
   53DOPE   H9X 6810   5.556   0.170  10.750 -0.7064  0.7699  1.4866
   53DOPE  C310 6811   5.626   0.102  10.932  0.2288  1.2902 -0.6151
   53DOPE  H10X 6812   5.548   0.159  10.984  0.8474  1.1081  0.5673
   53DOPE  C311 6813   5.729   0.031  11.022  0.3749 -0.5247  0.1321
   53DOPE  H11X 6814   5.747  -0.067  10.974 -2.8091 -0.2567 -2.0197
   53DOPE  H11Y 6815   5.817   0.097  11.008 -1.3862  1.8314 -0.5897
   53DOPE  C312 6816   5.691   0.012  11.167  0.0179  0.2569 -0.6257
   53DOPE  H12X 6817   5.761  -0.056  11.220  0.7996  0.6655 -1.1179
   53DOPE  H12Y 6818   5.586  -0.022  11.183  0.4640 -0.9982 -0.2689
   53DOPE  C313 6819   5.699   0.140  11.251 -0.2159 -0.1199  0.0002
   53DOPE  H13X 6820   5.799   0.186  11.240 -0.3200  0.1473  0.1532
   53DOPE  H13Y 6821   5.618   0.212  11.226 -0.5301 -0.2447  0.6263
   53DOPE  C314 6822   5.680   0.110  11.407 -0.2988  0.3495  0.8381
   53DOPE  H14X 6823   5.707   0.206  11.454 -0.5387  1.5628 -1.3564
   53DOPE  H14Y 6824   5.749   0.030  11.442  0.3193 -0.2152 -1.4874
   53DOPE  C315 6825   5.528   0.083  11.442 -0.8565 -0.3010 -0.2984
   53DOPE  H15X 6826   5.510  -0.024  11.419  1.2673 -1.1174  1.5128
   53DOPE  H15Y 6827   5.469   0.159  11.385 -0.2109 -1.0286 -1.9965
   53DOPE  C316 6828   5.500   0.104  11.592  0.3049 -0.6827 -0.4109
   53DOPE  H16X 6829   5.395   0.076  11.613  1.1672 -2.2373  2.5136
   53DOPE  H16Y 6830   5.510   0.211  11.619  1.3433 -0.9684  0.4219
   53DOPE  C317 6831   5.587   0.018  11.679  0.6990 -0.5309 -0.1984
   53DOPE  H17X 6832   5.605  -0.079  11.628  1.7144 -1.1694  1.3236
   53DOPE  H17Y 6833   5.688   0.061  11.698 -0.2373  0.8614  2.0101
   53DOPE  C318 6834   5.525  -0.013  11.813  0.3394  0.1771 -0.1997
   53DOPE  H18X 6835   5.418  -0.038  11.793  0.5688 -0.4495 -0.6749
   53DOPE  H18Y 6836   5.586  -0.084  11.873 -0.1834 -1.1657 -1.2106
   53DOPE  H18Z 6837   5.522   0.075  11.880  2.9884 -0.0147  0.2888
   54DOPE     N 6838   1.680   2.230  10.166 -0.1165 -0.1266  0.5008
   54DOPE   HN1 6839   1.603   2.161  10.161 -1.0204  0.9101 -2.7532
   54DOPE   HN2 6840   1.668   2.304  10.093 -2.6458 -1.3765 -0.4404
   54DOPE   HN3 6841   1.769   2.184  10.138 -0.6058 -1.3327  0.8583
   54DOPE   C12 6842   1.691   2.281  10.315 -0.0854  0.3862  0.3407
   54DOPE  H12A 6843   1.788   2.334  10.325 -0.6118  1.3588  0.4470
   54DOPE  H12B 6844   1.698   2.194  10.384 -0.6133 -0.1307 -0.2432
   54DOPE   C11 6845   1.565   2.354  10.351  0.9124 -0.5942  0.0817
   54DOPE  H11A 6846   1.566   2.435  10.275  3.1558 -1.0611 -0.4636
   54DOPE  H11B 6847   1.583   2.401  10.450  0.0432  0.2027 -0.1294
   54DOPE     P 6848   1.363   2.237  10.471 -0.2595 -0.4612  0.1105
   54DOPE   O13 6849   1.253   2.147  10.434 -0.2389  0.0139  0.2480
   54DOPE   O14 6850   1.335   2.356  10.548 -0.3111 -0.3659 -0.4925
   54DOPE   O11 6851   1.470   2.166  10.549 -0.0347  0.6215  0.1402
   54DOPE   O12 6852   1.442   2.275  10.342  0.1297  0.0508 -0.0553
   54DOPE    C1 6853   1.484   2.023  10.558 -0.1821  0.0575 -0.4892
   54DOPE    HA 6854   1.592   1.999  10.571  0.2293  0.2706 -3.0164
   54DOPE    HB 6855   1.461   1.965  10.467  0.6359 -2.3659  0.7633
   54DOPE    C2 6856   1.408   1.966  10.683  0.0508  0.8557 -0.1819
   54DOPE    HS 6857   1.300   1.972  10.658  0.4237  1.7600 -1.6958
   54DOPE   O21 6858   1.434   2.030  10.808 -0.5081 -0.3685  0.2376
   54DOPE   C21 6859   1.343   2.120  10.847 -0.2041 -0.7697  0.3439
   54DOPE   O22 6860   1.246   2.163  10.785 -0.0618  0.3303 -0.8707
   54DOPE   C22 6861   1.392   2.161  10.985 -0.0306  0.8711 -0.1775
   54DOPE   H2R 6862   1.495   2.202  10.972 -0.0193  2.0247  2.7597
   54DOPE   H2S 6863   1.394   2.067  11.044 -1.0359 -0.0522 -1.5416
   54DOPE    C3 6864   1.443   1.810  10.695  0.0317 -0.0436  0.0198
   54DOPE    HX 6865   1.554   1.797  10.687  0.0457 -0.4941  0.8173
   54DOPE    HY 6866   1.406   1.750  10.609  0.7392 -1.4175  0.6334
   54DOPE   O31 6867   1.402   1.755  10.825  0.3362 -0.2294 -0.4396
   54DOPE   C31 6868   1.293   1.684  10.833 -0.1899 -0.3488 -0.0645
   54DOPE   O32 6869   1.229   1.649  10.738 -0.4311  0.0541  0.1496
   54DOPE   C32 6870   1.248   1.671  10.980 -0.7685 -0.2290  0.6125
   54DOPE   H2X 6871   1.322   1.721  11.046 -0.3476 -1.2687  0.9589
   54DOPE   H2Y 6872   1.148   1.719  10.980 -1.1688 -1.0321  1.1764
   54DOPE   C23 6873   1.312   2.269  11.052 -0.5010 -0.4663 -0.1817
   54DOPE   H3R 6874   1.202   2.254  11.049 -0.3846 -1.4910  0.4834
   54DOPE   H3S 6875   1.338   2.360  10.993  3.4156 -1.4582 -0.2439
   54DOPE   C24 6876   1.373   2.272  11.190  0.2979  0.3575 -0.7918
   54DOPE   H4R 6877   1.478   2.306  11.198  0.7062 -0.7886 -1.0618
   54DOPE   H4S 6878   1.378   2.167  11.226 -3.4199 -0.2764 -1.7266
   54DOPE   C25 6879   1.281   2.347  11.288 -0.1544  0.4094  0.4259
   54DOPE   H5R 6880   1.178   2.314  11.261  0.7496 -1.7091 -0.6919
   54DOPE   H5S 6881   1.298   2.456  11.273 -1.3533  0.3457 -1.7766
   54DOPE   C26 6882   1.289   2.302  11.431  0.4970  0.0738 -0.2178
   54DOPE   H6R 6883   1.246   2.200  11.440 -2.0095  0.9453 -1.2960
   54DOPE   H6S 6884   1.217   2.363  11.491 -2.2079 -0.9515 -2.2081
   54DOPE   C27 6885   1.425   2.332  11.502 -0.7202  0.1224 -0.3059
   54DOPE   H7R 6886   1.451   2.436  11.472  3.5836 -0.5238  0.5533
   54DOPE   H7S 6887   1.500   2.260  11.462  0.5993  0.2175  1.8423
   54DOPE   C28 6888   1.413   2.328  11.659 -0.1690 -0.4329  0.2433
   54DOPE   H8R 6889   1.347   2.410  11.695 -1.2784 -1.2845  0.2121
   54DOPE   H8S 6890   1.514   2.344  11.702  0.4322 -1.2667 -0.8177
   54DOPE   C29 6891   1.364   2.197  11.707  0.0070  0.4527  0.1331
   54DOPE   H9R 6892   1.280   2.157  11.650 -0.8427  1.3671  0.6995
   54DOPE  C210 6893   1.411   2.131  11.811 -0.5757 -0.0112 -0.6727
   54DOPE  H10R 6894   1.365   2.031  11.817 -1.7464  0.4699 -1.4179
   54DOPE  C211 6895   1.523   2.171  11.906  0.3504 -0.0236  0.2927
   54DOPE  H11R 6896   1.598   2.237  11.857 -0.2246  0.1295 -0.4036
   54DOPE  H11S 6897   1.576   2.074  11.917 -0.3796 -0.7000 -1.6728
   54DOPE  C212 6898   1.474   2.209  12.054  0.3841  0.5630  0.2592
   54DOPE  H12R 6899   1.563   2.237  12.114  1.0479 -0.6291 -0.1502
   54DOPE  H12S 6900   1.434   2.116  12.100  0.8809 -0.4871 -1.3398
   54DOPE  C213 6901   1.377   2.321  12.070 -0.1110 -0.1078  0.0854
   54DOPE  H13R 6902   1.287   2.281  12.019 -0.2290  0.0206  0.1935
   54DOPE  H13S 6903   1.410   2.417  12.025  0.9915 -0.8782 -0.8117
   54DOPE  C214 6904   1.335   2.341  12.220 -0.1684 -0.3447 -0.0801
   54DOPE  H14R 6905   1.422   2.344  12.290 -0.1656 -0.0197 -0.0934
   54DOPE  H14S 6906   1.275   2.251  12.247 -0.4992 -0.5495 -1.4477
   54DOPE  C215 6907   1.238   2.465  12.228 -0.7967  0.2354  0.8371
   54DOPE  H15R 6908   1.143   2.456  12.172 -0.1320 -0.3179 -0.2371
   54DOPE  H15S 6909   1.290   2.546  12.171  2.0667 -0.8934  1.6604
   54DOPE  C216 6910   1.222   2.545  12.357 -0.4341  0.2897  0.8136
   54DOPE  H16R 6911   1.164   2.484  12.430  1.3481 -1.3661  0.9416
   54DOPE  H16S 6912   1.168   2.638  12.332  0.4205  0.1944 -1.5789
   54DOPE  C217 6913   1.348   2.598  12.427 -0.0324 -0.2984 -0.2668
   54DOPE  H17R 6914   1.388   2.665  12.347 -1.5236  2.4996  1.1894
   54DOPE  H17S 6915   1.420   2.515  12.445  1.4190  0.3992 -2.3970
   54DOPE  C218 6916   1.320   2.666  12.560 -0.4856 -0.5144  0.6676
   54DOPE  H18R 6917   1.421   2.680  12.605 -0.3483 -1.0949  0.5502
   54DOPE  H18S 6918   1.253   2.604  12.624 -0.1604 -1.1521  0.4065
   54DOPE  H18T 6919   1.278   2.768  12.550  0.9457  0.3275  2.4984
   54DOPE   C33 6920   1.234   1.523  11.023  0.0991  0.3219 -0.5402
   54DOPE   H3X 6921   1.333   1.473  11.011  0.2592 -0.3768  2.6936
   54DOPE   H3Y 6922   1.152   1.479  10.963  0.9813  0.4821 -1.9146
   54DOPE   C34 6923   1.194   1.518  11.167  1.1561 -0.3539 -0.2770
   54DOPE   H4X 6924   1.113   1.589  11.191  0.7504 -0.9336  0.0812
   54DOPE   H4Y 6925   1.136   1.425  11.181 -0.0761  0.1572 -1.7521
   54DOPE   C35 6926   1.305   1.531  11.268 -0.5717 -0.6091  0.1643
   54DOPE   H5X 6927   1.386   1.602  11.238 -0.2884 -0.7978  0.4721
   54DOPE   H5Y 6928   1.358   1.436  11.289  0.6780  0.1122  0.3981
   54DOPE   C36 6929   1.262   1.576  11.407  0.1877  0.2221  0.2128
   54DOPE   H6X 6930   1.199   1.501  11.459  0.1610  1.1962  1.6607
   54DOPE   H6Y 6931   1.211   1.675  11.403  0.3375  0.2665 -1.6279
   54DOPE   C37 6932   1.382   1.588  11.497  0.1169 -0.1299  0.1618
   54DOPE   H7X 6933   1.431   1.491  11.519 -2.5390 -1.6272 -0.1605
   54DOPE   H7Y 6934   1.451   1.669  11.465 -0.4019 -0.5698 -2.3033
   54DOPE   C38 6935   1.331   1.631  11.630 -0.2623 -0.7829  0.2476
   54DOPE   H8X 6936   1.292   1.540  11.680 -1.2764 -0.6658 -0.2872
   54DOPE   H8Y 6937   1.254   1.709  11.611  1.7176  0.6648 -2.5255
   54DOPE   C39 6938   1.428   1.686  11.730  0.0443  0.1760 -0.2814
   54DOPE   H9X 6939   1.534   1.684  11.699  0.7888 -1.4002  2.0790
   54DOPE  C310 6940   1.392   1.756  11.840  0.0728  0.1219  0.3182
   54DOPE  H10X 6941   1.471   1.780  11.913 -1.2290 -2.4979  2.7933
   54DOPE  C311 6942   1.252   1.771  11.885  0.2322 -0.2918 -1.0735
   54DOPE  H11X 6943   1.188   1.818  11.808 -3.5341 -0.6645  1.5531
   54DOPE  H11Y 6944   1.203   1.673  11.900 -1.4682  0.8115  1.1136
   54DOPE  C312 6945   1.228   1.858  12.014 -0.1834 -0.3402  0.5067
   54DOPE  H12X 6946   1.316   1.926  12.022  0.8164 -1.2323 -1.9805
   54DOPE  H12Y 6947   1.232   1.788  12.101  0.4783 -1.0422 -0.0710
   54DOPE  C313 6948   1.099   1.940  12.014  0.6545  0.3715 -0.8104
   54DOPE  H13X 6949   1.102   2.023  11.940 -2.9037  1.8152  0.4604
   54DOPE  H13Y 6950   1.018   1.872  11.979 -2.1195  2.8616  0.3362
   54DOPE  C314 6951   1.086   2.007  12.150  0.8749 -0.3272  0.7619
   54DOPE  H14X 6952   1.176   2.066  12.176  0.6708  0.3843 -0.0934
   54DOPE  H14Y 6953   1.071   1.924  12.222 -1.8061 -1.0429 -0.4873
   54DOPE  C315 6954   0.960   2.108  12.161 -0.7615  0.1055  0.2452
   54DOPE  H15X 6955   0.866   2.053  12.139  0.2761 -1.2261 -1.1050
   54DOPE  H15Y 6956   0.977   2.181  12.079  0.4550 -1.0077 -0.5407
   54DOPE  C316 6957   0.958   2.183  12.300  0.1962 -0.1608  0.5684
   54DOPE  H16X 6958   1.043   2.255  12.301  0.6693 -0.6154  3.7138
   54DOPE  H16Y 6959   0.973   2.110  12.383 -0.3193  0.7783  1.5175
   54DOPE  C317 6960   0.828   2.251  12.337 -0.0222 -0.0699 -0.4464
   54DOPE  H17X 6961   0.745   2.181  12.312 -0.9597  0.8054  0.1769
   54DOPE  H17Y 6962   0.820   2.264  12.447  2.1328  2.2117 -0.4671
   54DOPE  C318 6963   0.798   2.373  12.247 -0.4503  0.0356 -0.1574
   54DOPE  H18X 6964   0.768   2.340  12.145 -0.7551 -1.1637  0.3137
   54DOPE  H18Y 6965   0.719   2.438  12.289  2.1953  4.1605 -0.9381
   54DOPE  H18Z 6966   0.895   2.428  12.240 -0.9648  0.8480 -1.0665
   55DOPE     N 6967   1.976   4.280   9.403 -0.2081 -0.1441 -0.5500
   55DOPE   HN1 6968   1.958   4.300   9.503  1.2547  3.3959 -0.8381
   55DOPE   HN2 6969   1.993   4.178   9.394 -0.8672 -0.2757 -0.4152
   55DOPE   HN3 6970   2.064   4.326   9.373 -0.9018  1.0658 -0.8198
   55DOPE   C12 6971   1.866   4.330   9.306 -0.0256 -0.2170  0.1651
   55DOPE  H12A 6972   1.766   4.301   9.346 -0.8911 -0.6021 -2.1483
   55DOPE  H12B 6973   1.896   4.277   9.214 -1.1036 -0.7620  0.1142
   55DOPE   C11 6974   1.863   4.478   9.280  0.3003  0.6142 -0.0940
   55DOPE  H11A 6975   1.787   4.495   9.201 -1.3246 -1.6541  0.8685
   55DOPE  H11B 6976   1.964   4.505   9.244  0.8093  0.3897  1.1094
   55DOPE     P 6977   1.707   4.561   9.470  0.1525  0.0452  0.0202
   55DOPE   O13 6978   1.697   4.427   9.541 -0.7223 -0.6616 -0.5659
   55DOPE   O14 6979   1.597   4.603   9.376 -0.6087  0.3623 -0.8094
   55DOPE   O11 6980   1.718   4.675   9.574  0.2847  0.0353 -0.1827
   55DOPE   O12 6981   1.843   4.564   9.397  0.1590  0.6865 -0.2489
   55DOPE    C1 6982   1.805   4.658   9.685 -0.3615  0.7419 -0.3087
   55DOPE    HA 6983   1.873   4.742   9.713  3.2940 -2.2970  0.8526
   55DOPE    HB 6984   1.876   4.575   9.666 -2.2594 -1.2985  1.0503
   55DOPE    C2 6985   1.719   4.618   9.813 -0.2503 -0.2303  0.2276
   55DOPE    HS 6986   1.655   4.530   9.788 -1.7334  1.1604 -1.1576
   55DOPE   O21 6987   1.636   4.733   9.838  0.0671 -0.1873  0.1974
   55DOPE   C21 6988   1.520   4.715   9.903  0.5331  0.3443  0.4813
   55DOPE   O22 6989   1.471   4.606   9.932 -0.3139 -0.6833  0.2285
   55DOPE   C22 6990   1.440   4.842   9.924  0.1899  0.3808  0.8213
   55DOPE   H2R 6991   1.377   4.858   9.834  2.1274  0.8315 -0.5132
   55DOPE   H2S 6992   1.521   4.915   9.944  0.3030  0.4315  0.1713
   55DOPE    C3 6993   1.806   4.589   9.937  0.0789 -0.1416  0.5140
   55DOPE    HX 6994   1.862   4.685   9.938  0.2690 -0.2162 -0.9351
   55DOPE    HY 6995   1.881   4.510   9.918 -0.3203 -0.8411  1.7762
   55DOPE   O31 6996   1.734   4.572  10.060  0.8092  0.3739  0.9329
   55DOPE   C31 6997   1.814   4.593  10.168  0.3252  0.1512  1.0109
   55DOPE   O32 6998   1.935   4.621  10.157 -0.4447 -0.0545  0.1230
   55DOPE   C32 6999   1.732   4.577  10.291 -0.5212  0.0008  0.5158
   55DOPE   H2X 7000   1.624   4.594  10.269 -0.2260  0.7898 -0.3965
   55DOPE   H2Y 7001   1.736   4.470  10.321 -0.5983 -0.5961 -1.4946
   55DOPE   C23 7002   1.335   4.831  10.042 -0.6375 -0.2035  0.2287
   55DOPE   H3R 7003   1.242   4.775  10.018 -1.7419  0.1174  3.2861
   55DOPE   H3S 7004   1.310   4.939  10.052  0.3636  0.1595 -0.8886
   55DOPE   C24 7005   1.401   4.785  10.169 -0.4523 -0.1132  0.1483
   55DOPE   H4R 7006   1.484   4.854  10.194 -1.5672  1.9020 -1.3553
   55DOPE   H4S 7007   1.446   4.684  10.159  1.1976  0.7468 -1.8657
   55DOPE   C25 7008   1.305   4.792  10.293  0.4303 -0.4280  0.2449
   55DOPE   H5R 7009   1.354   4.737  10.377 -0.6075  1.3079  2.0472
   55DOPE   H5S 7010   1.208   4.745  10.268 -0.3131  1.5362 -0.7159
   55DOPE   C26 7011   1.281   4.942  10.342  0.0279 -0.4750  0.3899
   55DOPE   H6R 7012   1.215   4.937  10.432  3.6413  0.0970  3.3348
   55DOPE   H6S 7013   1.237   4.994  10.254  0.3773  0.8938  0.9950
   55DOPE   C27 7014   1.406   5.015  10.391  0.1627 -0.3259 -0.6913
   55DOPE   H7R 7015   1.390   5.124  10.402  0.5106 -0.1908 -1.5075
   55DOPE   H7S 7016   1.485   5.013  10.313 -0.4008  0.4594 -1.2909
   55DOPE   C28 7017   1.457   4.959  10.534 -0.1693 -0.0160 -0.1746
   55DOPE   H8R 7018   1.506   4.860  10.526 -3.0833 -1.4657 -1.4195
   55DOPE   H8S 7019   1.363   4.952  10.593 -0.5907  0.8431 -0.7184
   55DOPE   C29 7020   1.550   5.059  10.601  0.4366  0.1062 -0.1209
   55DOPE   H9R 7021   1.605   5.115  10.524  0.4902 -2.9573 -2.5458
   55DOPE  C210 7022   1.547   5.093  10.730 -0.2382  0.1600 -0.1351
   55DOPE  H10R 7023   1.604   5.183  10.754  0.6354 -0.3891 -0.1021
   55DOPE  C211 7024   1.470   5.032  10.848  0.1841  0.2302  0.9864
   55DOPE  H11R 7025   1.410   4.950  10.804  0.5304 -0.0142  0.9660
   55DOPE  H11S 7026   1.399   5.100  10.900 -1.3549 -1.0990  0.6987
   55DOPE  C212 7027   1.582   4.974  10.943  0.3005 -0.2979  0.9237
   55DOPE  H12R 7028   1.641   5.051  10.998 -2.0133  1.5447  0.9760
   55DOPE  H12S 7029   1.652   4.924  10.872  0.8519 -0.7575  1.7765
   55DOPE  C213 7030   1.543   4.865  11.045 -0.0532  0.3727 -0.1057
   55DOPE  H13R 7031   1.630   4.829  11.105  0.7785 -1.6967 -2.4192
   55DOPE  H13S 7032   1.518   4.783  10.976  2.1041  1.0071 -1.7476
   55DOPE  C214 7033   1.420   4.890  11.125  0.0639 -0.4610  0.3834
   55DOPE  H14R 7034   1.410   4.797  11.185 -0.8790  0.0880  1.1068
   55DOPE  H14S 7035   1.328   4.896  11.062 -0.3399  0.0817  1.0152
   55DOPE  C215 7036   1.410   5.014  11.219 -0.1730  0.1056  0.2612
   55DOPE  H15R 7037   1.310   5.022  11.267 -0.6965  0.0262 -0.7796
   55DOPE  H15S 7038   1.418   5.098  11.147 -0.4720 -0.1356 -0.0601
   55DOPE  C216 7039   1.520   5.017  11.325 -0.1616  0.1331 -0.1308
   55DOPE  H16R 7040   1.612   5.034  11.265 -0.3024  2.4375  0.2074
   55DOPE  H16S 7041   1.513   4.919  11.375  0.8255 -0.4236 -1.0471
   55DOPE  C217 7042   1.498   5.144  11.418 -0.3189 -0.3191 -0.3117
   55DOPE  H17R 7043   1.489   5.235  11.355 -0.0663  0.4724  0.7574
   55DOPE  H17S 7044   1.593   5.161  11.474  0.5168 -0.8332 -1.5107
   55DOPE  C218 7045   1.382   5.124  11.515 -0.1697 -0.1154  0.0222
   55DOPE  H18R 7046   1.360   5.214  11.577  0.3909  0.6187 -0.8119
   55DOPE  H18S 7047   1.412   5.054  11.596 -0.5051  1.9701  2.0391
   55DOPE  H18T 7048   1.288   5.091  11.466 -0.1733  1.9115 -1.4669
   55DOPE   C33 7049   1.777   4.673  10.407 -0.4305  0.3668 -0.2159
   55DOPE   H3X 7050   1.774   4.778  10.371 -1.5552  0.9398  1.4420
   55DOPE   H3Y 7051   1.877   4.654  10.453 -0.8309  0.5505  0.7493
   55DOPE   C34 7052   1.681   4.653  10.522 -0.2850  0.3168 -0.2258
   55DOPE   H4X 7053   1.697   4.739  10.590 -0.5493 -0.4425  0.8377
   55DOPE   H4Y 7054   1.574   4.664  10.496 -0.2735 -0.1734 -0.4888
   55DOPE   C35 7055   1.699   4.534  10.619  0.2781  0.0279  0.0132
   55DOPE   H5X 7056   1.810   4.529  10.621  0.4472  1.8567 -1.6168
   55DOPE   H5Y 7057   1.647   4.444  10.581 -1.2165  0.2539  1.4321
   55DOPE   C36 7058   1.637   4.556  10.761  0.3941  0.5314  0.4066
   55DOPE   H6X 7059   1.527   4.562  10.752  0.6485  2.5139 -3.5972
   55DOPE   H6Y 7060   1.667   4.657  10.795  0.6634  0.5228  0.1920
   55DOPE   C37 7061   1.681   4.463  10.873  0.1599  0.9240  0.1266
   55DOPE   H7X 7062   1.658   4.355  10.868 -2.6974  1.4306  0.0879
   55DOPE   H7Y 7063   1.791   4.478  10.872  0.0837  1.5832 -1.4347
   55DOPE   C38 7064   1.635   4.512  11.006  0.1923  0.1358 -0.7234
   55DOPE   H8X 7065   1.526   4.494  11.014  0.6355 -2.5635  0.7859
   55DOPE   H8Y 7066   1.633   4.622  11.020 -0.6474  0.3736 -2.4700
   55DOPE   C39 7067   1.689   4.445  11.127 -0.1709  0.0639 -0.3517
   55DOPE   H9X 7068   1.727   4.345  11.101  1.0242  0.9796 -2.3483
   55DOPE  C310 7069   1.677   4.476  11.259  0.3181  0.5694 -0.9744
   55DOPE  H10X 7070   1.725   4.414  11.336 -0.2515  1.6103  0.2543
   55DOPE  C311 7071   1.611   4.606  11.306  0.4414  0.1627  0.0256
   55DOPE  H11X 7072   1.672   4.696  11.284  0.3751  0.1458 -0.2325
   55DOPE  H11Y 7073   1.512   4.621  11.258  0.0510 -0.4340  0.6148
   55DOPE  C312 7074   1.575   4.606  11.454 -0.1427  0.7600  0.2046
   55DOPE  H12X 7075   1.504   4.529  11.491  1.4647 -0.5714  0.6294
   55DOPE  H12Y 7076   1.518   4.701  11.467 -1.0664  0.1314  0.9215
   55DOPE  C313 7077   1.698   4.602  11.539  0.3345  0.3112 -0.2161
   55DOPE  H13X 7078   1.745   4.502  11.535 -0.1373  0.0731  0.1479
   55DOPE  H13Y 7079   1.769   4.680  11.503  0.2950  1.2586  1.6468
   55DOPE  C314 7080   1.657   4.607  11.689  0.2426  0.4347 -0.3981
   55DOPE  H14X 7081   1.582   4.529  11.714  1.2329 -1.1359 -2.0998
   55DOPE  H14Y 7082   1.602   4.703  11.707 -0.8263  0.3257 -2.6214
   55DOPE  C315 7083   1.775   4.588  11.783 -0.1739  0.4142  0.2280
   55DOPE  H15X 7084   1.854   4.665  11.770  0.1351 -0.1602 -1.6673
   55DOPE  H15Y 7085   1.824   4.492  11.757 -2.0458 -0.7327  0.7676
   55DOPE  C316 7086   1.730   4.590  11.929 -0.1068  0.0637 -0.0579
   55DOPE  H16X 7087   1.659   4.505  11.938 -0.4858  0.1885 -1.5865
   55DOPE  H16Y 7088   1.674   4.683  11.949  1.3033  0.4704  2.4105
   55DOPE  C317 7089   1.842   4.584  12.031 -0.9389  0.1817  0.3776
   55DOPE  H17X 7090   1.898   4.488  12.038 -0.4375  0.3804 -0.6104
   55DOPE  H17Y 7091   1.923   4.654  12.000 -1.8451  0.4434 -1.6105
   55DOPE  C318 7092   1.806   4.627  12.178 -0.1062 -0.0131 -0.0506
   55DOPE  H18X 7093   1.898   4.624  12.240 -1.1352  0.6968  1.5671
   55DOPE  H18Y 7094   1.761   4.729  12.176 -0.1385 -0.0059  0.7206
   55DOPE  H18Z 7095   1.736   4.551  12.219  1.2038 -2.8087 -2.5756
   56DOPE     N 7096   1.032   5.491   9.384 -0.2896  0.5411  0.4683
   56DOPE   HN1 7097   1.092   5.574   9.401 -1.3125  1.5199 -0.5266
   56DOPE   HN2 7098   0.931   5.507   9.406 -0.8416 -2.6939  0.8483
   56DOPE   HN3 7099   1.077   5.416   9.441  1.7491  2.6682  1.8556
   56DOPE   C12 7100   1.044   5.453   9.239  0.5226 -0.1928  0.0775
   56DOPE  H12A 7101   1.033   5.552   9.190  0.0529  1.0379  2.5069
   56DOPE  H12B 7102   0.967   5.380   9.206  0.4687 -0.8237  1.5117
   56DOPE   C11 7103   1.189   5.391   9.200 -0.0415 -0.4638 -0.4845
   56DOPE  H11A 7104   1.241   5.484   9.172  0.1509 -0.3743  0.1503
   56DOPE  H11B 7105   1.180   5.330   9.108  1.8305  1.0050 -1.7125
   56DOPE     P 7106   1.215   5.194   9.374  0.1403  0.3396  0.1113
   56DOPE   O13 7107   1.206   5.095   9.265 -0.0849  0.2229 -0.1256
   56DOPE   O14 7108   1.089   5.219   9.444  0.2778 -0.4829 -0.3910
   56DOPE   O11 7109   1.323   5.148   9.481 -0.1661  0.0154  0.3025
   56DOPE   O12 7110   1.254   5.334   9.307 -0.6071  0.3249  0.1534
   56DOPE    C1 7111   1.387   5.255   9.562 -0.3076 -0.3014  0.1394
   56DOPE    HA 7112   1.376   5.362   9.533  1.9567  1.0796  3.7041
   56DOPE    HB 7113   1.496   5.234   9.564  0.0636  1.4840  0.8954
   56DOPE    C2 7114   1.346   5.257   9.711  0.8018  0.2541  0.1136
   56DOPE    HS 7115   1.399   5.167   9.750  3.3074  1.4282 -0.3757
   56DOPE   O21 7116   1.202   5.241   9.730 -0.1928 -0.4533 -0.6017
   56DOPE   C21 7117   1.146   5.124   9.741  0.6453  0.3134 -0.0748
   56DOPE   O22 7118   1.199   5.017   9.740 -0.0270  0.2547 -0.4687
   56DOPE   C22 7119   0.998   5.157   9.752 -0.2523  0.2582 -0.0012
   56DOPE   H2R 7120   0.949   5.104   9.668 -1.1720 -0.5408  1.0151
   56DOPE   H2S 7121   0.980   5.267   9.749 -1.7539  0.0748  1.0043
   56DOPE    C3 7122   1.401   5.382   9.783 -0.8168  0.2300 -0.9692
   56DOPE    HX 7123   1.357   5.480   9.756  0.5502  0.8423 -1.0184
   56DOPE    HY 7124   1.508   5.367   9.759 -0.5558 -0.2762  0.3907
   56DOPE   O31 7125   1.380   5.373   9.927  0.0107  0.5334 -0.4017
   56DOPE   C31 7126   1.469   5.309   9.996 -0.2007  0.9886  0.4217
   56DOPE   O32 7127   1.568   5.255   9.956  0.4738 -0.1525  0.7025
   56DOPE   C32 7128   1.417   5.300  10.132 -0.0365 -0.7965 -0.5810
   56DOPE   H2X 7129   1.307   5.304  10.121 -0.0378  0.1846 -0.3502
   56DOPE   H2Y 7130   1.438   5.202  10.179 -2.0729 -1.4886 -1.0355
   56DOPE   C23 7131   0.938   5.093   9.880  0.0567 -0.4921 -0.8196
   56DOPE   H3R 7132   0.965   4.986   9.885 -0.3949 -0.5489  1.1405
   56DOPE   H3S 7133   0.829   5.107   9.863 -0.0997 -0.1220  0.3737
   56DOPE   C24 7134   0.971   5.170  10.004  0.0174 -0.3442 -0.4167
   56DOPE   H4R 7135   0.952   5.278   9.984 -0.9422  0.3703  3.5454
   56DOPE   H4S 7136   1.079   5.163  10.027 -0.0548  0.2471  0.1472
   56DOPE   C25 7137   0.891   5.128  10.130 -0.6889 -0.6926  0.2819
   56DOPE   H5R 7138   0.922   5.023  10.150  1.1453 -0.3594 -0.6224
   56DOPE   H5S 7139   0.782   5.144  10.111 -0.1399  1.1196 -1.7400
   56DOPE   C26 7140   0.931   5.209  10.254  0.3844 -0.6517 -0.4694
   56DOPE   H6R 7141   0.890   5.312  10.245 -0.5015 -0.9632 -0.0919
   56DOPE   H6S 7142   1.042   5.215  10.251  0.3466  2.3820  0.5599
   56DOPE   C27 7143   0.884   5.143  10.387 -0.0243  0.3450 -0.5696
   56DOPE   H7R 7144   0.914   5.036  10.383  0.0486  0.2988  0.7843
   56DOPE   H7S 7145   0.773   5.141  10.392 -0.1109 -4.3215  1.5027
   56DOPE   C28 7146   0.943   5.212  10.515 -0.7336  0.2432 -0.2054
   56DOPE   H8R 7147   0.884   5.179  10.603 -0.6901  1.0956  0.1558
   56DOPE   H8S 7148   0.920   5.321  10.509  0.1733  0.3988 -1.3123
   56DOPE   C29 7149   1.088   5.205  10.550 -0.3134 -0.0862  0.6404
   56DOPE   H9R 7150   1.149   5.239  10.464 -0.1637  0.2881  0.8926
   56DOPE  C210 7151   1.149   5.164  10.658 -0.2565  0.8824  0.2638
   56DOPE  H10R 7152   1.259   5.164  10.655 -0.2342 -0.9956 -0.7628
   56DOPE  C211 7153   1.093   5.110  10.784 -0.7755  0.3327 -0.6132
   56DOPE  H11R 7154   1.145   5.018  10.820 -0.3811  1.4187  1.8036
   56DOPE  H11S 7155   0.986   5.084  10.772  0.0093 -3.2220 -1.0558
   56DOPE  C212 7156   1.118   5.211  10.905 -0.4371  0.7405  0.4864
   56DOPE  H12R 7157   1.057   5.303  10.890 -0.9811  0.2128 -0.5983
   56DOPE  H12S 7158   1.226   5.237  10.901 -0.2505 -0.1214 -0.4338
   56DOPE  C213 7159   1.085   5.154  11.043 -0.9428 -0.2119  0.0662
   56DOPE  H13R 7160   1.157   5.078  11.081 -0.5729 -0.3571 -0.9000
   56DOPE  H13S 7161   0.989   5.100  11.039  0.7464 -3.3850 -1.6628
   56DOPE  C214 7162   1.103   5.261  11.158  0.0989  0.4106 -0.0009
   56DOPE  H14R 7163   1.037   5.349  11.140 -1.1381  0.1583  2.7025
   56DOPE  H14S 7164   1.210   5.290  11.163  0.3129 -0.5268  2.6182
   56DOPE  C215 7165   1.060   5.209  11.302  1.0666 -0.1305  0.7364
   56DOPE  H15R 7166   1.127   5.124  11.327  1.1197 -0.4391 -0.4321
   56DOPE  H15S 7167   0.958   5.167  11.297  0.0024  2.3817 -0.9691
   56DOPE  C216 7168   1.064   5.317  11.408  0.1180 -0.3967  0.6298
   56DOPE  H16R 7169   1.006   5.407  11.378  2.8511  0.4812 -2.6483
   56DOPE  H16S 7170   1.166   5.362  11.411  0.2425 -0.5387 -0.8192
   56DOPE  C217 7171   1.021   5.268  11.545 -0.9802  0.1222 -0.9859
   56DOPE  H17R 7172   1.088   5.183  11.570  0.3513  1.5365  0.4929
   56DOPE  H17S 7173   0.914   5.242  11.536 -1.2978  0.4062  1.2887
   56DOPE  C218 7174   1.033   5.378  11.646 -0.0861  0.1134 -0.0036
   56DOPE  H18R 7175   0.979   5.361  11.742 -0.7675  0.8411 -0.2424
   56DOPE  H18S 7176   0.998   5.474  11.602 -1.9428 -1.0098 -1.0905
   56DOPE  H18T 7177   1.138   5.390  11.680 -0.2909 -1.0743  1.1390
   56DOPE   C33 7178   1.466   5.405  10.228  0.3898 -0.5439 -0.0813
   56DOPE   H3X 7179   1.389   5.421  10.307  0.0192  0.8047 -0.6930
   56DOPE   H3Y 7180   1.470   5.503  10.175 -0.0846 -0.2612  0.3900
   56DOPE   C34 7181   1.600   5.369  10.298  0.7462  0.3135  0.2124
   56DOPE   H4X 7182   1.598   5.262  10.331 -3.0329 -0.1545 -0.9490
   56DOPE   H4Y 7183   1.684   5.370  10.225  1.2436 -1.7880  0.6773
   56DOPE   C35 7184   1.646   5.463  10.408  0.2182  0.1697  0.6503
   56DOPE   H5X 7185   1.687   5.558  10.369  1.0085 -1.2608 -2.2973
   56DOPE   H5Y 7186   1.737   5.415  10.451 -0.3409 -1.8163 -0.2882
   56DOPE   C36 7187   1.548   5.481  10.528  0.5851 -0.5450  0.2707
   56DOPE   H6X 7188   1.507   5.379  10.539 -2.4282  0.5718  0.2711
   56DOPE   H6Y 7189   1.467   5.551  10.499  2.0664  1.4344  0.6372
   56DOPE   C37 7190   1.611   5.524  10.657 -0.0459  0.0361 -0.4640
   56DOPE   H7X 7191   1.681   5.445  10.692 -0.5198  0.0001  0.4359
   56DOPE   H7Y 7192   1.686   5.606  10.650  0.7386 -0.7684 -2.0127
   56DOPE   C38 7193   1.505   5.559  10.761  0.2897 -0.7589 -0.1360
   56DOPE   H8X 7194   1.415   5.601  10.712 -0.1342  0.5759  1.6701
   56DOPE   H8Y 7195   1.544   5.640  10.826 -1.7530  0.5272 -0.4513
   56DOPE   C39 7196   1.457   5.433  10.826 -0.0768  0.3666  1.2884
   56DOPE   H9X 7197   1.424   5.356  10.755  1.1666  0.4866  0.5543
   56DOPE  C310 7198   1.457   5.398  10.953  0.7641  0.6986 -0.5212
   56DOPE  H10X 7199   1.438   5.293  10.980 -0.3050  1.7166  3.2179
   56DOPE  C311 7200   1.497   5.490  11.061  0.6881  0.0879 -0.8458
   56DOPE  H11X 7201   1.475   5.596  11.037 -1.1102  0.2364  1.1492
   56DOPE  H11Y 7202   1.428   5.465  11.145  2.6072 -3.8560 -0.2179
   56DOPE  C312 7203   1.632   5.480  11.132 -0.0744 -0.1510 -0.1345
   56DOPE  H12X 7204   1.710   5.538  11.076  0.2618  0.9129  1.3752
   56DOPE  H12Y 7205   1.661   5.373  11.138  1.4156  0.1874 -0.6700
   56DOPE  C313 7206   1.630   5.537  11.277 -0.1322  0.2630  0.9939
   56DOPE  H13X 7207   1.622   5.648  11.276 -0.5946  0.2843  2.9598
   56DOPE  H13Y 7208   1.530   5.507  11.313 -0.4236  1.4745  1.2390
   56DOPE  C314 7209   1.748   5.489  11.363 -0.6358 -0.2663  0.2769
   56DOPE  H14X 7210   1.838   5.552  11.345 -2.1016  1.9119  0.1858
   56DOPE  H14Y 7211   1.757   5.381  11.338 -0.5948  0.2097 -2.0155
   56DOPE  C315 7212   1.714   5.504  11.510 -0.0863 -0.0703 -0.1063
   56DOPE  H15X 7213   1.793   5.450  11.566  3.6626  2.5293 -2.3814
   56DOPE  H15Y 7214   1.615   5.459  11.528  0.0651 -1.7626 -2.9419
   56DOPE  C316 7215   1.706   5.648  11.560  0.1709  0.6859 -0.4751
   56DOPE  H16X 7216   1.626   5.697  11.501  1.6194  1.6732 -1.6728
   56DOPE  H16Y 7217   1.805   5.693  11.537  0.8351 -0.5224 -0.0994
   56DOPE  C317 7218   1.672   5.658  11.707  0.0523  0.1774 -0.6599
   56DOPE  H17X 7219   1.564   5.640  11.729 -0.1759  1.4048 -0.6649
   56DOPE  H17Y 7220   1.726   5.592  11.778 -1.8456 -0.4102  0.3044
   56DOPE  C318 7221   1.704   5.797  11.758 -0.2121 -0.5595  0.1079
   56DOPE  H18X 7222   1.643   5.874  11.705  0.8959  1.5862  1.7790
   56DOPE  H18Y 7223   1.683   5.803  11.867 -0.3194  0.0955  0.0599
   56DOPE  H18Z 7224   1.812   5.812  11.736 -0.6478 -1.7648 -3.6521
   57DOPE     N 7225   1.196   1.909  10.304  0.4517 -0.2084  0.3531
   57DOPE   HN1 7226   1.247   1.987  10.348  2.0428  0.3215 -2.2183
   57DOPE   HN2 7227   1.102   1.949  10.285  0.9895  0.6099 -0.6837
   57DOPE   HN3 7228   1.189   1.829  10.370 -2.8780 -1.4300 -1.2443
   57DOPE   C12 7229   1.242   1.851  10.173  0.4414  0.1716  0.0093
   57DOPE  H12A 7230   1.281   1.935  10.111  0.7739 -1.0407 -1.4844
   57DOPE  H12B 7231   1.163   1.789  10.126  0.9691 -1.7220  1.4924
   57DOPE   C11 7232   1.357   1.751  10.204  0.2182 -0.5687  0.1196
   57DOPE  H11A 7233   1.390   1.703  10.110  1.8271  0.1984  0.2501
   57DOPE  H11B 7234   1.320   1.663  10.261  1.8035 -0.7241  0.9717
   57DOPE     P 7235   1.574   1.886  10.201  0.0636  0.2301  0.1950
   57DOPE   O13 7236   1.526   2.017  10.157 -0.0178 -0.1659  0.1494
   57DOPE   O14 7237   1.624   1.788  10.099  0.1115  0.4895  0.2184
   57DOPE   O11 7238   1.690   1.913  10.299 -0.3473 -0.5076 -0.2808
   57DOPE   O12 7239   1.464   1.804  10.279 -0.1415 -0.4343  0.5752
   57DOPE    C1 7240   1.740   1.799  10.376  0.1464 -0.4822 -0.9630
   57DOPE    HA 7241   1.699   1.700  10.347 -1.3753 -0.0050 -0.5229
   57DOPE    HB 7242   1.717   1.811  10.484  0.1026  1.2865 -1.1493
   57DOPE    C2 7243   1.889   1.791  10.356 -0.7795  0.3147 -0.8298
   57DOPE    HS 7244   1.924   1.807  10.252  1.9118  1.3345  0.1401
   57DOPE   O21 7245   1.931   1.663  10.388  0.5637  0.5116  0.5935
   57DOPE   C21 7246   2.053   1.628  10.360 -0.1026 -0.0525 -0.2811
   57DOPE   O22 7247   2.130   1.689  10.287  0.1419  0.0243  0.3401
   57DOPE   C22 7248   2.076   1.516  10.454 -0.7157  0.0069 -0.5759
   57DOPE   H2R 7249   2.177   1.478  10.426 -0.7518 -0.6813  0.2053
   57DOPE   H2S 7250   1.994   1.442  10.441 -1.7102  0.8068  0.8042
   57DOPE    C3 7251   1.964   1.901  10.435 -0.7767 -0.2342  1.0473
   57DOPE    HX 7252   1.913   1.991  10.394  0.1041  0.5748  1.6972
   57DOPE    HY 7253   2.070   1.916  10.406 -1.1557  0.8651  0.1424
   57DOPE   O31 7254   1.969   1.890  10.578  0.7266 -0.0091  0.0468
   57DOPE   C31 7255   1.910   1.991  10.649  1.2516  0.0100  0.0306
   57DOPE   O32 7256   1.865   2.092  10.598  0.1185 -0.1127  0.3906
   57DOPE   C32 7257   1.908   1.967  10.804 -0.1421  1.0845  0.5126
   57DOPE   H2X 7258   1.983   1.890  10.833  1.8529  2.2048 -1.3669
   57DOPE   H2Y 7259   1.951   2.060  10.846 -0.6279  1.9337 -0.7954
   57DOPE   C23 7260   2.093   1.571  10.597  0.2122 -0.6268 -0.0507
   57DOPE   H3R 7261   2.011   1.632  10.640  1.3674  0.7183  0.2898
   57DOPE   H3S 7262   2.185   1.632  10.611 -0.3772 -0.1004  1.8124
   57DOPE   C24 7263   2.124   1.461  10.698 -0.1329  0.0217  0.4206
   57DOPE   H4R 7264   2.224   1.414  10.685 -0.1481  0.0569  0.1800
   57DOPE   H4S 7265   2.036   1.394  10.695 -0.8232  0.9366 -0.7487
   57DOPE   C25 7266   2.129   1.510  10.845  0.3873 -0.7571  0.5909
   57DOPE   H5R 7267   2.045   1.583  10.836  1.7874  0.8864  0.4199
   57DOPE   H5S 7268   2.230   1.553  10.856  0.5053 -0.7844 -0.3021
   57DOPE   C26 7269   2.100   1.403  10.956  0.6460 -0.2651 -0.0971
   57DOPE   H6R 7270   2.184   1.330  10.954 -0.0696 -1.1006 -0.3898
   57DOPE   H6S 7271   2.012   1.342  10.925  1.1912 -1.6085  0.9118
   57DOPE   C27 7272   2.073   1.456  11.089  0.5787 -0.4604  0.2263
   57DOPE   H7R 7273   1.976   1.510  11.084 -0.4914 -2.1699  1.4797
   57DOPE   H7S 7274   2.153   1.529  11.116 -0.3340  0.4285  0.6132
   57DOPE   C28 7275   2.070   1.344  11.196 -0.7816  0.1416  0.2965
   57DOPE   H8R 7276   2.171   1.298  11.205 -1.4557 -1.4985 -0.1940
   57DOPE   H8S 7277   2.003   1.264  11.159 -0.2706  0.6597 -1.9038
   57DOPE   C29 7278   2.021   1.408  11.325  0.9099 -0.0762  0.3692
   57DOPE   H9R 7279   1.934   1.473  11.303  0.6050 -0.9058 -1.0319
   57DOPE  C210 7280   2.062   1.392  11.449 -0.6298 -0.9059 -0.4818
   57DOPE  H10R 7281   2.012   1.450  11.528 -0.5342  0.4606 -1.4019
   57DOPE  C211 7282   2.180   1.313  11.497 -0.2331 -0.0931  0.3855
   57DOPE  H11R 7283   2.248   1.285  11.413 -1.1519  1.7333 -1.0407
   57DOPE  H11S 7284   2.135   1.216  11.527  0.1233 -0.6132 -0.6959
   57DOPE  C212 7285   2.247   1.355  11.632  0.2125 -0.4880  0.3513
   57DOPE  H12R 7286   2.304   1.263  11.658  1.5554  0.1568 -0.1891
   57DOPE  H12S 7287   2.176   1.377  11.713 -0.9795 -0.7826 -0.5887
   57DOPE  C213 7288   2.347   1.472  11.627  0.4245 -0.2817  0.3145
   57DOPE  H13R 7289   2.288   1.566  11.639 -1.8173 -1.3032 -1.7364
   57DOPE  H13S 7290   2.387   1.485  11.525  0.8517  0.3965  0.5650
   57DOPE  C214 7291   2.461   1.468  11.726  0.1319  0.0921 -0.0623
   57DOPE  H14R 7292   2.543   1.514  11.667  0.6628 -3.7122 -2.6724
   57DOPE  H14S 7293   2.493   1.363  11.740 -3.1554 -1.0769 -0.4898
   57DOPE  C215 7294   2.460   1.537  11.864 -0.1051 -0.2859 -0.2805
   57DOPE  H15R 7295   2.406   1.634  11.874  1.7058  0.9732 -1.9068
   57DOPE  H15S 7296   2.559   1.565  11.905 -0.2803 -0.2905  0.1507
   57DOPE  C216 7297   2.411   1.442  11.970 -0.1660  0.2032  0.8806
   57DOPE  H16R 7298   2.455   1.344  11.938  0.9688  1.2251 -0.8594
   57DOPE  H16S 7299   2.300   1.442  11.966 -0.1404 -0.4448 -0.6491
   57DOPE  C217 7300   2.454   1.476  12.110 -0.1391 -0.1366  0.1918
   57DOPE  H17R 7301   2.563   1.496  12.105  0.0430 -1.2007 -0.3021
   57DOPE  H17S 7302   2.442   1.382  12.168  0.8771 -0.6402 -0.3776
   57DOPE  C218 7303   2.376   1.597  12.170  0.1998  0.3395 -0.2325
   57DOPE  H18R 7304   2.420   1.691  12.130  2.4803 -1.3773 -2.0681
   57DOPE  H18S 7305   2.395   1.602  12.280 -0.3822  1.3026 -0.1614
   57DOPE  H18T 7306   2.267   1.587  12.154  0.2867  0.8144 -1.1511
   57DOPE   C33 7307   1.767   1.938  10.855  0.4178 -0.8098 -0.1533
   57DOPE   H3X 7308   1.732   1.847  10.803  0.8382 -1.2619  0.3380
   57DOPE   H3Y 7309   1.707   2.027  10.827 -0.6380 -0.3660  3.0930
   57DOPE   C34 7310   1.759   1.918  11.005  0.1794  0.6592 -0.1237
   57DOPE   H4X 7311   1.847   1.855  11.032  0.6756  2.0150  1.6120
   57DOPE   H4Y 7312   1.764   2.002  11.077 -2.6498 -1.5012  2.9649
   57DOPE   C35 7313   1.625   1.842  11.049  0.6757 -0.8395  0.5078
   57DOPE   H5X 7314   1.618   1.746  10.995  0.3272 -1.3525  1.4498
   57DOPE   H5Y 7315   1.541   1.898  11.002  1.5462 -0.3064 -0.4630
   57DOPE   C36 7316   1.600   1.828  11.200 -0.1123  0.4863 -0.3043
   57DOPE   H6X 7317   1.698   1.800  11.244  0.6702  2.3749 -0.7525
   57DOPE   H6Y 7318   1.532   1.741  11.211 -1.0790  1.3494  0.8542
   57DOPE   C37 7319   1.535   1.948  11.275 -0.0176  0.4497  0.6556
   57DOPE   H7X 7320   1.559   2.047  11.232  0.2867 -0.2580 -0.8708
   57DOPE   H7Y 7321   1.426   1.933  11.265  0.0997  0.0306 -0.0081
   57DOPE   C38 7322   1.564   1.941  11.428 -0.7733 -0.3722  0.1681
   57DOPE   H8X 7323   1.526   1.844  11.468  0.3044 -0.5776  0.7222
   57DOPE   H8Y 7324   1.509   2.025  11.475  0.1431  1.3042 -1.6177
   57DOPE   C39 7325   1.714   1.980  11.439  0.1290  0.3956 -0.2464
   57DOPE   H9X 7326   1.732   2.087  11.418  0.2101  0.4793  0.2301
   57DOPE  C310 7327   1.812   1.899  11.481 -0.1249  0.0198 -0.1725
   57DOPE  H10X 7328   1.917   1.929  11.491  0.2206 -0.8059 -1.1571
   57DOPE  C311 7329   1.789   1.755  11.519 -0.8506 -0.6549 -0.7543
   57DOPE  H11X 7330   1.693   1.704  11.496 -2.4259  1.5778  0.5393
   57DOPE  H11Y 7331   1.870   1.706  11.460 -0.5433  1.0992 -1.8623
   57DOPE  C312 7332   1.804   1.725  11.667  0.1234 -0.4549 -0.0276
   57DOPE  H12X 7333   1.774   1.619  11.676 -2.5497  0.3413  1.4322
   57DOPE  H12Y 7334   1.726   1.789  11.715 -1.7248 -0.7537 -2.4788
   57DOPE  C313 7335   1.952   1.745  11.718 -0.1897 -0.0696  0.2598
   57DOPE  H13X 7336   2.029   1.719  11.643  0.7482  0.7059  0.9141
   57DOPE  H13Y 7337   1.963   1.853  11.742  1.4155 -0.8647  3.7292
   57DOPE  C314 7338   1.982   1.669  11.849  0.3397  0.1820 -0.0740
   57DOPE  H14X 7339   2.092   1.657  11.862  0.4452  2.0443  1.2922
   57DOPE  H14Y 7340   1.928   1.574  11.834 -0.8413  0.8056  0.1127
   57DOPE  C315 7341   1.923   1.728  11.979 -0.0105  0.0855  0.0799
   57DOPE  H15X 7342   1.912   1.645  12.053 -0.2882  1.0531  1.1596
   57DOPE  H15Y 7343   1.820   1.767  11.963  0.6204  1.0681 -1.8030
   57DOPE  C316 7344   2.008   1.840  12.043  0.1980  0.0355 -0.4852
   57DOPE  H16X 7345   2.003   1.931  11.981 -1.0520  1.5225  1.6530
   57DOPE  H16Y 7346   2.117   1.818  12.044  0.3356  0.6699  0.7939
   57DOPE  C317 7347   1.960   1.874  12.185  0.1540  0.1084  0.1123
   57DOPE  H17X 7348   1.851   1.894  12.185  0.6131  3.1224 -0.0949
   57DOPE  H17Y 7349   1.968   1.788  12.255 -1.0869 -1.7200 -1.8715
   57DOPE  C318 7350   2.031   1.997  12.237  0.1137 -0.2793 -0.5879
   57DOPE  H18X 7351   2.136   1.965  12.257 -0.1063 -0.6020  0.0523
   57DOPE  H18Y 7352   2.048   2.084  12.170  1.2629 -0.3182 -0.3768
   57DOPE  H18Z 7353   1.985   2.035  12.330 -0.5534 -0.2754 -0.9148
   58DOPE     N 7354   1.661   4.166   9.975 -0.2080  0.9177  0.4415
   58DOPE   HN1 7355   1.607   4.124   9.896  0.8441 -0.0772  0.2322
   58DOPE   HN2 7356   1.761   4.178   9.949  0.0368 -2.1819 -0.4249
   58DOPE   HN3 7357   1.662   4.103  10.057 -3.1680 -1.0455 -0.8493
   58DOPE   C12 7358   1.593   4.291  10.027 -0.0233  0.5852 -0.3059
   58DOPE  H12A 7359   1.582   4.364   9.945 -0.6133 -0.6935 -1.3984
   58DOPE  H12B 7360   1.668   4.334  10.097  2.4371 -0.2259 -2.3285
   58DOPE   C11 7361   1.456   4.273  10.103  0.6698 -0.5853 -0.1969
   58DOPE  H11A 7362   1.424   4.369  10.148  2.3008 -0.3970  0.6443
   58DOPE  H11B 7363   1.460   4.203  10.189  0.6543  0.2174  0.4606
   58DOPE     P 7364   1.306   4.092   9.999 -0.4979  0.1572  0.3080
   58DOPE   O13 7365   1.436   4.018   9.980 -1.0871  0.0740  0.3714
   58DOPE   O14 7366   1.196   4.077   9.902  0.7646 -0.1238 -0.1945
   58DOPE   O11 7367   1.257   4.067  10.145 -0.4993  0.8694 -0.2852
   58DOPE   O12 7368   1.359   4.247  10.008  0.3287  0.1474 -0.2403
   58DOPE    C1 7369   1.134   4.119  10.185 -0.0519 -0.9781  0.4148
   58DOPE    HA 7370   1.060   4.035  10.186  0.5546 -1.5527  2.5810
   58DOPE    HB 7371   1.092   4.193  10.114  1.0744  1.1589  1.8857
   58DOPE    C2 7372   1.147   4.186  10.329  0.0233 -0.2392 -0.6515
   58DOPE    HS 7373   1.256   4.199  10.348  0.2571 -2.7349 -0.0395
   58DOPE   O21 7374   1.083   4.101  10.425  0.2065  0.1196  0.0706
   58DOPE   C21 7375   1.134   4.099  10.541  0.3071  0.3444  0.0739
   58DOPE   O22 7376   1.214   4.173  10.591  0.9708 -0.8746  0.0649
   58DOPE   C22 7377   1.071   3.977  10.610 -0.0240  0.1032  0.5126
   58DOPE   H2R 7378   1.103   3.891  10.547  0.6419  1.8887 -1.7446
   58DOPE   H2S 7379   0.962   3.985  10.594  0.2015  2.7046 -0.2619
   58DOPE    C3 7380   1.076   4.324  10.326  0.0913 -0.5748  0.6695
   58DOPE    HX 7381   0.970   4.296  10.307  0.5490 -1.9276 -0.0072
   58DOPE    HY 7382   1.116   4.383  10.241  1.3246 -0.7829  1.0782
   58DOPE   O31 7383   1.074   4.394  10.447 -0.7186 -0.2287  0.1203
   58DOPE   C31 7384   1.173   4.473  10.469 -0.6896 -0.4974 -0.6840
   58DOPE   O32 7385   1.266   4.494  10.393 -0.0273  0.2814  0.8486
   58DOPE   C32 7386   1.148   4.563  10.598  0.5307 -0.7062 -0.1063
   58DOPE   H2X 7387   1.203   4.655  10.567  1.0015 -0.7694  0.5260
   58DOPE   H2Y 7388   1.040   4.588  10.594  0.7831  0.3235 -1.1001
   58DOPE   C23 7389   1.100   3.965  10.757 -0.5220 -0.4621  0.1465
   58DOPE   H3R 7390   1.211   3.970  10.771 -0.6246  0.0841  0.8059
   58DOPE   H3S 7391   1.077   3.860  10.785  1.8675 -1.0835  0.0041
   58DOPE   C24 7392   1.049   4.083  10.847  0.1747  0.5087 -0.1076
   58DOPE   H4R 7393   0.942   4.094  10.823 -0.4202 -1.7529  1.2710
   58DOPE   H4S 7394   1.106   4.177  10.829  0.5058  0.2162 -0.6063
   58DOPE   C25 7395   1.062   4.059  10.997  0.4081  0.0204 -0.7855
   58DOPE   H5R 7396   1.017   3.960  11.023  0.8902 -0.1134 -0.4539
   58DOPE   H5S 7397   1.005   4.143  11.042 -0.2413  0.2106 -1.9201
   58DOPE   C26 7398   1.209   4.053  11.060 -0.2345 -0.4901 -0.1884
   58DOPE   H6R 7399   1.246   4.156  11.078  0.6026 -1.1826  2.4375
   58DOPE   H6S 7400   1.277   4.018  10.979 -0.3770  0.0451 -0.5464
   58DOPE   C27 7401   1.212   3.966  11.194 -0.3279 -0.0688  0.2386
   58DOPE   H7R 7402   1.317   3.952  11.226  0.2449  1.5466 -0.8241
   58DOPE   H7S 7403   1.177   3.864  11.168  0.4243  0.1730 -1.9046
   58DOPE   C28 7404   1.138   4.024  11.314  0.1774  0.5596  0.0679
   58DOPE   H8R 7405   1.144   3.947  11.394 -2.0977 -0.6089 -0.8147
   58DOPE   H8S 7406   1.030   4.025  11.288  0.6052  0.6280 -1.8365
   58DOPE   C29 7407   1.190   4.156  11.368 -0.1132 -0.1508 -0.1207
   58DOPE   H9R 7408   1.204   4.223  11.282 -0.6740 -0.8862 -0.8028
   58DOPE  C210 7409   1.237   4.192  11.494  0.2723 -0.2363  0.1823
   58DOPE  H10R 7410   1.277   4.295  11.498  1.7555 -0.8232  1.9291
   58DOPE  C211 7411   1.220   4.112  11.617 -0.4862  0.5861  0.3015
   58DOPE  H11R 7412   1.153   4.026  11.594  1.8183 -1.1371 -0.4770
   58DOPE  H11S 7413   1.170   4.166  11.700  0.4670  1.9698  0.0084
   58DOPE  C212 7414   1.357   4.061  11.664  1.1174  0.5532  0.0046
   58DOPE  H12R 7415   1.429   4.047  11.581  0.0686 -0.1088 -0.8154
   58DOPE  H12S 7416   1.344   3.964  11.716 -0.7099  0.0756 -1.2419
   58DOPE  C213 7417   1.408   4.172  11.755  0.0774 -0.5193 -0.3553
   58DOPE  H13R 7418   1.389   4.271  11.709  1.0460  0.5727  1.4945
   58DOPE  H13S 7419   1.519   4.165  11.752 -0.0100 -2.4555 -3.1320
   58DOPE  C214 7420   1.360   4.167  11.898 -0.2220  0.1352 -0.5052
   58DOPE  H14R 7421   1.250   4.151  11.901 -0.3503  1.0965  0.7436
   58DOPE  H14S 7422   1.381   4.263  11.950 -0.6383  1.0617 -1.9971
   58DOPE  C215 7423   1.425   4.052  11.976  0.2075  0.4784 -0.4209
   58DOPE  H15R 7424   1.533   4.076  11.966  0.8866 -0.8395  2.6934
   58DOPE  H15S 7425   1.423   3.953  11.925  2.8205 -0.2571  0.7240
   58DOPE  C216 7426   1.390   4.044  12.129  0.0644 -0.3530  0.4336
   58DOPE  H16R 7427   1.285   4.009  12.139 -1.1188  2.6518 -0.5627
   58DOPE  H16S 7428   1.406   4.145  12.171  0.6801  0.4194 -1.5244
   58DOPE  C217 7429   1.493   3.957  12.207 -0.5104 -0.2586  0.1155
   58DOPE  H17R 7430   1.593   4.002  12.190 -0.2150 -0.7644  0.5080
   58DOPE  H17S 7431   1.491   3.860  12.153 -3.4182  0.3931 -1.1308
   58DOPE  C218 7432   1.455   3.930  12.355 -0.5984  0.0975  0.0382
   58DOPE  H18R 7433   1.434   4.014  12.424 -1.1942 -1.5240  1.9302
   58DOPE  H18S 7434   1.536   3.863  12.391 -0.9387 -0.9669 -1.0713
   58DOPE  H18T 7435   1.367   3.861  12.355  0.2889 -1.0774  1.1519
   58DOPE   C33 7436   1.197   4.495  10.731  0.5052 -0.7704 -0.0556
   58DOPE   H3X 7437   1.304   4.472  10.712  0.2861 -2.5034  0.6359
   58DOPE   H3Y 7438   1.132   4.407  10.753 -0.4094 -0.4973 -1.5486
   58DOPE   C34 7439   1.154   4.579  10.855 -0.1481 -1.0678  0.4215
   58DOPE   H4X 7440   1.197   4.681  10.848 -0.1885 -1.0609  0.2757
   58DOPE   H4Y 7441   1.044   4.588  10.849 -0.5010 -2.7775  2.6097
   58DOPE   C35 7442   1.206   4.522  10.987  0.3546  0.7365  0.1248
   58DOPE   H5X 7443   1.316   4.529  10.990  0.2886  2.2233 -0.1905
   58DOPE   H5Y 7444   1.170   4.418  11.002  1.6872  0.4202  1.2410
   58DOPE   C36 7445   1.149   4.608  11.101  0.1837  0.4387  0.2233
   58DOPE   H6X 7446   1.038   4.604  11.091  0.0814 -4.4781  0.7613
   58DOPE   H6Y 7447   1.177   4.712  11.073 -1.4907  0.2749 -2.3394
   58DOPE   C37 7448   1.201   4.561  11.239 -0.6518 -0.7609  0.6781
   58DOPE   H7X 7449   1.208   4.451  11.246  0.4529 -0.7487  0.0382
   58DOPE   H7Y 7450   1.306   4.595  11.250 -0.7112 -0.2548 -0.2266
   58DOPE   C38 7451   1.120   4.610  11.359  0.9491  0.4688 -0.2715
   58DOPE   H8X 7452   1.158   4.552  11.446 -1.9954 -3.0958 -1.1045
   58DOPE   H8Y 7453   1.022   4.557  11.362  0.4668  1.4040  1.6451
   58DOPE   C39 7454   1.101   4.756  11.380  0.2681 -0.4505 -0.3377
   58DOPE   H9X 7455   1.039   4.803  11.303  1.1498  0.4737 -0.5038
   58DOPE  C310 7456   1.151   4.838  11.482 -0.0886  0.0852 -0.5195
   58DOPE  H10X 7457   1.091   4.930  11.492  1.9371  1.4246 -0.1336
   58DOPE  C311 7458   1.246   4.790  11.592 -0.3335 -0.0601 -0.0923
   58DOPE  H11X 7459   1.278   4.686  11.571  0.4711  0.4601 -1.6427
   58DOPE  H11Y 7460   1.330   4.860  11.613 -1.5527  1.2781  0.5069
   58DOPE  C312 7461   1.179   4.785  11.733  0.3358  0.2361  0.1953
   58DOPE  H12X 7462   1.245   4.726  11.801 -0.4849  1.2941  1.9651
   58DOPE  H12Y 7463   1.091   4.717  11.735  0.8690 -0.4585  1.3248
   58DOPE  C313 7464   1.151   4.925  11.795 -0.1201 -0.0320 -0.1050
   58DOPE  H13X 7465   1.243   4.986  11.797 -0.6452  0.8113 -0.9272
   58DOPE  H13Y 7466   1.073   4.982  11.739  1.8791  1.5724 -1.3807
   58DOPE  C314 7467   1.101   4.914  11.942 -0.3102 -0.4162 -0.2619
   58DOPE  H14X 7468   1.175   4.853  11.998  0.1215 -0.0114 -0.3788
   58DOPE  H14Y 7469   1.004   4.862  11.943 -1.7623  2.0236 -2.3221
   58DOPE  C315 7470   1.091   5.049  12.025 -0.5291  0.5374 -0.0473
   58DOPE  H15X 7471   1.184   5.105  12.005 -0.1690 -0.6503 -1.9021
   58DOPE  H15Y 7472   1.086   5.027  12.134  0.3022 -0.8707 -0.2648
   58DOPE  C316 7473   0.980   5.150  11.996 -0.7568 -0.2840  0.2419
   58DOPE  H16X 7474   0.878   5.105  12.004 -0.4802 -0.7660  1.2042
   58DOPE  H16Y 7475   0.989   5.172  11.887  1.5335  0.6903  0.5848
   58DOPE  C317 7476   1.004   5.289  12.067  0.5380  0.8514  0.0528
   58DOPE  H17X 7477   1.001   5.274  12.178  1.3773 -0.3702 -0.0661
   58DOPE  H17Y 7478   1.102   5.331  12.038  0.2729  0.6541 -1.1540
   58DOPE  C318 7479   0.892   5.387  12.035 -0.8227 -0.0283  0.0633
   58DOPE  H18X 7480   0.796   5.336  12.057  0.7983 -3.1287  0.6571
   58DOPE  H18Y 7481   0.908   5.482  12.091  1.4947 -0.5370  0.3843
   58DOPE  H18Z 7482   0.905   5.409  11.927 -1.0681  0.3964  0.1207
   59DOPE     N 7483   0.630   0.099   9.265 -0.2443 -0.1076 -0.3424
   59DOPE   HN1 7484   0.600   0.004   9.233 -0.1187 -0.5782  0.8727
   59DOPE   HN2 7485   0.550   0.161   9.288  0.3649  0.8967 -0.8943
   59DOPE   HN3 7486   0.681   0.146   9.188  0.4306  1.1479  0.8143
   59DOPE   C12 7487   0.723   0.090   9.382  0.3165 -0.0667  0.0682
   59DOPE  H12A 7488   0.814   0.038   9.344  0.0387 -0.3876 -0.1635
   59DOPE  H12B 7489   0.668   0.040   9.465 -0.7658  1.3903  0.2642
   59DOPE   C11 7490   0.766   0.234   9.418  0.0936  0.0247  0.5690
   59DOPE  H11A 7491   0.842   0.228   9.499  0.2441 -0.8108  0.3668
   59DOPE  H11B 7492   0.673   0.276   9.463  0.3723  0.1197  1.0657
   59DOPE     P 7493   0.969   0.314   9.260 -0.0331 -0.0079  0.0646
   59DOPE   O13 7494   0.992   0.356   9.122  0.2974 -0.0768 -0.1247
   59DOPE   O14 7495   1.031   0.192   9.298 -0.3107 -0.0701 -0.2978
   59DOPE   O11 7496   1.017   0.434   9.347 -0.1206 -0.1254 -0.3799
   59DOPE   O12 7497   0.817   0.298   9.301 -0.6456 -0.2212  0.6486
   59DOPE    C1 7498   1.151   0.441   9.399  0.0747  0.2013 -0.4792
   59DOPE    HA 7499   1.195   0.532   9.353  0.2623 -0.0809 -0.8530
   59DOPE    HB 7500   1.212   0.354   9.368  0.0566  0.6312 -1.7984
   59DOPE    C2 7501   1.136   0.468   9.548  0.4823 -0.2728 -0.4620
   59DOPE    HS 7502   1.240   0.478   9.586 -0.0598  2.2859  0.5851
   59DOPE   O21 7503   1.067   0.360   9.621 -0.5549  0.4651 -0.3352
   59DOPE   C21 7504   1.138   0.266   9.670  0.7101  0.3695 -0.4668
   59DOPE   O22 7505   1.257   0.255   9.662 -0.1625  0.7039  0.3204
   59DOPE   C22 7506   1.045   0.157   9.729 -0.2714  0.0698 -0.7253
   59DOPE   H2R 7507   1.019   0.094   9.641 -0.0205  0.7411 -1.2867
   59DOPE   H2S 7508   0.953   0.203   9.770  0.7990  1.7424 -0.0851
   59DOPE    C3 7509   1.072   0.604   9.589 -0.4607  0.6823  0.0369
   59DOPE    HX 7510   0.963   0.591   9.574 -0.3105  0.2331 -0.6983
   59DOPE    HY 7511   1.116   0.681   9.522  1.6888 -1.5690 -1.3219
   59DOPE   O31 7512   1.087   0.626   9.733  0.0905 -0.2265 -0.4732
   59DOPE   C31 7513   1.200   0.681   9.769  0.0347 -0.7333 -0.1033
   59DOPE   O32 7514   1.292   0.715   9.694  0.3513 -0.0162  0.1012
   59DOPE   C32 7515   1.207   0.696   9.924 -0.2755 -0.3968 -0.0067
   59DOPE   H2X 7516   1.266   0.787   9.944  2.4430 -1.9854 -0.3520
   59DOPE   H2Y 7517   1.101   0.708   9.958  0.2284  0.7533  1.2427
   59DOPE   C23 7518   1.115   0.052   9.827 -0.2808 -0.4739 -0.5619
   59DOPE   H3R 7519   1.211   0.010   9.791  0.5158 -0.0512  0.9781
   59DOPE   H3S 7520   1.048  -0.031   9.856  0.0732 -0.6143 -0.1328
   59DOPE   C24 7521   1.155   0.118   9.958  0.0987  0.3733 -0.1332
   59DOPE   H4R 7522   1.065   0.178   9.983  0.9121  1.2768  0.6840
   59DOPE   H4S 7523   1.247   0.180   9.944  0.4980 -0.3426 -0.7644
   59DOPE   C25 7524   1.166   0.025  10.075  0.3548 -0.2074  0.7083
   59DOPE   H5R 7525   1.244  -0.054  10.075 -0.6100 -1.1892  0.4649
   59DOPE   H5S 7526   1.074  -0.037  10.074 -0.3232  0.7557  1.3419
   59DOPE   C26 7527   1.174   0.098  10.202 -0.1607 -0.6133  0.1780
   59DOPE   H6R 7528   1.080   0.151  10.227  0.3930  0.6043 -0.2642
   59DOPE   H6S 7529   1.257   0.172  10.197 -1.6975  1.1840  0.3343
   59DOPE   C27 7530   1.206   0.007  10.324  0.5197 -0.1070 -0.2873
   59DOPE   H7R 7531   1.301  -0.043  10.293 -0.0401 -1.6204  0.3137
   59DOPE   H7S 7532   1.124  -0.066  10.339  0.2886  0.3017  0.4415
   59DOPE   C28 7533   1.207   0.078  10.458 -0.4856  0.3852 -0.1124
   59DOPE   H8R 7534   1.276   0.162  10.434 -1.2263  1.2566  0.7459
   59DOPE   H8S 7535   1.256   0.004  10.525 -2.1467 -0.3938  0.3067
   59DOPE   C29 7536   1.077   0.144  10.508 -0.3461 -0.0798  0.0507
   59DOPE   H9R 7537   1.050   0.222  10.435 -0.4794  0.6119  0.8176
   59DOPE  C210 7538   1.019   0.116  10.626  0.4534 -0.6719 -0.1759
   59DOPE  H10R 7539   0.927   0.172  10.648  1.0162 -0.0044  0.5156
   59DOPE  C211 7540   1.048   0.002  10.715  0.1070  0.0968 -0.3132
   59DOPE  H11R 7541   1.065  -0.089  10.654  0.0737 -0.7137  0.8382
   59DOPE  H11S 7542   0.959  -0.019  10.777  0.8247 -0.6061  0.5158
   59DOPE  C212 7543   1.174   0.034  10.805 -0.0421 -0.3809 -0.1600
   59DOPE  H12R 7544   1.175   0.138  10.843 -0.1827  0.0423 -1.2785
   59DOPE  H12S 7545   1.265   0.040  10.743  1.4187 -0.4333  1.8889
   59DOPE  C213 7546   1.197  -0.061  10.924  0.4250  0.3771  0.1354
   59DOPE  H13R 7547   1.294  -0.036  10.970  0.6146 -0.3560  0.1475
   59DOPE  H13S 7548   1.192  -0.162  10.878  0.5560 -0.1826  1.3055
   59DOPE  C214 7549   1.095  -0.034  11.031 -0.4871 -0.6167  0.2751
   59DOPE  H14R 7550   0.999  -0.078  10.997 -0.1835 -0.0416 -1.4675
   59DOPE  H14S 7551   1.075   0.075  11.046 -0.5458 -0.3676 -1.4072
   59DOPE  C215 7552   1.130  -0.107  11.168  0.0588 -1.6598  0.2221
   59DOPE  H15R 7553   1.233  -0.075  11.193 -0.2645  1.5331 -1.9021
   59DOPE  H15S 7554   1.122  -0.217  11.163 -2.2070 -1.7137  2.6904
   59DOPE  C216 7555   1.031  -0.073  11.276  0.0622 -0.1573  0.0791
   59DOPE  H16R 7556   0.932  -0.119  11.257  0.7416 -0.8305 -1.9801
   59DOPE  H16S 7557   1.028   0.037  11.257  0.4483 -0.3181 -0.9293
   59DOPE  C217 7558   1.089  -0.103  11.417 -0.5600  0.1984  0.4465
   59DOPE  H17R 7559   1.187  -0.054  11.428 -0.2552 -0.0531 -0.9761
   59DOPE  H17S 7560   1.106  -0.213  11.418 -0.1001  0.2678  0.2977
   59DOPE  C218 7561   1.009  -0.063  11.543 -0.4789  0.7259  0.1458
   59DOPE  H18R 7562   0.900  -0.082  11.536 -0.2229 -1.7047  1.6542
   59DOPE  H18S 7563   1.016   0.044  11.575 -1.8340  0.5809  1.0298
   59DOPE  H18T 7564   1.050  -0.120  11.630 -0.9478 -1.1167 -0.8009
   59DOPE   C33 7565   1.265   0.566   9.991  0.1817  0.5216  0.1248
   59DOPE   H3X 7566   1.374   0.577  10.006  0.0314  0.2732  1.4812
   59DOPE   H3Y 7567   1.253   0.480   9.922 -3.7904  0.6959  0.3599
   59DOPE   C34 7568   1.197   0.513  10.124  0.2750  0.1725 -0.2970
   59DOPE   H4X 7569   1.088   0.533  10.109 -0.2435 -0.3191  2.3628
   59DOPE   H4Y 7570   1.210   0.403  10.130  1.1006  0.2570 -0.4737
   59DOPE   C35 7571   1.244   0.584  10.248 -0.0240  0.1757 -0.1291
   59DOPE   H5X 7572   1.223   0.690  10.223  0.7311  0.2550 -0.4239
   59DOPE   H5Y 7573   1.353   0.585  10.269 -0.0923  2.0715  0.2892
   59DOPE   C36 7574   1.168   0.544  10.378 -0.4881  0.2000 -0.6972
   59DOPE   H6X 7575   1.188   0.442  10.417  2.2906  0.2161 -1.8257
   59DOPE   H6Y 7576   1.062   0.542  10.347 -0.7052  2.6458 -0.3612
   59DOPE   C37 7577   1.178   0.657  10.485  0.1366  0.5201 -0.0662
   59DOPE   H7X 7578   1.287   0.678  10.490  0.5012 -0.0366 -3.3019
   59DOPE   H7Y 7579   1.129   0.749  10.447 -1.3219 -0.5443 -0.9055
   59DOPE   C38 7580   1.124   0.602  10.614 -0.0322 -0.0699  0.6643
   59DOPE   H8X 7581   1.211   0.553  10.664  0.0817  1.7694  2.4099
   59DOPE   H8Y 7582   1.042   0.528  10.602  0.7784 -0.8429 -0.2531
   59DOPE   C39 7583   1.069   0.715  10.699  0.2192  0.0995 -0.2592
   59DOPE   H9X 7584   1.012   0.792  10.645  0.7930 -0.9774 -2.5206
   59DOPE  C310 7585   1.080   0.728  10.833 -0.1198  0.1771  0.2428
   59DOPE  H10X 7586   1.040   0.823  10.872  2.1206  1.5683 -0.6744
   59DOPE  C311 7587   1.136   0.635  10.932 -0.2101  0.6408 -0.2374
   59DOPE  H11X 7588   1.245   0.612  10.928 -0.6766 -2.8634  2.2142
   59DOPE  H11Y 7589   1.118   0.671  11.036 -0.7635 -1.0860  0.3034
   59DOPE  C312 7590   1.064   0.499  10.934 -0.4989 -0.1095  0.0002
   59DOPE  H12X 7591   1.138   0.429  10.978  0.2030 -0.4242 -1.5989
   59DOPE  H12Y 7592   1.043   0.459  10.833  0.2987 -1.0905  0.2088
   59DOPE  C313 7593   0.946   0.505  11.030 -0.5319  0.2003  0.3750
   59DOPE  H13X 7594   0.961   0.572  11.117 -0.5529 -0.2889  0.7548
   59DOPE  H13Y 7595   0.856   0.545  10.978 -1.0256 -0.7680  0.4697
   59DOPE  C314 7596   0.898   0.367  11.081  0.1699 -0.2057  0.3730
   59DOPE  H14X 7597   0.903   0.294  10.998 -2.5974 -0.2131  0.1367
   59DOPE  H14Y 7598   0.797   0.376  11.126  0.1663 -1.6379  0.6822
   59DOPE  C315 7599   0.970   0.305  11.198 -0.3650 -0.3594  0.6091
   59DOPE  H15X 7600   1.071   0.274  11.163 -0.7043 -0.4705 -0.2932
   59DOPE  H15Y 7601   0.916   0.212  11.224  0.6263 -0.9684  0.5074
   59DOPE  C316 7602   0.974   0.377  11.332 -0.2118 -0.1428  0.8645
   59DOPE  H16X 7603   0.870   0.366  11.368 -0.4494 -1.2925 -0.1001
   59DOPE  H16Y 7604   1.007   0.483  11.333  0.7583 -0.4182  2.8742
   59DOPE  C317 7605   1.072   0.303  11.429  0.1437 -0.1287 -0.2010
   59DOPE  H17X 7606   1.063   0.192  11.425  0.9308 -0.2883  1.3427
   59DOPE  H17Y 7607   1.177   0.326  11.403 -0.2359  0.1589 -1.5436
   59DOPE  C318 7608   1.051   0.362  11.571 -0.4364  0.2706 -0.6712
   59DOPE  H18X 7609   0.954   0.331  11.615 -0.0932  1.9147  1.3660
   59DOPE  H18Y 7610   1.133   0.319  11.633 -0.3606 -0.4337 -1.2357
   59DOPE  H18Z 7611   1.067   0.471  11.576 -0.2549  0.2378 -0.5500
   60DOPE     N 7612   6.373   4.881   9.708 -0.0966 -0.3729  0.4565
   60DOPE   HN1 7613   6.395   4.941   9.791  1.2822  1.1556 -0.9209
   60DOPE   HN2 7614   6.282   4.917   9.673 -1.9766 -3.4058  1.8417
   60DOPE   HN3 7615   6.349   4.786   9.740 -3.4087  0.0173 -0.4963
   60DOPE   C12 7616   6.475   4.861   9.603  0.0616 -0.0841  1.1583
   60DOPE  H12A 7617   6.419   4.812   9.521 -2.3426  1.4689  1.7635
   60DOPE  H12B 7618   6.547   4.784   9.637 -1.1480 -0.5719  2.7685
   60DOPE   C11 7619   6.536   4.991   9.548 -0.6133  0.0387 -0.4592
   60DOPE  H11A 7620   6.459   5.068   9.524 -2.6577 -1.7336  0.0796
   60DOPE  H11B 7621   6.583   4.952   9.455 -1.6102 -2.4325 -0.0005
   60DOPE     P 7622   6.712   5.178   9.600  0.2673 -0.1891 -0.1696
   60DOPE   O13 7623   6.607   5.278   9.565 -0.1976  0.2851  0.2470
   60DOPE   O14 7624   6.808   5.145   9.492  0.0674  0.3191  0.1671
   60DOPE   O11 7625   6.802   5.229   9.720  0.0819  1.0065  0.1384
   60DOPE   O12 7626   6.643   5.039   9.635 -0.0910  0.3536 -0.5951
   60DOPE    C1 7627   6.842   5.127   9.812 -0.7918 -0.6817  0.5799
   60DOPE    HA 7628   6.877   5.034   9.762 -0.2629 -0.2928  0.2201
   60DOPE    HB 7629   6.754   5.122   9.880 -2.7996  2.2752 -1.5047
   60DOPE    C2 7630   6.968   5.172   9.894 -0.3490  0.7875  0.4416
   60DOPE    HS 7631   6.992   5.093   9.968  1.2305 -0.8075 -1.6512
   60DOPE   O21 7632   6.937   5.294   9.951 -0.5176  0.5827 -0.3311
   60DOPE   C21 7633   6.875   5.283  10.073 -0.3682 -0.0367  0.0946
   60DOPE   O22 7634   6.844   5.181  10.134  0.5032 -0.1221 -0.7637
   60DOPE   C22 7635   6.834   5.430  10.090  0.2721  0.1950  0.7041
   60DOPE   H2R 7636   6.759   5.457  10.013  0.3386  0.6883  0.8071
   60DOPE   H2S 7637   6.926   5.489  10.074  1.6059 -2.2687 -1.4263
   60DOPE    C3 7638   7.093   5.192   9.796 -0.6171 -0.1870  0.3467
   60DOPE    HX 7639   7.069   5.271   9.721  2.3595  0.3469 -0.1673
   60DOPE    HY 7640   7.110   5.102   9.734  0.1344  0.8596 -1.0409
   60DOPE   O31 7641   7.214   5.237   9.863  0.6284  0.2286  0.3022
   60DOPE   C31 7642   7.230   5.368   9.872  0.3136 -0.3580  0.4621
   60DOPE   O32 7643   7.149   5.456   9.835 -0.1611  0.0854  0.4436
   60DOPE   C32 7644   7.364   5.405   9.935 -0.2927  0.2373  0.0015
   60DOPE   H2X 7645   7.424   5.313   9.952 -2.4533 -0.9623  1.6192
   60DOPE   H2Y 7646   7.426   5.454   9.857  0.3704 -2.3978 -1.2341
   60DOPE   C23 7647   6.772   5.464  10.234 -0.0754 -0.2191  0.2707
   60DOPE   H3R 7648   6.674   5.414  10.249 -0.0915  0.0768  1.2396
   60DOPE   H3S 7649   6.743   5.572  10.229  0.4276  0.2158  4.0483
   60DOPE   C24 7650   6.869   5.446  10.359  0.6281 -0.7679  0.1798
   60DOPE   H4R 7651   6.942   5.530  10.351  0.3650 -0.3584  1.7023
   60DOPE   H4S 7652   6.926   5.352  10.354  1.1889 -0.4715  0.8981
   60DOPE   C25 7653   6.787   5.466  10.489  0.0743  0.4522  0.2626
   60DOPE   H5R 7654   6.713   5.385  10.507  1.3556 -0.7320  0.3520
   60DOPE   H5S 7655   6.734   5.564  10.480 -2.2697 -0.7731  0.0484
   60DOPE   C26 7656   6.872   5.482  10.612  0.3389  0.9657 -0.9781
   60DOPE   H6R 7657   6.923   5.580  10.603 -1.0411  2.0230  1.8644
   60DOPE   H6S 7658   6.948   5.401  10.614  2.2243  2.6619  0.5788
   60DOPE   C27 7659   6.798   5.489  10.748  0.1169 -0.2912 -0.2473
   60DOPE   H7R 7660   6.719   5.413  10.729  0.1043 -1.5661  3.9038
   60DOPE   H7S 7661   6.759   5.592  10.755 -1.0245 -0.7804  1.0439
   60DOPE   C28 7662   6.883   5.456  10.872  0.1519  0.1931 -0.4159
   60DOPE   H8R 7663   6.938   5.364  10.841 -0.2714 -0.2995  0.2551
   60DOPE   H8S 7664   6.818   5.434  10.960  1.9470  0.4549  1.0448
   60DOPE   C29 7665   6.976   5.572  10.909 -0.3786 -0.4626  0.4131
   60DOPE   H9R 7666   7.046   5.589  10.825 -2.7829  0.9955 -1.4306
   60DOPE  C210 7667   6.990   5.642  11.028 -0.2538  0.2630  0.4745
   60DOPE  H10R 7668   7.067   5.721  11.034 -0.7137  1.1263 -2.8247
   60DOPE  C211 7669   6.918   5.617  11.154 -0.3682  0.1041 -0.3858
   60DOPE  H11R 7670   6.823   5.561  11.141  0.5010 -1.2542 -1.0703
   60DOPE  H11S 7671   6.887   5.714  11.199  2.2327  1.0888 -0.5469
   60DOPE  C212 7672   6.999   5.546  11.266  0.2278 -0.9866 -0.3296
   60DOPE  H12R 7673   7.073   5.481  11.216  1.6404  0.7422 -0.5789
   60DOPE  H12S 7674   6.924   5.483  11.318 -0.3814 -0.6279 -0.7523
   60DOPE  C213 7675   7.076   5.640  11.358  0.6955 -0.4166 -0.3624
   60DOPE  H13R 7676   7.149   5.708  11.308  1.8279 -0.9385  0.5187
   60DOPE  H13S 7677   7.134   5.561  11.411  1.0164  0.0383 -0.0152
   60DOPE  C214 7678   6.991   5.734  11.446 -0.1190  0.1663 -0.3024
   60DOPE  H14R 7679   6.920   5.675  11.507  0.7963 -0.3476  0.2998
   60DOPE  H14S 7680   6.935   5.811  11.389  1.6388  2.0677  0.3897
   60DOPE  C215 7681   7.085   5.821  11.531  0.2906  0.0425  0.2699
   60DOPE  H15R 7682   7.149   5.878  11.461 -0.3667 -0.1392 -0.4905
   60DOPE  H15S 7683   7.140   5.759  11.606 -1.1107 -0.6570  0.7541
   60DOPE  C216 7684   7.000   5.927  11.610 -0.5090  0.5060  0.7127
   60DOPE  H16R 7685   6.930   5.965  11.533 -0.6661  1.7597  1.4486
   60DOPE  H16S 7686   7.067   6.011  11.638  1.4940 -1.2182  1.4090
   60DOPE  C217 7687   6.939   5.869  11.734  0.9363  0.0294  0.2720
   60DOPE  H17R 7688   7.019   5.830  11.800  0.9375 -2.8519 -1.2576
   60DOPE  H17S 7689   6.877   5.778  11.718  2.7099 -1.4874  1.5765
   60DOPE  C218 7690   6.848   5.978  11.804  0.0565  0.0188  0.2839
   60DOPE  H18R 7691   6.793   5.939  11.892  0.6141  1.5297  1.3511
   60DOPE  H18S 7692   6.772   6.011  11.730  0.9864  0.8785 -0.3187
   60DOPE  H18T 7693   6.891   6.075  11.837 -1.0891  0.5565  0.2400
   60DOPE   C33 7694   7.351   5.495  10.065 -0.2602  0.1796 -0.1933
   60DOPE   H3X 7695   7.275   5.574  10.051 -1.5849 -1.0711 -0.2775
   60DOPE   H3Y 7696   7.450   5.540  10.085 -0.4608  1.6887 -2.2805
   60DOPE   C34 7697   7.308   5.411  10.188 -1.0248  0.3206  0.4398
   60DOPE   H4X 7698   7.209   5.364  10.175 -0.9858  0.6488 -1.2586
   60DOPE   H4Y 7699   7.383   5.329  10.197 -1.3033  0.0319  0.1327
   60DOPE   C35 7700   7.302   5.486  10.318 -0.2738  0.1495  0.4757
   60DOPE   H5X 7701   7.220   5.560  10.308 -0.4536 -0.0006  0.8307
   60DOPE   H5Y 7702   7.403   5.528  10.336  0.7834 -1.3375 -1.5849
   60DOPE   C36 7703   7.268   5.397  10.435 -0.0896 -0.2863 -0.5845
   60DOPE   H6X 7704   7.343   5.315  10.444  0.5052  0.3073  0.0284
   60DOPE   H6Y 7705   7.163   5.364  10.428  0.2817 -1.4058 -1.0491
   60DOPE   C37 7706   7.280   5.463  10.567  0.3329  0.0051 -0.6360
   60DOPE   H7X 7707   7.382   5.507  10.570 -0.7032  2.7124 -1.3268
   60DOPE   H7Y 7708   7.216   5.554  10.575 -0.8395 -0.6741 -1.8853
   60DOPE   C38 7709   7.242   5.373  10.685 -0.0152 -0.5992  0.0496
   60DOPE   H8X 7710   7.142   5.329  10.669  0.4703 -1.2406 -1.4482
   60DOPE   H8Y 7711   7.214   5.443  10.766  0.2864  0.3109 -0.6144
   60DOPE   C39 7712   7.357   5.282  10.720 -0.1398 -0.3213  0.0018
   60DOPE   H9X 7713   7.381   5.209  10.642 -0.0479  0.4360 -0.6950
   60DOPE  C310 7714   7.456   5.301  10.809  0.2885 -0.3486  0.7735
   60DOPE  H10X 7715   7.545   5.237  10.810  1.4625  1.0819 -1.9363
   60DOPE  C311 7716   7.452   5.396  10.921  0.0632  0.2232  1.0530
   60DOPE  H11X 7717   7.526   5.478  10.914 -2.7329  2.7811 -1.3400
   60DOPE  H11Y 7718   7.356   5.452  10.919 -0.7029 -1.0535  0.4107
   60DOPE  C312 7719   7.444   5.325  11.058  0.0473 -0.0932  0.4633
   60DOPE  H12X 7720   7.527   5.252  11.074  1.7294  1.0887 -2.1301
   60DOPE  H12Y 7721   7.350   5.266  11.062 -0.8185  1.2815  1.1585
   60DOPE  C313 7722   7.440   5.432  11.167 -0.1736 -0.2712  0.0217
   60DOPE  H13X 7723   7.530   5.497  11.175 -1.7586  1.9001  1.3788
   60DOPE  H13Y 7724   7.358   5.504  11.149 -0.1935  0.2247  1.8527
   60DOPE  C314 7725   7.418   5.364  11.300  0.1602 -0.0525  0.2375
   60DOPE  H14X 7726   7.504   5.296  11.319  0.1288  0.2555  1.5862
   60DOPE  H14Y 7727   7.324   5.306  11.306  1.1355 -1.8633 -1.1249
   60DOPE  C315 7728   7.408   5.468  11.416  0.2519 -0.2026  0.1794
   60DOPE  H15X 7729   7.355   5.561  11.388  1.2457 -0.0554 -1.3243
   60DOPE  H15Y 7730   7.512   5.504  11.428  0.0352 -0.1724  2.4050
   60DOPE  C316 7731   7.356   5.401  11.547 -0.5473  0.1255  0.6713
   60DOPE  H16X 7732   7.424   5.317  11.571 -1.0032  0.1159  2.0128
   60DOPE  H16Y 7733   7.253   5.359  11.540 -0.0521 -0.8675 -2.3767
   60DOPE  C317 7734   7.360   5.490  11.668 -0.1649 -0.6800  0.3161
   60DOPE  H17X 7735   7.457   5.542  11.651 -0.1940 -0.5856  0.4330
   60DOPE  H17Y 7736   7.286   5.571  11.656 -2.7639 -2.9162  0.3649
   60DOPE  C318 7737   7.356   5.422  11.803  0.3182 -0.1043  0.1091
   60DOPE  H18X 7738   7.437   5.349  11.824  0.1196  0.0489  1.5592
   60DOPE  H18Y 7739   7.352   5.504  11.879  1.4580  1.2129 -1.1922
   60DOPE  H18Z 7740   7.263   5.363  11.812  0.5137 -0.9043 -2.4003
   6123SM     N 7741   4.978   3.921  15.318  0.0087 -0.5440  0.3347
   6123SM   C15 7742   4.958   3.916  15.169  0.1834 -0.2568  0.1524
   6123SM  H15A 7743   4.878   3.984  15.142 -0.7548 -0.1185  2.9652
   6123SM  H15B 7744   4.943   3.814  15.135  2.9717 -0.0511 -2.0961
   6123SM  H15C 7745   5.055   3.936  15.125 -0.5567 -0.4687 -1.6803
   6123SM   C14 7746   5.086   3.827  15.353 -0.0242 -0.0996 -0.4807
   6123SM  H14A 7747   5.115   3.838  15.457 -1.2164 -0.8522 -0.0371
   6123SM  H14B 7748   5.173   3.856  15.297  1.4331 -1.3085  1.0477
   6123SM  H14C 7749   5.058   3.723  15.342 -0.4786  0.1432 -1.8061
   6123SM   C13 7750   5.018   4.058  15.360 -0.4340 -0.2634  0.2296
   6123SM  H13A 7751   5.116   4.075  15.319  0.0562 -1.5538  0.8062
   6123SM  H13B 7752   5.024   4.070  15.467 -1.2226  0.1701  0.2300
   6123SM  H13C 7753   4.951   4.128  15.312  0.4863 -1.1074 -2.4956
   6123SM   C12 7754   4.849   3.878  15.382  0.4781  0.2317  0.0068
   6123SM  H12A 7755   4.868   3.880  15.488  0.3167 -1.2615  0.0779
   6123SM  H12B 7756   4.829   3.778  15.349 -0.2761  0.9982 -2.0637
   6123SM   C11 7757   4.726   3.970  15.368  0.0659 -0.8310 -0.4240
   6123SM  H11A 7758   4.755   4.077  15.364  1.7539 -1.2848 -1.4824
   6123SM  H11B 7759   4.656   3.944  15.450 -1.3031 -0.1749 -1.3435
   6123SM     P 7760   4.587   3.796  15.233  0.0953  0.4443  0.0729
   6123SM   O13 7761   4.673   3.688  15.297  0.8917 -0.4132 -0.1859
   6123SM   O14 7762   4.448   3.814  15.293 -0.0589 -0.2590  0.1658
   6123SM   O11 7763   4.561   3.766  15.080  0.4669 -0.5428  0.5329
   6123SM   O12 7764   4.668   3.936  15.244  0.9014 -0.1339 -0.8993
   6123SM   C1S 7765   4.487   3.868  15.011 -0.0783 -0.0466 -0.1183
   6123SM   H1S 7766   4.544   3.964  15.014  1.2031 -0.8002  0.9748
   6123SM   H1T 7767   4.391   3.883  15.065 -0.1038 -2.9070  0.7879
   6123SM    NF 7768   4.380   3.933  14.817  0.5343 -0.1866 -0.2854
   6123SM   HNF 7769   4.281   3.921  14.813  0.0300  1.7049  2.9406
   6123SM   C2S 7770   4.447   3.824  14.871 -0.2742  0.0355 -0.0986
   6123SM   H2S 7771   4.536   3.803  14.807  0.2805 -0.0840  0.6981
   6123SM   C3S 7772   4.365   3.687  14.865  0.3708  0.1773  0.2521
   6123SM   H3S 7773   4.284   3.690  14.940 -0.5558 -0.1957 -0.7179
   6123SM    O3 7774   4.442   3.578  14.924  0.4642 -0.3729  0.1576
   6123SM   HO3 7775   4.502   3.632  14.977 -0.4918  1.7816 -0.8146
   6123SM   C4S 7776   4.329   3.661  14.721 -0.5272  0.0068  0.5761
   6123SM   H4S 7777   4.258   3.733  14.679  0.0753  1.9312  2.6648
   6123SM   C5S 7778   4.400   3.586  14.635  0.0314 -0.3854 -0.7500
   6123SM   H5S 7779   4.497   3.549  14.672 -1.1938 -0.9910  2.1329
   6123SM   C6S 7780   4.373   3.587  14.484 -0.2420  0.0766  0.7217
   6123SM   H6S 7781   4.372   3.485  14.439 -1.4114  0.5038 -0.2673
   6123SM   H6T 7782   4.456   3.651  14.447 -0.4376  0.7886  1.4789
   6123SM   C7S 7783   4.241   3.642  14.424 -0.1731  0.4256 -0.0240
   6123SM   H7S 7784   4.240   3.748  14.456  2.5184  0.6562 -0.4720
   6123SM   H7T 7785   4.156   3.589  14.471  0.2225 -2.4639 -2.2496
   6123SM   C8S 7786   4.230   3.633  14.271  0.7453  0.0342  0.0169
   6123SM   H8S 7787   4.238   3.529  14.233  0.2616  0.0676 -0.1899
   6123SM   H8T 7788   4.318   3.695  14.241 -0.8868  2.0947 -0.7637
   6123SM   C9S 7789   4.101   3.699  14.220 -0.6044 -0.3720  0.6426
   6123SM   H9S 7790   4.081   3.796  14.270  1.1453  0.3553  0.0291
   6123SM   H9T 7791   4.024   3.622  14.242 -3.0144  1.4602 -0.8224
   6123SM  C10S 7792   4.104   3.728  14.066  0.3152 -0.7588 -0.0214
   6123SM  H10S 7793   4.180   3.804  14.037  0.1397 -0.5111  0.1656
   6123SM  H10T 7794   4.001   3.763  14.043  0.8394  0.2577 -0.9076
   6123SM  C11S 7795   4.126   3.597  13.984  0.3005  0.5628  0.4909
   6123SM  H11S 7796   4.049   3.521  14.012  1.8653 -0.8838  0.9893
   6123SM  H11T 7797   4.221   3.559  14.026 -0.0522  1.3927  2.0995
   6123SM  C12S 7798   4.143   3.623  13.832 -0.0545  0.3322 -0.4568
   6123SM  H12S 7799   4.239   3.677  13.819  1.7783 -2.4703  0.5611
   6123SM  H12T 7800   4.065   3.688  13.787  0.6781  0.2934 -1.8313
   6123SM  C13S 7801   4.162   3.498  13.751  0.1829  0.4071 -0.4620
   6123SM  H13S 7802   4.069   3.437  13.743 -0.9555  2.2085 -1.5771
   6123SM  H13T 7803   4.232   3.438  13.813  3.1286  1.0156 -2.9995
   6123SM  C14S 7804   4.210   3.530  13.606 -0.6857  0.0971 -0.3623
   6123SM  H14S 7805   4.269   3.443  13.570  2.2553  1.5324  0.6765
   6123SM  H14T 7806   4.280   3.616  13.615  1.4806 -1.5925 -0.3983
   6123SM  C15S 7807   4.101   3.573  13.511  0.4666  0.1124  0.7107
   6123SM  H15S 7808   4.039   3.653  13.557  1.5317  1.3455  0.0874
   6123SM  H15T 7809   4.040   3.492  13.465  1.0554  0.6636 -1.1694
   6123SM  C16S 7810   4.161   3.636  13.387 -0.6077  0.0127  0.1934
   6123SM  H16S 7811   4.247   3.569  13.364 -0.4497 -0.1771  1.2841
   6123SM  H16T 7812   4.206   3.730  13.426  1.7360 -0.8733 -0.2233
   6123SM  C17S 7813   4.068   3.654  13.269  0.3223 -0.1154 -0.4250
   6123SM  H17S 7814   3.998   3.736  13.296  0.7973  0.2848 -0.3918
   6123SM  H17T 7815   4.011   3.560  13.254  0.0315 -0.2205  1.1055
   6123SM  C18S 7816   4.138   3.679  13.135  1.0559  0.1791 -0.4707
   6123SM  H18S 7817   4.199   3.771  13.147 -0.0988  1.2794 -2.5099
   6123SM  H18T 7818   4.073   3.697  13.047  1.5147 -0.4441 -0.9484
   6123SM  H18U 7819   4.205   3.594  13.109  0.9087 -1.1427  2.9739
   6123SM   C1F 7820   4.443   4.040  14.765 -0.1425 -0.2470  0.1064
   6123SM    OF 7821   4.559   4.047  14.793 -0.2016 -0.0474  0.7884
   6123SM   C2F 7822   4.359   4.137  14.685  0.3181 -0.4748  0.0809
   6123SM   H2F 7823   4.354   4.237  14.732 -2.7496 -0.3480 -0.2683
   6123SM   H2G 7824   4.251   4.109  14.683  0.2018 -0.2739  1.9501
   6123SM   C3F 7825   4.410   4.158  14.539 -0.1302 -0.3299 -0.1616
   6123SM   H3F 7826   4.502   4.217  14.557 -0.4834 -0.1511  1.2317
   6123SM   H3G 7827   4.347   4.236  14.491  1.5775  0.5854 -1.0083
   6123SM   C4F 7828   4.429   4.033  14.449  0.6417 -1.0357  0.4621
   6123SM   H4F 7829   4.349   3.956  14.453  0.6227 -1.0044  0.7104
   6123SM   H4G 7830   4.521   3.984  14.485  0.3981 -1.3562  0.6527
   6123SM   C5F 7831   4.439   4.069  14.297 -0.0421 -0.7582 -0.1534
   6123SM   H5F 7832   4.530   4.133  14.289  0.0147 -0.7488  0.4872
   6123SM   H5G 7833   4.354   4.128  14.258  2.7932  0.8729 -4.6360
   6123SM   C6F 7834   4.466   3.946  14.209  0.5755  1.2476  0.4702
   6123SM   H6F 7835   4.374   3.883  14.201  1.1503  0.4105  0.3454
   6123SM   H6G 7836   4.544   3.882  14.253 -0.5553  0.4540  1.3856
   6123SM   C7F 7837   4.484   3.997  14.061 -0.2293 -0.6544 -0.8017
   6123SM   H7F 7838   4.577   4.055  14.052  0.7916 -2.1173 -0.1433
   6123SM   H7G 7839   4.405   4.065  14.023 -0.6130 -0.2982  0.5723
   6123SM   C8F 7840   4.503   3.883  13.960 -0.1971  0.4975  0.4430
   6123SM   H8F 7841   4.405   3.830  13.950  0.4019 -0.3532 -1.5891
   6123SM   H8G 7842   4.577   3.814  14.006 -0.0570  0.6428  0.4306
   6123SM   C9F 7843   4.548   3.930  13.813 -0.4421  0.9934  0.1360
   6123SM   H9F 7844   4.648   3.977  13.821  0.8218 -1.6858  1.5131
   6123SM   H9G 7845   4.465   3.995  13.778  0.1947  1.6509 -0.1468
   6123SM  C10F 7846   4.552   3.799  13.729  0.0568 -0.0126 -0.7060
   6123SM  H10F 7847   4.461   3.740  13.749  1.0361 -0.9368  1.3084
   6123SM  H10G 7848   4.631   3.730  13.767 -1.8067 -2.1065 -0.4678
   6123SM  C11F 7849   4.561   3.825  13.580 -0.1194  0.2941  0.1584
   6123SM  H11F 7850   4.665   3.859  13.565  0.2832 -1.1792 -0.5583
   6123SM  H11G 7851   4.495   3.910  13.552 -1.4015 -0.6913  0.0610
   6123SM  C12F 7852   4.541   3.693  13.502  0.2312  0.6026 -0.1858
   6123SM  H12F 7853   4.457   3.634  13.544  0.1005  0.4106 -0.7079
   6123SM  H12G 7854   4.631   3.631  13.520 -0.4648 -0.2162  0.5021
   6123SM  C13F 7855   4.529   3.708  13.352  0.2357  0.8733  0.4251
   6123SM  H13F 7856   4.457   3.789  13.327 -2.5048 -1.2742  0.8841
   6123SM  H13G 7857   4.486   3.613  13.315  3.4918 -0.6673  0.2766
   6123SM  C14F 7858   4.656   3.733  13.273 -0.1095 -0.9539 -0.8035
   6123SM  H14F 7859   4.723   3.646  13.290  1.4145  0.5238  1.0883
   6123SM  H14G 7860   4.708   3.821  13.315  2.2890 -2.1786 -1.0409
   6123SM  C15F 7861   4.631   3.741  13.123  0.0164  0.3869 -0.0652
   6123SM  H15F 7862   4.720   3.780  13.069 -1.2094  0.2656 -2.3009
   6123SM  H15G 7863   4.554   3.819  13.102 -0.8919 -0.5637 -0.3712
   6123SM  C16F 7864   4.599   3.612  13.055 -0.3349  0.2408 -0.7905
   6123SM  H16F 7865   4.513   3.559  13.103 -3.0035  3.7666 -1.3279
   6123SM  H16G 7866   4.687   3.546  13.070 -1.1250 -0.5702  0.5691
   6123SM  C17F 7867   4.562   3.640  12.911 -0.1136 -0.2291 -0.1206
   6123SM  H17F 7868   4.586   3.549  12.852  2.7592  0.3117  0.0944
   6123SM  H17G 7869   4.631   3.718  12.873 -0.0097 -0.7869 -1.0883
   6123SM  C18F 7870   4.427   3.704  12.883  0.0843  0.4371 -0.6553
   6123SM  H18F 7871   4.410   3.770  12.971 -0.1219  0.6797 -0.8744
   6123SM  H18G 7872   4.349   3.626  12.885 -0.9539  1.4550  0.4260
   6123SM  C19F 7873   4.412   3.785  12.749 -0.7325  0.1238 -0.2428
   6123SM  H19F 7874   4.451   3.710  12.675  0.8324 -0.4681  1.1067
   6123SM  H19G 7875   4.482   3.871  12.744 -1.7682  1.0417  0.6339
   6123SM  C20F 7876   4.278   3.846  12.713 -1.0549  0.8454 -0.9630
   6123SM  H20F 7877   4.240   3.910  12.795 -1.6220 -0.3468 -0.2692
   6123SM  H20G 7878   4.212   3.757  12.707 -1.0511  0.7299  0.4375
   6123SM  C21F 7879   4.251   3.927  12.585 -0.2966  0.1674  0.3176
   6123SM  H21F 7880   4.283   3.869  12.496  0.1947  0.5438  0.2388
   6123SM  H21G 7881   4.315   4.018  12.588 -1.1905  0.8415 -0.5839
   6123SM  C22F 7882   4.105   3.948  12.551 -0.2331  0.0673  0.3120
   6123SM  H22F 7883   4.049   3.853  12.537 -1.2019  0.9793 -2.6108
   6123SM  H22G 7884   4.105   3.990  12.448 -0.6887  2.2413  1.1528
   6123SM  C23F 7885   4.033   4.048  12.643  0.0028 -0.1379 -0.3472
   6123SM  H23F 7886   4.027   4.013  12.748  0.6524 -0.8591 -0.5442
   6123SM  H23G 7887   3.935   4.077  12.600 -1.2279 -0.7800  1.9025
   6123SM  H23H 7888   4.091   4.142  12.630  0.9341 -0.8502 -1.5185
   6223SM     N 7889   5.018   2.361  15.215  0.5923  0.8092  0.5731
   6223SM   C15 7890   4.896   2.381  15.301  0.0777 -0.0607 -0.2642
   6223SM  H15A 7891   4.888   2.319  15.389  0.6560  0.2968  0.0475
   6223SM  H15B 7892   4.825   2.342  15.231  2.1918 -1.5261 -1.7115
   6223SM  H15C 7893   4.878   2.483  15.332 -0.1702  0.0527 -0.7667
   6223SM   C14 7894   5.133   2.420  15.299 -0.2746 -0.0967  0.0512
   6223SM  H14A 7895   5.221   2.421  15.236 -0.8923  1.0037 -0.8290
   6223SM  H14B 7896   5.151   2.363  15.389 -1.4906  0.8836  0.9444
   6223SM  H14C 7897   5.117   2.525  15.318  3.4783  0.3508  1.5999
   6223SM   C13 7898   5.042   2.218  15.184  0.6487 -0.0033 -0.1077
   6223SM  H13A 7899   4.960   2.164  15.140  1.6398 -1.0613 -0.6893
   6223SM  H13B 7900   5.063   2.159  15.272 -3.0609 -1.6497 -0.1603
   6223SM  H13C 7901   5.123   2.208  15.113 -0.7408  1.2663 -1.9631
   6223SM   C12 7902   5.006   2.435  15.087 -0.9243 -0.5863 -0.3614
   6223SM  H12A 7903   5.094   2.417  15.026 -1.6849 -0.9415 -1.3855
   6223SM  H12B 7904   5.005   2.540  15.110 -2.4429  0.1544 -3.3026
   6223SM   C11 7905   4.881   2.401  15.001 -0.4236 -0.5729 -0.2789
   6223SM  H11A 7906   4.855   2.293  14.997 -1.7404 -0.2996  0.2011
   6223SM  H11B 7907   4.897   2.436  14.897  1.1783 -0.6863 -0.0980
   6223SM     P 7908   4.751   2.629  15.047 -0.2027  0.0452  0.1545
   6223SM   O13 7909   4.651   2.677  15.145 -0.4638  0.2489 -0.1902
   6223SM   O14 7910   4.890   2.681  15.059 -0.1724  0.3059  0.0168
   6223SM   O11 7911   4.697   2.656  14.904  0.5168 -0.3750 -0.6966
   6223SM   O12 7912   4.762   2.465  15.052 -0.3448  0.0006 -0.0609
   6223SM   C1S 7913   4.613   2.564  14.843 -0.6255  0.0474 -0.5960
   6223SM   H1S 7914   4.515   2.555  14.895 -1.9262 -2.3161 -3.2048
   6223SM   H1T 7915   4.650   2.461  14.829  0.4515 -0.1793  2.9948
   6223SM    NF 7916   4.450   2.570  14.644 -0.3704  0.3919 -0.5763
   6223SM   HNF 7917   4.468   2.501  14.575 -0.0938 -0.2144  0.0828
   6223SM   C2S 7918   4.575   2.621  14.704 -0.0998  0.0185  0.8855
   6223SM   H2S 7919   4.563   2.728  14.730 -1.3181  0.0880  0.1426
   6223SM   C3S 7920   4.699   2.611  14.610  0.3689 -0.5629  0.1816
   6223SM   H3S 7921   4.717   2.503  14.588 -0.0393 -0.2412 -1.8548
   6223SM    O3 7922   4.826   2.664  14.654 -0.0700  0.3147  0.5479
   6223SM   HO3 7923   4.807   2.702  14.740 -3.0981 -1.7530  0.9466
   6223SM   C4S 7924   4.667   2.675  14.478  0.4894 -0.2586 -0.0458
   6223SM   H4S 7925   4.638   2.609  14.394  0.9789  0.4180 -0.7633
   6223SM   C5S 7926   4.688   2.808  14.457 -0.3141  0.2831  0.2110
   6223SM   H5S 7927   4.731   2.875  14.533 -0.2395  0.4795 -0.0046
   6223SM   C6S 7928   4.658   2.880  14.332  0.0711  0.2542 -0.2426
   6223SM   H6S 7929   4.730   2.965  14.323 -0.1536  0.4295 -0.4050
   6223SM   H6T 7930   4.560   2.934  14.338 -0.1309 -0.1012 -0.3481
   6223SM   C7S 7931   4.642   2.790  14.210  0.3584  0.0417 -0.1189
   6223SM   H7S 7932   4.555   2.726  14.237 -1.4271  2.6419  0.5922
   6223SM   H7T 7933   4.731   2.728  14.185 -0.2880 -1.2398  0.6144
   6223SM   C8S 7934   4.621   2.873  14.088  0.1289  0.7349  1.2206
   6223SM   H8S 7935   4.696   2.955  14.087 -0.1023  1.0635 -2.1766
   6223SM   H8T 7936   4.522   2.923  14.097 -0.5029  0.0314 -1.0404
   6223SM   C9S 7937   4.608   2.793  13.961 -0.1305 -0.4302  0.4892
   6223SM   H9S 7938   4.527   2.717  13.965  0.1902 -0.9163 -1.2614
   6223SM   H9T 7939   4.705   2.744  13.938  0.9712  1.0247  1.7890
   6223SM  C10S 7940   4.581   2.879  13.834  0.1468 -0.2152  0.5389
   6223SM  H10S 7941   4.665   2.950  13.820 -1.1109  1.3266  0.5522
   6223SM  H10T 7942   4.484   2.933  13.841  0.3191  0.4088 -1.3356
   6223SM  C11S 7943   4.570   2.783  13.711  0.1667  0.4788  0.0978
   6223SM  H11S 7944   4.488   2.711  13.729  1.3142 -0.8803  0.0462
   6223SM  H11T 7945   4.670   2.734  13.708  0.1119  0.1035 -5.0221
   6223SM  C12S 7946   4.552   2.864  13.582  0.7528 -0.1806 -0.4659
   6223SM  H12S 7947   4.621   2.951  13.590  0.7078  0.0678 -2.3922
   6223SM  H12T 7948   4.450   2.907  13.584  0.7872 -0.0230  2.0609
   6223SM  C13S 7949   4.575   2.785  13.455  0.2022 -0.0155  0.0162
   6223SM  H13S 7950   4.504   2.700  13.449 -1.1760  1.1272 -0.5433
   6223SM  H13T 7951   4.678   2.745  13.461 -0.5356 -1.9700  0.7167
   6223SM  C14S 7952   4.537   2.862  13.332 -0.0837 -0.2748  0.3436
   6223SM  H14S 7953   4.591   2.959  13.326  1.2380 -1.0334 -0.4949
   6223SM  H14T 7954   4.428   2.883  13.339 -0.5650 -2.7607  1.2458
   6223SM  C15S 7955   4.540   2.785  13.199  0.3046  0.3538  0.1187
   6223SM  H15S 7956   4.458   2.711  13.209  1.7697 -1.5480 -1.2117
   6223SM  H15T 7957   4.643   2.748  13.184 -0.0123 -1.2849  1.6492
   6223SM  C16S 7958   4.500   2.882  13.082  0.8815  0.3913  0.4346
   6223SM  H16S 7959   4.584   2.954  13.071 -0.9410  2.7976  1.4426
   6223SM  H16T 7960   4.411   2.944  13.106  0.8070  0.6171 -0.4098
   6223SM  C17S 7961   4.482   2.802  12.950 -0.5142 -1.0631 -0.6316
   6223SM  H17S 7962   4.416   2.717  12.975  0.2234 -0.5100  4.0674
   6223SM  H17T 7963   4.584   2.765  12.926 -0.3558  0.1054 -1.8812
   6223SM  C18S 7964   4.444   2.891  12.831 -0.4449 -0.7243  0.5233
   6223SM  H18S 7965   4.506   2.983  12.827 -0.8479 -0.4879 -0.7060
   6223SM  H18T 7966   4.339   2.926  12.839  0.3026  1.8737 -0.1969
   6223SM  H18U 7967   4.450   2.827  12.740 -0.5571  0.6063 -0.4355
   6223SM   C1F 7968   4.325   2.609  14.677 -0.1764  0.0536 -0.4279
   6223SM    OF 7969   4.310   2.700  14.760  0.8124  0.2960 -0.3611
   6223SM   C2F 7970   4.204   2.534  14.611  0.8699  0.0241  0.5327
   6223SM   H2F 7971   4.144   2.464  14.673  0.6579 -0.1784  0.1045
   6223SM   H2G 7972   4.244   2.484  14.520  0.7372 -0.0008  0.4874
   6223SM   C3F 7973   4.097   2.632  14.557  0.0295  0.7467  0.4274
   6223SM   H3F 7974   4.074   2.717  14.625  0.0849 -0.3746  1.8892
   6223SM   H3G 7975   4.006   2.573  14.534  0.1726  0.5857  0.2749
   6223SM   C4F 7976   4.145   2.695  14.420 -0.2421  0.2663  0.2557
   6223SM   H4F 7977   4.245   2.737  14.443  1.0365 -2.0803 -0.6726
   6223SM   H4G 7978   4.075   2.778  14.398  0.4098  0.6564 -0.3947
   6223SM   C5F 7979   4.133   2.601  14.297  0.2125 -0.5664  0.7197
   6223SM   H5F 7980   4.038   2.547  14.280  0.1747  0.3750 -2.6507
   6223SM   H5G 7981   4.217   2.529  14.311 -0.1249 -0.7691  1.8364
   6223SM   C6F 7982   4.163   2.676  14.169  0.0191 -0.3225  0.1105
   6223SM   H6F 7983   4.266   2.716  14.158 -0.5858  0.9979 -1.2002
   6223SM   H6G 7984   4.090   2.760  14.168 -1.0682 -1.1225  2.9916
   6223SM   C7F 7985   4.145   2.588  14.049 -0.0398 -0.2793 -0.1128
   6223SM   H7F 7986   4.049   2.535  14.068 -0.4159  0.6778  0.7319
   6223SM   H7G 7987   4.215   2.502  14.047 -0.0573 -0.3019 -2.3705
   6223SM   C8F 7988   4.157   2.673  13.917 -0.3353  0.3086  0.0735
   6223SM   H8F 7989   4.252   2.730  13.918  0.3917 -0.8575  1.0258
   6223SM   H8G 7990   4.082   2.754  13.923  1.9092  2.4267  2.6981
   6223SM   C9F 7991   4.138   2.604  13.775 -0.0780  0.2611 -0.1492
   6223SM   H9F 7992   4.038   2.558  13.782 -0.4525  1.1783  0.8021
   6223SM   H9G 7993   4.215   2.528  13.748  0.1471  0.7175 -0.8221
   6223SM  C10F 7994   4.149   2.699  13.654 -0.1622  0.0584  0.3373
   6223SM  H10F 7995   4.248   2.748  13.662 -0.3743  0.8266 -1.3246
   6223SM  H10G 7996   4.083   2.787  13.670 -0.2432 -0.1982  1.5210
   6223SM  C11F 7997   4.139   2.631  13.514  0.4223 -0.1159 -0.1348
   6223SM  H11F 7998   4.040   2.579  13.519  0.8529 -0.8476  2.0150
   6223SM  H11G 7999   4.212   2.547  13.510  1.3231  0.5326  1.7941
   6223SM  C12F 8000   4.130   2.719  13.395  0.2512 -0.1304 -0.2832
   6223SM  H12F 8001   4.232   2.762  13.382  0.5590 -1.2603 -1.8909
   6223SM  H12G 8002   4.066   2.809  13.408 -0.8892 -1.0308  0.6073
   6223SM  C13F 8003   4.075   2.656  13.274  0.3927 -0.1156 -0.1408
   6223SM  H13F 8004   3.972   2.616  13.279 -1.3490  3.9297  0.2076
   6223SM  H13G 8005   4.141   2.568  13.258  0.3795 -0.0422 -0.6361
   6223SM  C14F 8006   4.089   2.740  13.142 -0.4923 -0.0129 -0.0983
   6223SM  H14F 8007   4.194   2.770  13.125 -0.6871  2.4709  2.3189
   6223SM  H14G 8008   4.027   2.831  13.158 -0.7550  0.3191 -2.6480
   6223SM  C15F 8009   4.039   2.667  13.020 -0.5406 -0.4517  0.1328
   6223SM  H15F 8010   3.933   2.635  13.033  0.0139 -2.5991 -0.1441
   6223SM  H15G 8011   4.098   2.576  12.993  0.4681  0.6298 -1.4758
   6223SM  C16F 8012   4.045   2.771  12.905 -0.0119 -0.6634 -0.5799
   6223SM  H16F 8013   4.152   2.793  12.888 -0.1287  0.1288 -0.3115
   6223SM  H16G 8014   4.010   2.872  12.937  1.6709 -0.0062 -0.7481
   6223SM  C17F 8015   3.979   2.732  12.779 -0.3788  1.2174  0.0802
   6223SM  H17F 8016   3.877   2.722  12.822  0.2685  0.7710  1.5484
   6223SM  H17G 8017   4.018   2.633  12.749 -1.6297  0.3400  1.2284
   6223SM  C18F 8018   3.991   2.841  12.675  0.2112  0.4136 -0.5932
   6223SM  H18F 8019   4.093   2.839  12.631  1.1992  2.4115  1.3883
   6223SM  H18G 8020   3.968   2.942  12.716  1.6531  0.9003 -0.9044
   6223SM  C19F 8021   3.894   2.810  12.558 -0.5441 -0.0742  0.2311
   6223SM  H19F 8022   3.798   2.764  12.590 -0.5702 -0.5407 -0.4916
   6223SM  H19G 8023   3.935   2.729  12.493 -0.4335 -0.2954  0.5753
   6223SM  C20F 8024   3.851   2.945  12.492 -0.4295 -0.3129  0.0230
   6223SM  H20F 8025   3.810   2.999  12.581 -0.1675  2.5945 -1.5018
   6223SM  H20G 8026   3.765   2.932  12.424 -1.2522  1.9978  0.5207
   6223SM  C21F 8027   3.963   3.036  12.424 -0.1464 -0.2480  0.0415
   6223SM  H21F 8028   3.996   3.008  12.321 -0.7401 -1.8047  0.2558
   6223SM  H21G 8029   4.057   3.035  12.483  1.0805  1.1150 -1.7419
   6223SM  C22F 8030   3.929   3.187  12.423  0.0243  0.3178 -0.4265
   6223SM  H22F 8031   3.855   3.217  12.346  1.1024  1.1748 -1.1721
   6223SM  H22G 8032   4.023   3.231  12.382 -0.5313  0.2515 -1.8185
   6223SM  C23F 8033   3.880   3.257  12.556  0.2248 -0.2963 -0.3244
   6223SM  H23F 8034   3.772   3.238  12.571  0.2493 -0.0356  0.1913
   6223SM  H23G 8035   3.901   3.366  12.549 -0.0066 -0.2909 -0.9637
   6223SM  H23H 8036   3.935   3.214  12.642  1.3353 -0.6672 -1.1891
   6323SM     N 8037   4.679   4.539  15.239  0.2100 -0.1390  0.2021
   6323SM   C15 8038   4.762   4.450  15.328  0.0964  0.0028 -0.4576
   6323SM  H15A 8039   4.721   4.450  15.428 -1.5954  0.5771 -1.1279
   6323SM  H15B 8040   4.867   4.477  15.336  0.1433 -0.5562  1.0526
   6323SM  H15C 8041   4.771   4.350  15.289  0.8252 -1.3454  2.8216
   6323SM   C14 8042   4.541   4.480  15.221 -0.1927 -0.4457 -0.6071
   6323SM  H14A 8043   4.497   4.527  15.134 -1.5972  0.7373  0.6792
   6323SM  H14B 8044   4.489   4.498  15.314 -0.9981  1.8084 -1.4223
   6323SM  H14C 8045   4.558   4.376  15.199 -1.0008 -0.3914 -1.5392
   6323SM   C13 8046   4.671   4.678  15.300  0.4966  0.2612 -0.1466
   6323SM  H13A 8047   4.605   4.744  15.244 -2.2019 -2.0529  0.0796
   6323SM  H13B 8048   4.764   4.733  15.303 -0.2858  1.5645  1.2578
   6323SM  H13C 8049   4.639   4.672  15.403 -0.4220 -0.7370 -0.4660
   6323SM   C12 8050   4.741   4.548  15.105 -1.4944 -0.1237  0.3762
   6323SM  H12A 8051   4.752   4.446  15.070  0.0729 -0.0375  0.5477
   6323SM  H12B 8052   4.843   4.581  15.121 -1.2528 -0.7887  0.2526
   6323SM   C11 8053   4.671   4.622  14.987 -0.2645 -0.4872 -0.0081
   6323SM  H11A 8054   4.595   4.552  14.946  1.3368 -2.9413  1.0253
   6323SM  H11B 8055   4.750   4.629  14.910  0.5037 -2.7045  0.5355
   6323SM     P 8056   4.476   4.791  14.953 -0.1374  0.0942 -0.4384
   6323SM   O13 8057   4.369   4.715  15.030 -0.4308  0.6221 -0.0009
   6323SM   O14 8058   4.464   4.940  14.947  0.4270 -0.0443  0.2466
   6323SM   O11 8059   4.479   4.727  14.803 -0.4932 -0.0397 -0.0568
   6323SM   O12 8060   4.622   4.756  15.011  0.7489  0.4634  0.1860
   6323SM   C1S 8061   4.588   4.779  14.711 -0.6522  0.0936 -0.2490
   6323SM   H1S 8062   4.675   4.822  14.765 -2.3188  2.5961  0.6561
   6323SM   H1T 8063   4.539   4.841  14.632  0.8679  1.4585 -0.1857
   6323SM    NF 8064   4.751   4.722  14.536 -0.4258 -0.0444  0.0424
   6323SM   HNF 8065   4.738   4.741  14.439 -1.0281 -1.5477 -0.2049
   6323SM   C2S 8066   4.642   4.667  14.612 -0.0668  0.8321  0.4344
   6323SM   H2S 8067   4.673   4.576  14.667 -1.6396 -0.5651 -0.8612
   6323SM   C3S 8068   4.524   4.632  14.508 -0.2226  0.5754 -0.5685
   6323SM   H3S 8069   4.499   4.731  14.465  0.9373  1.2370  0.2298
   6323SM    O3 8070   4.410   4.577  14.578  0.2729 -0.1646 -0.6666
   6323SM   HO3 8071   4.412   4.591  14.673 -1.4855 -0.4435 -0.5636
   6323SM   C4S 8072   4.564   4.526  14.406 -0.6345 -0.0444  0.2015
   6323SM   H4S 8073   4.529   4.427  14.441  0.6406 -0.5906 -0.0097
   6323SM   C5S 8074   4.625   4.539  14.292 -0.4458  0.3498 -0.1927
   6323SM   H5S 8075   4.630   4.640  14.250 -1.9393  0.7469  0.5266
   6323SM   C6S 8076   4.626   4.425  14.188  0.7447 -0.1898 -0.0208
   6323SM   H6S 8077   4.556   4.344  14.219 -0.0630 -0.1336 -1.5561
   6323SM   H6T 8078   4.728   4.381  14.188  0.0209 -1.9494  0.4578
   6323SM   C7S 8079   4.572   4.486  14.060  0.0553  0.6879  0.3007
   6323SM   H7S 8080   4.641   4.567  14.028  1.4517  0.9920  3.6111
   6323SM   H7T 8081   4.471   4.533  14.069 -0.1338  0.3864 -0.2337
   6323SM   C8S 8082   4.557   4.387  13.941  0.3307 -0.0878  0.2348
   6323SM   H8S 8083   4.472   4.425  13.880  0.5466 -0.9751 -0.6544
   6323SM   H8T 8084   4.549   4.287  13.989 -1.9539 -0.4350 -0.7570
   6323SM   C9S 8085   4.667   4.391  13.841 -0.1816  0.1599  0.2706
   6323SM   H9S 8086   4.768   4.402  13.885  0.9081 -0.1687 -1.9937
   6323SM   H9T 8087   4.661   4.484  13.780 -1.5438 -0.8258 -1.1813
   6323SM  C10S 8088   4.661   4.270  13.745 -0.1922  0.0004 -0.0195
   6323SM  H10S 8089   4.559   4.259  13.703  0.1961 -1.4565 -0.6390
   6323SM  H10T 8090   4.686   4.183  13.810  1.9081 -0.0047 -0.7498
   6323SM  C11S 8091   4.765   4.281  13.636 -0.0835 -0.1778 -0.3936
   6323SM  H11S 8092   4.859   4.301  13.692 -0.2929  0.8685 -0.4035
   6323SM  H11T 8093   4.735   4.373  13.582  0.4235  0.1299 -0.1603
   6323SM  C12S 8094   4.775   4.164  13.544  0.1688  0.8203  1.1965
   6323SM  H12S 8095   4.682   4.165  13.482  0.1163  1.8976  1.2623
   6323SM  H12T 8096   4.781   4.070  13.602  0.6680  0.7281  1.0018
   6323SM  C13S 8097   4.899   4.164  13.453 -0.4480  0.9101 -0.4249
   6323SM  H13S 8098   4.994   4.172  13.510 -1.1578  1.7265  0.6998
   6323SM  H13T 8099   4.879   4.255  13.392 -1.2196  0.6177 -0.6304
   6323SM  C14S 8100   4.903   4.051  13.350 -0.0504 -0.9695 -0.0765
   6323SM  H14S 8101   4.799   4.035  13.314 -1.4764  5.0050  0.4219
   6323SM  H14T 8102   4.935   3.958  13.402 -0.0188 -0.4556  0.8552
   6323SM  C15S 8103   5.014   4.066  13.240  0.5815 -0.1374 -0.3660
   6323SM  H15S 8104   5.107   4.043  13.297  1.2755 -0.3527 -1.5576
   6323SM  H15T 8105   5.015   4.163  13.187 -0.7829  0.6913  1.0451
   6323SM  C16S 8106   5.012   3.954  13.136 -0.4946 -0.0162  0.2261
   6323SM  H16S 8107   4.916   3.959  13.081  0.6203 -2.8330 -2.2610
   6323SM  H16T 8108   5.022   3.855  13.185  0.6866 -0.3117 -0.5679
   6323SM  C17S 8109   5.132   3.968  13.038 -0.1213  0.6945  0.5137
   6323SM  H17S 8110   5.133   4.063  12.981 -2.0464  1.0794  1.0764
   6323SM  H17T 8111   5.146   3.880  12.971  0.3801  1.0158  0.1871
   6323SM  C18S 8112   5.270   3.965  13.110  0.0500 -0.2809 -0.0588
   6323SM  H18S 8113   5.278   3.876  13.176  0.1970 -0.2852 -0.0832
   6323SM  H18T 8114   5.278   4.055  13.174  1.7989 -0.2538 -0.2759
   6323SM  H18U 8115   5.347   3.961  13.030 -0.0884 -2.2414 -0.1577
   6323SM   C1F 8116   4.871   4.739  14.581  0.5915 -0.0816  1.2336
   6323SM    OF 8117   4.908   4.701  14.690 -0.3027 -0.2117  0.4694
   6323SM   C2F 8118   4.962   4.821  14.495 -0.7647  0.6133 -0.2338
   6323SM   H2F 8119   5.003   4.910  14.546 -1.0189 -0.2354  1.5177
   6323SM   H2G 8120   4.915   4.859  14.402  0.5089  0.7501 -0.8490
   6323SM   C3F 8121   5.094   4.738  14.464 -0.2106 -0.1932 -0.5472
   6323SM   H3F 8122   5.134   4.688  14.555 -0.2267 -0.0616 -0.4650
   6323SM   H3G 8123   5.170   4.812  14.429 -0.2695 -0.3474 -1.0020
   6323SM   C4F 8124   5.061   4.616  14.367  0.2164  0.0780 -0.4041
   6323SM   H4F 8125   5.037   4.664  14.270 -0.7770  1.7489  0.6328
   6323SM   H4G 8126   4.974   4.555  14.399 -0.0197  0.5278 -0.1764
   6323SM   C5F 8127   5.195   4.531  14.354 -0.2189  0.4005 -0.3329
   6323SM   H5F 8128   5.212   4.478  14.450  1.5654  1.9276  0.2586
   6323SM   H5G 8129   5.276   4.604  14.338  0.6298 -0.6703 -1.0740
   6323SM   C6F 8130   5.198   4.421  14.236  0.8314 -0.4149  0.5249
   6323SM   H6F 8131   5.179   4.477  14.142  1.1187  3.4531  2.5639
   6323SM   H6G 8132   5.115   4.347  14.244 -0.0919  0.2175 -2.2120
   6323SM   C7F 8133   5.331   4.348  14.226 -1.0822  0.1776  0.5846
   6323SM   H7F 8134   5.359   4.297  14.321  1.8139 -1.3510 -0.9295
   6323SM   H7G 8135   5.403   4.428  14.198 -1.1016 -0.2002 -0.5741
   6323SM   C8F 8136   5.335   4.242  14.117 -0.0556 -0.0766 -0.4867
   6323SM   H8F 8137   5.288   4.283  14.025  1.3240 -1.4649 -1.8848
   6323SM   H8G 8138   5.272   4.158  14.151 -0.9336  1.5132  2.0879
   6323SM   C9F 8139   5.480   4.195  14.099  0.4001  0.2634 -0.0447
   6323SM   H9F 8140   5.497   4.129  14.187 -1.1417  0.3935  0.3675
   6323SM   H9G 8141   5.560   4.272  14.112  0.3024  0.5365 -0.9618
   6323SM  C10F 8142   5.506   4.097  13.980  0.1163 -0.4941  0.4723
   6323SM  H10F 8143   5.421   4.025  13.981 -0.4742  0.0818 -1.5385
   6323SM  H10G 8144   5.608   4.055  13.994  0.2363  0.1090  1.4426
   6323SM  C11F 8145   5.509   4.164  13.842 -0.4073  0.5218 -0.3631
   6323SM  H11F 8146   5.568   4.255  13.866  0.8596  0.3304 -2.5323
   6323SM  H11G 8147   5.405   4.199  13.821 -0.9507  0.2133  1.5920
   6323SM  C12F 8148   5.564   4.065  13.734  0.1713 -0.1056 -0.4148
   6323SM  H12F 8149   5.492   3.981  13.745 -3.6090  2.9762  0.7210
   6323SM  H12G 8150   5.668   4.041  13.762 -0.7765 -1.3615  2.4668
   6323SM  C13F 8151   5.555   4.120  13.587  0.0833 -0.0687  0.4799
   6323SM  H13F 8152   5.617   4.213  13.584 -0.1256  0.0542 -0.4942
   6323SM  H13G 8153   5.446   4.131  13.570 -0.3021 -0.3213  2.5513
   6323SM  C14F 8154   5.605   4.011  13.483  0.2731 -0.4021 -0.1891
   6323SM  H14F 8155   5.519   3.940  13.484 -1.7270  1.7612 -2.6549
   6323SM  H14G 8156   5.695   3.960  13.522  1.1196  0.9041 -0.3703
   6323SM  C15F 8157   5.607   4.059  13.337  0.3701 -0.7381 -0.0408
   6323SM  H15F 8158   5.668   4.152  13.336 -1.2210  0.3424  0.4352
   6323SM  H15G 8159   5.507   4.091  13.300  1.3549  1.9346 -0.6859
   6323SM  C16F 8160   5.655   3.967  13.228 -0.1270 -0.7304  0.2962
   6323SM  H16F 8161   5.586   3.880  13.222 -1.3557  0.2585 -0.2907
   6323SM  H16G 8162   5.757   3.932  13.256  0.5489  0.0262 -1.1184
   6323SM  C17F 8163   5.669   4.031  13.090 -0.6883  0.1533 -0.4657
   6323SM  H17F 8164   5.735   4.118  13.109 -1.4756  0.4087  1.2150
   6323SM  H17G 8165   5.576   4.079  13.053 -0.4057  0.6418 -0.5371
   6323SM  C18F 8166   5.727   3.945  12.985  0.0488  0.1315  0.0801
   6323SM  H18F 8167   5.652   3.865  12.966  0.4047 -0.3940  0.8543
   6323SM  H18G 8168   5.810   3.894  13.039  0.5941  0.8278 -0.1015
   6323SM  C19F 8169   5.777   4.005  12.856  0.0672  0.1348  0.1557
   6323SM  H19F 8170   5.849   4.087  12.874  1.0594 -0.4801 -0.8683
   6323SM  H19G 8171   5.686   4.040  12.802  1.5783  0.5233 -2.3049
   6323SM  C20F 8172   5.848   3.900  12.771 -0.4369 -0.0776 -0.3833
   6323SM  H20F 8173   5.776   3.824  12.734 -0.7022 -0.9570  1.7938
   6323SM  H20G 8174   5.923   3.851  12.836 -2.8399 -1.0746  1.7967
   6323SM  C21F 8175   5.917   3.957  12.647  0.4384 -0.5162  0.2502
   6323SM  H21F 8176   5.974   4.044  12.685  0.8487  0.0168 -1.4952
   6323SM  H21G 8177   5.836   3.992  12.580 -0.7789 -3.1087  0.2477
   6323SM  C22F 8178   6.018   3.853  12.604 -0.2496  0.4592 -0.2301
   6323SM  H22F 8179   5.970   3.753  12.601 -0.4566  0.5918 -1.9587
   6323SM  H22G 8180   6.100   3.837  12.677  0.4711  0.0368 -1.1080
   6323SM  C23F 8181   6.098   3.889  12.472  0.0767  0.3470  0.5511
   6323SM  H23F 8182   6.038   3.918  12.383  2.5435  2.5095 -0.5612
   6323SM  H23G 8183   6.169   3.806  12.453  0.0091  0.6209 -1.0799
   6323SM  H23H 8184   6.149   3.987  12.487 -1.8358  1.3304  0.9010
   6423SM     N 8185   6.282   2.758  15.519  0.0532  0.1673  0.0802
   6423SM   C15 8186   6.407   2.678  15.550 -0.3286 -0.6608 -0.6076
   6423SM  H15A 8187   6.494   2.724  15.505 -0.2872 -0.1973 -0.0662
   6423SM  H15B 8188   6.407   2.586  15.493 -1.3842  0.4980 -2.5613
   6423SM  H15C 8189   6.425   2.661  15.655  0.9518 -0.9705 -0.8625
   6423SM   C14 8190   6.176   2.671  15.572 -0.6086 -0.3500  0.5860
   6423SM  H14A 8191   6.188   2.668  15.679  1.5084  1.6924  0.4880
   6423SM  H14B 8192   6.184   2.570  15.535 -0.1078 -0.8661  2.0626
   6423SM  H14C 8193   6.088   2.725  15.540 -0.3669  0.3154  1.0156
   6423SM   C13 8194   6.283   2.885  15.592  0.4342  0.4496 -0.1200
   6423SM  H13A 8195   6.198   2.947  15.570  0.6177  0.5855 -0.4729
   6423SM  H13B 8196   6.366   2.949  15.566  1.2441 -1.0808 -1.5006
   6423SM  H13C 8197   6.293   2.876  15.699  2.2461 -2.3735 -0.4197
   6423SM   C12 8198   6.259   2.782  15.372 -1.2686 -0.3410  0.2487
   6423SM  H12A 8199   6.161   2.827  15.367 -1.1724  0.3272  3.0620
   6423SM  H12B 8200   6.250   2.684  15.327 -0.4460 -0.5003  0.4246
   6423SM   C11 8201   6.356   2.865  15.290 -0.3640 -0.7115  0.0477
   6423SM  H11A 8202   6.459   2.851  15.328 -0.6483 -2.7516  0.1875
   6423SM  H11B 8203   6.327   2.971  15.305 -0.7944 -0.4508 -2.2691
   6423SM     P 8204   6.415   2.715  15.083  0.0592 -0.4981  0.4421
   6423SM   O13 8205   6.550   2.712  15.140  0.0804  0.0422  0.0630
   6423SM   O14 8206   6.340   2.588  15.082 -0.2818  0.6903 -0.4234
   6423SM   O11 8207   6.422   2.784  14.938 -0.2476  0.2131  0.8041
   6423SM   O12 8208   6.329   2.831  15.153 -0.7967 -0.0761 -0.7895
   6423SM   C1S 8209   6.298   2.828  14.871 -0.8007 -0.4819 -0.2434
   6423SM   H1S 8210   6.288   2.938  14.875 -1.8779 -0.6110  1.2503
   6423SM   H1T 8211   6.209   2.780  14.918 -0.9499  0.9845  1.0210
   6423SM    NF 8212   6.206   2.846  14.635  0.1887  0.3274 -0.9838
   6423SM   HNF 8213   6.130   2.792  14.599 -0.1309  0.1200 -0.0538
   6423SM   C2S 8214   6.316   2.797  14.719 -0.5727 -0.2206  0.9543
   6423SM   H2S 8215   6.404   2.861  14.694  1.9165 -2.7753  2.5563
   6423SM   C3S 8216   6.356   2.646  14.686  0.3376  0.3752  0.1546
   6423SM   H3S 8217   6.266   2.595  14.728 -1.7644  2.2498 -1.7301
   6423SM    O3 8218   6.473   2.590  14.756  0.3758 -0.2747  0.1185
   6423SM   HO3 8219   6.488   2.649  14.831  1.2931 -0.0058 -0.2678
   6423SM   C4S 8220   6.357   2.624  14.546 -0.1594  0.0977  0.1500
   6423SM   H4S 8221   6.261   2.584  14.510  0.5027 -1.3482 -0.0760
   6423SM   C5S 8222   6.462   2.629  14.460 -0.0950  0.0513  0.1786
   6423SM   H5S 8223   6.557   2.655  14.509  1.7467 -1.4541 -2.3153
   6423SM   C6S 8224   6.452   2.597  14.310  0.3899 -0.2440 -0.0159
   6423SM   H6S 8225   6.360   2.539  14.289  0.5083 -2.3794  4.3025
   6423SM   H6T 8226   6.539   2.539  14.272  0.6001  1.2402 -1.9241
   6423SM   C7S 8227   6.458   2.735  14.244 -1.0243 -0.0918  1.2585
   6423SM   H7S 8228   6.551   2.793  14.260 -0.4007 -0.6690 -0.0558
   6423SM   H7T 8229   6.366   2.793  14.266  0.6461  2.5165  1.7530
   6423SM   C8S 8230   6.463   2.719  14.080  0.0460 -0.3942 -0.6390
   6423SM   H8S 8231   6.383   2.648  14.049  1.2745 -2.1442 -0.0270
   6423SM   H8T 8232   6.559   2.666  14.061  1.8577  2.9420 -1.4851
   6423SM   C9S 8233   6.470   2.853  14.010  0.2238  0.2835  0.3232
   6423SM   H9S 8234   6.566   2.891  14.051  2.2849 -2.8260 -1.2595
   6423SM   H9T 8235   6.390   2.916  14.054 -0.2819  1.5094 -2.1557
   6423SM  C10S 8236   6.477   2.853  13.856  0.0794  0.4646 -0.3759
   6423SM  H10S 8237   6.392   2.913  13.816  0.4396 -0.1783 -2.2186
   6423SM  H10T 8238   6.485   2.750  13.814  0.7439 -1.0331  3.0724
   6423SM  C11S 8239   6.600   2.925  13.800  0.2982 -0.0626  0.1395
   6423SM  H11S 8240   6.692   2.870  13.826 -0.2172 -0.4318  1.2581
   6423SM  H11T 8241   6.605   3.023  13.852  1.0276  0.7763 -1.4343
   6423SM  C12S 8242   6.594   2.944  13.650 -0.2272 -0.4467  0.0733
   6423SM  H12S 8243   6.672   3.018  13.624  3.2442 -3.5708  0.7332
   6423SM  H12T 8244   6.496   2.991  13.627  0.4798  0.2243 -1.7123
   6423SM  C13S 8245   6.613   2.819  13.569 -0.6205  0.4355 -0.0081
   6423SM  H13S 8246   6.547   2.736  13.600  1.5802 -0.7011  1.9888
   6423SM  H13T 8247   6.719   2.795  13.594 -0.9454 -2.0624 -0.7933
   6423SM  C14S 8248   6.602   2.849  13.421  0.5774 -0.3027  0.1844
   6423SM  H14S 8249   6.668   2.927  13.380 -0.0850 -0.4134 -1.1562
   6423SM  H14T 8250   6.494   2.870  13.406  0.0070 -0.2141  3.5694
   6423SM  C15S 8251   6.653   2.725  13.341 -0.0020  0.2945  0.3314
   6423SM  H15S 8252   6.597   2.647  13.398 -0.2838 -1.1127 -1.7875
   6423SM  H15T 8253   6.761   2.710  13.360 -0.3267 -1.5385  0.9924
   6423SM  C16S 8254   6.625   2.728  13.191 -0.0344 -0.0179 -0.7190
   6423SM  H16S 8255   6.671   2.811  13.134  0.6322 -0.5672 -0.9975
   6423SM  H16T 8256   6.515   2.727  13.176 -0.4702 -0.4945  2.0037
   6423SM  C17S 8257   6.673   2.607  13.117 -0.1963 -0.3187 -0.4177
   6423SM  H17S 8258   6.610   2.524  13.155 -0.9036 -0.0900 -1.0597
   6423SM  H17T 8259   6.780   2.583  13.134  0.3237  0.3723 -2.4680
   6423SM  C18S 8260   6.631   2.618  12.973  0.0777 -0.7989 -0.3028
   6423SM  H18S 8261   6.674   2.540  12.906  0.0677  0.3476 -1.6761
   6423SM  H18T 8262   6.656   2.718  12.932 -0.4562 -1.0813 -1.3553
   6423SM  H18U 8263   6.520   2.615  12.971 -0.0551  2.0594 -1.4188
   6423SM   C1F 8264   6.185   2.976  14.625  0.4050 -0.1412  1.0675
   6423SM    OF 8265   6.267   3.056  14.666  0.6849 -0.3174 -0.2716
   6423SM   C2F 8266   6.051   3.011  14.567  0.6842  0.0781 -0.4095
   6423SM   H2F 8267   6.017   3.107  14.612 -2.0675 -0.7454 -0.5542
   6423SM   H2G 8268   5.982   2.926  14.586  0.1299  0.4399 -0.7628
   6423SM   C3F 8269   6.075   3.022  14.414 -0.7715 -0.1872  0.7056
   6423SM   H3F 8270   5.977   3.051  14.371  0.6620 -0.3434 -3.0138
   6423SM   H3G 8271   6.110   2.924  14.375  3.3140 -0.1717  3.6367
   6423SM   C4F 8272   6.178   3.126  14.358  0.3814 -0.2471  0.6527
   6423SM   H4F 8273   6.276   3.098  14.401 -0.0628 -2.5693  0.3213
   6423SM   H4G 8274   6.157   3.227  14.399 -0.7095  0.1645 -0.8346
   6423SM   C5F 8275   6.172   3.123  14.210  0.3939  0.3085 -0.0257
   6423SM   H5F 8276   6.089   3.189  14.179  0.3464 -0.2891 -1.2310
   6423SM   H5G 8277   6.141   3.025  14.169 -1.9208  1.6767 -1.7362
   6423SM   C6F 8278   6.294   3.173  14.132 -0.1441  0.5004 -0.1388
   6423SM   H6F 8279   6.377   3.099  14.144  0.8957  1.6409 -0.0243
   6423SM   H6G 8280   6.326   3.274  14.166 -0.6163  0.5448  0.1747
   6423SM   C7F 8281   6.263   3.181  13.988 -0.2561 -0.4336  0.5146
   6423SM   H7F 8282   6.177   3.247  13.964 -0.1720  0.1216  1.6627
   6423SM   H7G 8283   6.241   3.077  13.953 -1.4103 -0.0010 -0.1058
   6423SM   C8F 8284   6.377   3.240  13.899  0.1864  0.2636 -1.0550
   6423SM   H8F 8285   6.467   3.177  13.920 -1.1438 -1.1419  0.8661
   6423SM   H8G 8286   6.403   3.342  13.933  1.3555 -0.2868 -0.2235
   6423SM   C9F 8287   6.347   3.245  13.759 -0.4283  0.2224 -0.0755
   6423SM   H9F 8288   6.274   3.327  13.739 -0.6893  0.4723  1.7161
   6423SM   H9G 8289   6.299   3.153  13.720 -1.3163  0.4513  0.4689
   6423SM  C10F 8290   6.467   3.272  13.662 -0.3085  0.2917 -0.0496
   6423SM  H10F 8291   6.539   3.188  13.676  0.9221  1.5258  1.3828
   6423SM  H10G 8292   6.520   3.365  13.692 -0.0453 -0.5467  2.3442
   6423SM  C11F 8293   6.418   3.284  13.516  0.2172  0.2058  0.2704
   6423SM  H11F 8294   6.390   3.391  13.503 -1.7964 -0.2457  0.5267
   6423SM  H11G 8295   6.333   3.216  13.494  0.3620 -0.2869  1.2133
   6423SM  C12F 8296   6.534   3.242  13.419 -0.1566  0.4541 -0.0262
   6423SM  H12F 8297   6.546   3.132  13.407  2.0419  0.7790 -1.2093
   6423SM  H12G 8298   6.630   3.293  13.439  1.4608 -2.4950  0.1913
   6423SM  C13F 8299   6.499   3.303  13.283 -0.1427  0.1084  0.4965
   6423SM  H13F 8300   6.572   3.296  13.200 -1.6187 -0.5351 -0.8015
   6423SM  H13G 8301   6.473   3.408  13.307 -0.3582  0.1289  0.1856
   6423SM  C14F 8302   6.377   3.235  13.212  0.0759 -0.1651  0.5058
   6423SM  H14F 8303   6.343   3.301  13.128 -1.8809 -0.9805  0.6029
   6423SM  H14G 8304   6.296   3.220  13.285  1.0998 -2.0106  1.3258
   6423SM  C15F 8305   6.403   3.095  13.151 -0.2411 -0.6372 -0.0182
   6423SM  H15F 8306   6.430   3.020  13.229  2.0305  0.4742  0.3604
   6423SM  H15G 8307   6.484   3.106  13.076 -0.4646  0.8531 -0.0642
   6423SM  C16F 8308   6.272   3.057  13.071 -0.2616  0.7308 -0.3823
   6423SM  H16F 8309   6.277   3.108  12.973  0.6379  0.2325 -0.6154
   6423SM  H16G 8310   6.182   3.079  13.131 -1.4028 -0.4177 -1.6147
   6423SM  C17F 8311   6.276   2.906  13.046 -0.0200  0.2945 -0.2338
   6423SM  H17F 8312   6.292   2.857  13.144  1.9585 -3.0927 -2.0356
   6423SM  H17G 8313   6.361   2.880  12.979 -1.0507 -2.0771 -0.7348
   6423SM  C18F 8314   6.137   2.869  12.982 -0.3879  0.3000 -0.2837
   6423SM  H18F 8315   6.128   2.906  12.878 -1.3445  0.4298 -0.1629
   6423SM  H18G 8316   6.057   2.917  13.043  0.1508 -0.3060  0.9285
   6423SM  C19F 8317   6.112   2.714  12.972  0.5298 -0.0480  0.1624
   6423SM  H19F 8318   6.127   2.675  13.075 -0.7265  0.0158  0.3900
   6423SM  H19G 8319   6.190   2.675  12.903 -1.5976 -2.1168 -1.2355
   6423SM  C20F 8320   5.977   2.673  12.913  0.5351  0.1479  0.0743
   6423SM  H20F 8321   5.993   2.688  12.804 -3.0523  1.8835 -0.3691
   6423SM  H20G 8322   5.891   2.738  12.941  0.2976  0.2048 -0.7592
   6423SM  C21F 8323   5.943   2.518  12.929 -0.1912 -0.0005  0.2285
   6423SM  H21F 8324   6.030   2.466  12.884 -0.4172 -0.1248 -0.0637
   6423SM  H21G 8325   5.846   2.497  12.880 -0.0589 -1.5840  0.5865
   6423SM  C22F 8326   5.934   2.480  13.074 -0.1438 -0.2234  0.2074
   6423SM  H22F 8327   5.860   2.546  13.125  0.1405  1.5862 -1.6032
   6423SM  H22G 8328   6.028   2.484  13.133 -1.7667 -0.3303  3.0060
   6423SM  C23F 8329   5.885   2.334  13.097 -0.1439 -0.0119  0.1413
   6423SM  H23F 8330   5.962   2.270  13.050 -0.9881 -1.4252  0.6294
   6423SM  H23G 8331   5.795   2.320  13.034 -0.0717  1.6485 -0.4001
   6423SM  H23H 8332   5.872   2.294  13.199 -1.3145 -0.2246 -0.0737
   6523SM     N 8333   6.251   4.522  15.716 -0.6484 -0.4796  0.4786
   6523SM   C15 8334   6.178   4.600  15.817  0.3497 -0.7327 -0.0622
   6523SM  H15A 8335   6.082   4.632  15.780 -0.8516 -0.2761  3.1904
   6523SM  H15B 8336   6.238   4.688  15.835  1.5608 -1.2350 -1.4164
   6523SM  H15C 8337   6.172   4.554  15.914  1.7335  0.3021  0.5463
   6523SM   C14 8338   6.364   4.473  15.794  0.4307  0.7095 -0.2705
   6523SM  H14A 8339   6.324   4.405  15.869 -1.1047 -0.4900 -2.0808
   6523SM  H14B 8340   6.423   4.555  15.833 -0.7447  1.2160  0.5135
   6523SM  H14C 8341   6.433   4.412  15.738  0.5179 -1.5811  2.0964
   6523SM   C13 8342   6.166   4.412  15.661 -0.1795 -0.0685 -0.2814
   6523SM  H13A 8343   6.147   4.335  15.734 -0.2414 -2.8231 -2.9934
   6523SM  H13B 8344   6.224   4.361  15.586  1.8865 -0.1971  1.3221
   6523SM  H13C 8345   6.082   4.458  15.610 -1.1032 -1.5137 -0.0954
   6523SM   C12 8346   6.295   4.598  15.596 -0.0702 -0.4246  0.0770
   6523SM  H12A 8347   6.345   4.690  15.624 -0.0687 -0.3535 -0.1522
   6523SM  H12B 8348   6.209   4.642  15.549 -1.2074 -0.9236  1.6115
   6523SM   C11 8349   6.372   4.521  15.483  0.8205  0.5211  0.1136
   6523SM  H11A 8350   6.442   4.453  15.537 -1.1530  0.6743  3.0860
   6523SM  H11B 8351   6.434   4.591  15.423  0.4495  0.1922 -0.6685
   6523SM     P 8352   6.170   4.541  15.306 -0.2388  0.0051  0.6641
   6523SM   O13 8353   6.094   4.445  15.222  0.0472 -0.9925  0.0972
   6523SM   O14 8354   6.095   4.628  15.395  0.0862  0.1117 -0.4186
   6523SM   O11 8355   6.264   4.630  15.215  0.5343  0.0466  0.4128
   6523SM   O12 8356   6.281   4.457  15.389 -1.3314  0.0922 -0.5703
   6523SM   C1S 8357   6.333   4.572  15.105  0.3134  0.4718 -0.1649
   6523SM   H1S 8358   6.343   4.461  15.106 -1.3002  0.2964  0.3061
   6523SM   H1T 8359   6.436   4.612  15.097  0.7331 -0.1936  1.4798
   6523SM    NF 8360   6.344   4.568  14.862 -0.2590 -0.7717  0.9158
   6523SM   HNF 8361   6.414   4.629  14.826 -1.6303  1.0794  1.2466
   6523SM   C2S 8362   6.269   4.622  14.969 -0.0744  0.1622 -0.5813
   6523SM   H2S 8363   6.166   4.580  14.966 -0.7374  1.6862 -0.1894
   6523SM   C3S 8364   6.261   4.776  14.961  0.1689  0.4756  0.7024
   6523SM   H3S 8365   6.365   4.817  14.960 -0.2195  1.5065  1.3549
   6523SM    O3 8366   6.198   4.839  15.067  0.3686 -0.3043 -0.5066
   6523SM   HO3 8367   6.191   4.766  15.129  0.9311 -1.0748 -1.3180
   6523SM   C4S 8368   6.194   4.821  14.830 -0.0675 -0.7656  0.2897
   6523SM   H4S 8369   6.262   4.821  14.744 -1.1896 -0.1462 -0.6283
   6523SM   C5S 8370   6.060   4.828  14.799 -0.4089  0.2335 -0.3385
   6523SM   H5S 8371   5.991   4.803  14.882 -0.3879 -0.8682 -0.6357
   6523SM   C6S 8372   5.999   4.852  14.664  0.2368 -0.0896  0.5109
   6523SM   H6S 8373   5.965   4.958  14.654  0.5073  0.1260  1.7008
   6523SM   H6T 8374   5.907   4.791  14.672 -0.4074  1.0765  2.6666
   6523SM   C7S 8375   6.069   4.795  14.536 -0.4007  0.0700 -0.2873
   6523SM   H7S 8376   6.163   4.855  14.532 -0.1271 -0.1108  1.9946
   6523SM   H7T 8377   6.009   4.822  14.447  0.9323 -2.0886 -1.9429
   6523SM   C8S 8378   6.104   4.647  14.535 -0.4120 -0.1000 -0.0928
   6523SM   H8S 8379   6.009   4.597  14.504 -0.9696  1.0360 -0.2513
   6523SM   H8T 8380   6.142   4.621  14.636  0.9628 -0.2046 -0.6127
   6523SM   C9S 8381   6.219   4.623  14.439 -0.0174  0.3487  0.3222
   6523SM   H9S 8382   6.246   4.515  14.434  1.4534  0.7589 -0.9753
   6523SM   H9T 8383   6.310   4.677  14.472 -0.5499  0.7533  1.1723
   6523SM  C10S 8384   6.187   4.665  14.297  0.3807 -0.3342 -0.6001
   6523SM  H10S 8385   6.223   4.768  14.276  0.8274 -0.0459  1.3466
   6523SM  H10T 8386   6.077   4.659  14.283  0.5521 -0.5790 -1.9446
   6523SM  C11S 8387   6.246   4.571  14.190  0.1213 -0.5173  0.4867
   6523SM  H11S 8388   6.215   4.469  14.222  0.6758 -0.2352  2.0101
   6523SM  H11T 8389   6.357   4.578  14.188  0.2497 -1.6008  2.1128
   6523SM  C12S 8390   6.171   4.595  14.057 -0.5760  0.3646 -0.1650
   6523SM  H12S 8391   6.185   4.704  14.037  0.1373  0.6432  1.6551
   6523SM  H12T 8392   6.064   4.567  14.066 -0.3502 -0.4556  0.0314
   6523SM  C13S 8393   6.230   4.508  13.948  0.1128  0.2376 -1.3087
   6523SM  H13S 8394   6.209   4.400  13.964 -1.6609  0.5373 -1.3601
   6523SM  H13T 8395   6.341   4.519  13.947  0.0268  1.9092  0.5334
   6523SM  C14S 8396   6.160   4.537  13.819 -0.2847  0.7255  0.4257
   6523SM  H14S 8397   6.154   4.643  13.785  1.1152  1.2460  1.6818
   6523SM  H14T 8398   6.060   4.489  13.825  0.4418 -0.8677  0.2418
   6523SM  C15S 8399   6.234   4.455  13.707 -0.0739  0.0130 -0.3278
   6523SM  H15S 8400   6.246   4.350  13.741 -1.0300  0.6144  2.0787
   6523SM  H15T 8401   6.332   4.505  13.694 -0.3685  0.9018  0.7142
   6523SM  C16S 8402   6.165   4.452  13.570  0.2619  0.4075 -0.2885
   6523SM  H16S 8403   6.135   4.551  13.529  0.1703  0.6442  0.3327
   6523SM  H16T 8404   6.081   4.381  13.580  2.0462 -1.7785  0.1866
   6523SM  C17S 8405   6.266   4.387  13.477 -0.0077 -0.1010  0.2064
   6523SM  H17S 8406   6.308   4.297  13.526 -0.1114 -0.0693  0.3538
   6523SM  H17T 8407   6.350   4.456  13.452  0.2434 -1.3901 -3.0258
   6523SM  C18S 8408   6.198   4.363  13.331 -0.2413  0.7227  0.6325
   6523SM  H18S 8409   6.271   4.308  13.268 -1.2067  0.1848 -0.0285
   6523SM  H18T 8410   6.167   4.464  13.297  0.3287 -0.0437 -2.3964
   6523SM  H18U 8411   6.113   4.292  13.338  0.1513  0.0471 -1.0722
   6523SM   C1F 8412   6.344   4.437  14.831 -0.7036  0.7659  0.2906
   6523SM    OF 8413   6.260   4.361  14.879  0.0571  0.4079  0.2172
   6523SM   C2F 8414   6.449   4.384  14.732  0.0205 -0.2690  0.6400
   6523SM   H2F 8415   6.532   4.341  14.792 -1.0465 -0.8341  1.7539
   6523SM   H2G 8416   6.475   4.474  14.671  2.6506  0.4594  2.6446
   6523SM   C3F 8417   6.375   4.287  14.634  0.0230 -0.3748 -0.0034
   6523SM   H3F 8418   6.297   4.344  14.579  0.3514  0.3402  0.2665
   6523SM   H3G 8419   6.323   4.208  14.693  0.5324  0.9272  2.2982
   6523SM   C4F 8420   6.455   4.234  14.520 -1.2609  0.4091 -0.0931
   6523SM   H4F 8421   6.529   4.158  14.554 -0.1001  1.2599 -0.6373
   6523SM   H4G 8422   6.512   4.316  14.472  0.5676  0.4987  2.0662
   6523SM   C5F 8423   6.372   4.166  14.421 -0.0371 -1.0310  0.5963
   6523SM   H5F 8424   6.276   4.220  14.405 -0.4848 -1.6106  1.2289
   6523SM   H5G 8425   6.334   4.072  14.466  1.2090 -1.8351  0.0248
   6523SM   C6F 8426   6.444   4.149  14.287  0.5518  0.2831  0.6121
   6523SM   H6F 8427   6.528   4.078  14.304  1.8991  1.7042  0.0904
   6523SM   H6G 8428   6.477   4.249  14.252 -2.4163  2.0597  2.4999
   6523SM   C7F 8429   6.344   4.111  14.176  0.4670 -0.2747  0.6052
   6523SM   H7F 8430   6.276   4.198  14.161  1.3661  0.3360 -0.0520
   6523SM   H7G 8431   6.280   4.027  14.211  0.9739 -1.7557 -1.7753
   6523SM   C8F 8432   6.411   4.080  14.036 -0.2262 -0.9591 -0.6467
   6523SM   H8F 8433   6.328   4.069  13.964 -2.0954  1.4419  0.9721
   6523SM   H8G 8434   6.471   3.988  14.052 -1.9853 -1.7670  2.0591
   6523SM   C9F 8435   6.513   4.187  13.988  0.1132 -0.0596  0.4663
   6523SM   H9F 8436   6.602   4.211  14.052  0.3267  2.8188 -0.7513
   6523SM   H9G 8437   6.458   4.281  13.965  3.2619  2.2059  1.4304
   6523SM  C10F 8438   6.571   4.167  13.848  0.1511  0.1196  0.6796
   6523SM  H10F 8439   6.482   4.176  13.783  0.3809  0.3230  0.3923
   6523SM  H10G 8440   6.618   4.068  13.827  2.3280  0.6967  2.4428
   6523SM  C11F 8441   6.673   4.272  13.803 -0.8131 -0.4169 -0.9558
   6523SM  H11F 8442   6.749   4.228  13.736 -1.7148 -1.6969 -1.1888
   6523SM  H11G 8443   6.741   4.319  13.877 -0.1266  1.2656 -2.5626
   6523SM  C12F 8444   6.605   4.394  13.735 -0.5241  0.5116 -0.5073
   6523SM  H12F 8445   6.549   4.454  13.809  2.0447  1.9767  0.3728
   6523SM  H12G 8446   6.547   4.358  13.647  1.9919 -1.0891 -1.6125
   6523SM  C13F 8447   6.714   4.485  13.680 -0.0455 -0.6564 -0.0092
   6523SM  H13F 8448   6.807   4.484  13.742  0.7278  0.7727 -1.0997
   6523SM  H13G 8449   6.675   4.588  13.675 -0.9171 -1.0211 -0.8210
   6523SM  C14F 8450   6.757   4.434  13.542 -0.3353  0.3490 -1.1011
   6523SM  H14F 8451   6.771   4.325  13.532 -0.3037  0.3357 -0.9166
   6523SM  H14G 8452   6.844   4.496  13.514  0.1253 -0.4672 -1.4886
   6523SM  C15F 8453   6.660   4.467  13.433 -0.6775 -0.1377 -0.5606
   6523SM  H15F 8454   6.641   4.577  13.430  0.2756  0.0418 -0.4009
   6523SM  H15G 8455   6.565   4.412  13.448 -0.0319 -1.0182  0.4572
   6523SM  C16F 8456   6.707   4.433  13.287 -0.0880 -0.0895 -0.3279
   6523SM  H16F 8457   6.743   4.329  13.272 -2.3079 -0.7087 -1.8417
   6523SM  H16G 8458   6.802   4.488  13.270  1.8484 -2.7214  1.2604
   6523SM  C17F 8459   6.599   4.472  13.182  0.3193 -0.3506  0.4042
   6523SM  H17F 8460   6.578   4.581  13.183  1.0161 -0.2115  0.3710
   6523SM  H17G 8461   6.498   4.425  13.193 -0.9700  2.1220 -0.1325
   6523SM  C18F 8462   6.650   4.452  13.046  0.2175  0.1937  0.3180
   6523SM  H18F 8463   6.724   4.369  13.046  0.2195  0.1925 -0.3388
   6523SM  H18G 8464   6.704   4.545  13.017  0.1243  0.5497  1.2330
   6523SM  C19F 8465   6.523   4.426  12.958 -0.6176  0.3734  0.7240
   6523SM  H19F 8466   6.445   4.503  12.971  0.4450  1.9983 -1.7228
   6523SM  H19G 8467   6.477   4.328  12.983  0.4864 -0.2910  0.2546
   6523SM  C20F 8468   6.567   4.402  12.814  0.2877  0.5214 -0.0770
   6523SM  H20F 8469   6.627   4.309  12.808 -0.8513 -0.3684  1.4773
   6523SM  H20G 8470   6.628   4.488  12.782  0.1184  0.6660 -0.0135
   6523SM  C21F 8471   6.455   4.397  12.713 -0.0821  0.1137  0.6030
   6523SM  H21F 8472   6.395   4.490  12.717 -0.3889 -0.1161  1.6670
   6523SM  H21G 8473   6.383   4.322  12.752  1.7713 -2.2593 -0.2532
   6523SM  C22F 8474   6.484   4.356  12.568 -0.4503 -0.4262  0.0689
   6523SM  H22F 8475   6.567   4.282  12.579 -0.9261 -0.8338  1.0961
   6523SM  H22G 8476   6.535   4.433  12.506 -2.5071  1.1120  0.1880
   6523SM  C23F 8477   6.362   4.296  12.502 -0.2955  0.3707  0.5111
   6523SM  H23F 8478   6.285   4.374  12.484 -0.8139 -0.4445 -0.9193
   6523SM  H23G 8479   6.306   4.217  12.557  0.6478  0.1270  1.1610
   6523SM  H23H 8480   6.401   4.250  12.409  0.1110 -0.8996  1.2868
   6623SM     N 8481   4.001   2.460  15.115 -0.3237  0.0762  0.0542
   6623SM   C15 8482   4.013   2.343  15.205 -0.0312 -0.0913 -0.5777
   6623SM  H15A 8483   4.108   2.345  15.257 -1.7625 -1.0963  2.9825
   6623SM  H15B 8484   4.000   2.243  15.165  0.0768 -0.8256  1.1342
   6623SM  H15C 8485   3.943   2.344  15.287  0.6455 -1.4586  0.0575
   6623SM   C14 8486   3.861   2.449  15.058 -0.2702  0.2712 -0.2776
   6623SM  H14A 8487   3.858   2.371  14.983  1.2958  1.2745 -1.4639
   6623SM  H14B 8488   3.846   2.533  14.992 -2.2915 -0.0908 -0.3274
   6623SM  H14C 8489   3.785   2.444  15.134  1.2023 -0.1806  1.2131
   6623SM   C13 8490   4.008   2.587  15.192 -0.4525  0.1715 -0.5941
   6623SM  H13A 8491   3.931   2.588  15.266  0.7125  0.9411  0.6572
   6623SM  H13B 8492   3.982   2.676  15.136  1.0771  0.7000 -0.5156
   6623SM  H13C 8493   4.107   2.601  15.233 -0.0934  0.7289 -1.5979
   6623SM   C12 8494   4.111   2.454  15.004 -0.7182  0.0807  0.6372
   6623SM  H12A 8495   4.206   2.437  15.054 -0.8711 -1.5956  0.4175
   6623SM  H12B 8496   4.124   2.549  14.955  1.3657 -0.5333 -0.1413
   6623SM   C11 8497   4.093   2.343  14.906 -0.2429 -0.5201  0.1333
   6623SM  H11A 8498   4.022   2.360  14.822 -0.2354 -1.0892  0.0026
   6623SM  H11B 8499   4.051   2.256  14.961 -4.6356  1.3768  0.1824
   6623SM     P 8500   4.338   2.248  14.915  0.2429 -0.9306  0.4766
   6623SM   O13 8501   4.379   2.333  15.032  0.1361  0.4754  0.1319
   6623SM   O14 8502   4.303   2.111  14.945  0.3365 -0.0866  0.1442
   6623SM   O11 8503   4.464   2.254  14.826 -0.2757 -0.3302 -0.0974
   6623SM   O12 8504   4.220   2.315  14.844 -0.3245 -0.4235  0.1048
   6623SM   C1S 8505   4.451   2.218  14.684  0.1124 -0.8241 -0.6475
   6623SM   H1S 8506   4.389   2.301  14.643  0.3583  0.2332  1.0288
   6623SM   H1T 8507   4.396   2.123  14.673 -1.9570  0.1229  0.8070
   6623SM    NF 8508   4.578   2.199  14.472 -0.6842 -0.6386  0.8725
   6623SM   HNF 8509   4.598   2.107  14.437  1.8410  0.4989 -0.9763
   6623SM   C2S 8510   4.589   2.215  14.615  0.6424  0.7454  0.1149
   6623SM   H2S 8511   4.629   2.317  14.634 -0.9776  1.4095  0.0582
   6623SM   C3S 8512   4.681   2.104  14.674  0.4080  0.6017 -0.8824
   6623SM   H3S 8513   4.636   2.008  14.640  2.0625 -0.6010  0.2106
   6623SM    O3 8514   4.686   2.091  14.819 -0.9609 -0.1434  0.4376
   6623SM   HO3 8515   4.609   2.139  14.851 -0.1517  1.2298  0.4077
   6623SM   C4S 8516   4.817   2.100  14.623 -0.2287  0.1545 -0.1445
   6623SM   H4S 8517   4.841   2.012  14.562  0.1444 -0.7523  1.2527
   6623SM   C5S 8518   4.923   2.180  14.646 -0.2828  0.0334  0.3237
   6623SM   H5S 8519   4.918   2.275  14.702  0.4522 -0.2576  0.9052
   6623SM   C6S 8520   5.055   2.168  14.577 -0.2945  0.2699 -0.4815
   6623SM   H6S 8521   5.123   2.087  14.612 -1.4813 -0.4115  0.3522
   6623SM   H6T 8522   5.098   2.261  14.620  1.3189 -0.4119 -0.5638
   6623SM   C7S 8523   5.041   2.185  14.420 -0.6178 -0.3274  1.0003
   6623SM   H7S 8524   4.977   2.103  14.382  2.4059 -1.2712 -2.6369
   6623SM   H7T 8525   5.139   2.152  14.378 -1.4014 -0.3223 -0.9242
   6623SM   C8S 8526   4.994   2.331  14.379 -0.2100  0.1334 -0.6594
   6623SM   H8S 8527   5.063   2.402  14.428 -0.9023  1.3060 -1.3425
   6623SM   H8T 8528   4.898   2.341  14.435 -0.6185  4.5638 -1.8509
   6623SM   C9S 8529   4.976   2.354  14.228 -0.2918  0.2326 -0.0360
   6623SM   H9S 8530   4.905   2.279  14.186  1.1496  0.2778 -2.7791
   6623SM   H9T 8531   5.074   2.329  14.182 -0.2271  2.9738 -1.5459
   6623SM  C10S 8532   4.926   2.494  14.205 -0.2659  0.3321  0.2820
   6623SM  H10S 8533   4.998   2.571  14.240  1.1707 -0.0759 -1.5834
   6623SM  H10T 8534   4.831   2.506  14.261  0.6451 -0.0499  1.9834
   6623SM  C11S 8535   4.901   2.528  14.054 -0.5198  0.0822  0.0945
   6623SM  H11S 8536   4.879   2.635  14.032  2.9716  0.9164  0.0731
   6623SM  H11T 8537   4.816   2.462  14.028  1.4164 -2.6728  0.4188
   6623SM  C12S 8538   5.027   2.490  13.963 -0.3642 -0.9748  0.0070
   6623SM  H12S 8539   5.046   2.383  13.990 -0.3742 -0.3770  2.6865
   6623SM  H12T 8540   5.108   2.551  14.007  0.5880 -0.7132 -1.9959
   6623SM  C13S 8541   5.018   2.513  13.809  0.4916 -0.2171 -0.7743
   6623SM  H13S 8542   5.018   2.624  13.804  0.2164  0.1508  3.3541
   6623SM  H13T 8543   4.921   2.482  13.765  0.1930  1.6310 -1.4988
   6623SM  C14S 8544   5.125   2.452  13.720 -0.5469  0.0842  0.5198
   6623SM  H14S 8545   5.129   2.344  13.744 -1.4201  0.3512  2.0544
   6623SM  H14T 8546   5.225   2.494  13.745 -1.2398  1.2050  1.5308
   6623SM  C15S 8547   5.115   2.481  13.566  0.0132 -0.1440  0.1792
   6623SM  H15S 8548   5.094   2.589  13.547 -3.9725 -0.7351  0.2571
   6623SM  H15T 8549   5.026   2.423  13.534  1.4042 -2.4374  0.2304
   6623SM  C16S 8550   5.239   2.427  13.490  0.3108 -0.5525 -0.0275
   6623SM  H16S 8551   5.247   2.317  13.475  2.2041 -0.0518 -3.8732
   6623SM  H16T 8552   5.333   2.454  13.543  0.1861 -1.1703  0.5216
   6623SM  C17S 8553   5.246   2.490  13.346 -0.1191  0.1057  0.1947
   6623SM  H17S 8554   5.278   2.597  13.354 -0.1133  0.2099 -1.0087
   6623SM  H17T 8555   5.150   2.480  13.292  0.2083  1.8149 -0.7983
   6623SM  C18S 8556   5.359   2.422  13.263  0.7614  0.3411  0.7749
   6623SM  H18S 8557   5.456   2.445  13.312  1.4027  1.3200 -0.8485
   6623SM  H18T 8558   5.357   2.457  13.157  0.3162  0.5817  0.8568
   6623SM  H18U 8559   5.344   2.313  13.253  1.2879  0.0960  2.3741
   6623SM   C1F 8560   4.516   2.290  14.394  0.5856 -0.0780  0.5910
   6623SM    OF 8561   4.491   2.401  14.441  0.8100  0.5941  0.3317
   6623SM   C2F 8562   4.474   2.243  14.250  0.0331 -0.2575  0.2023
   6623SM   H2F 8563   4.370   2.205  14.261  0.3354 -1.3384 -0.5098
   6623SM   H2G 8564   4.541   2.158  14.227 -0.1023 -0.3744  0.2402
   6623SM   C3F 8565   4.496   2.358  14.146  0.1597  0.4260 -0.6373
   6623SM   H3F 8566   4.593   2.409  14.166 -0.4602  0.5827  2.4223
   6623SM   H3G 8567   4.418   2.434  14.169 -2.2207 -2.1960  0.4370
   6623SM   C4F 8568   4.477   2.319  13.999 -0.2149  0.0695  0.2756
   6623SM   H4F 8569   4.371   2.286  13.992 -0.1546 -0.8788  2.8808
   6623SM   H4G 8570   4.555   2.245  13.971  1.0716  1.0310  1.1416
   6623SM   C5F 8571   4.500   2.446  13.918  0.3104  0.1804  0.3549
   6623SM   H5F 8572   4.601   2.491  13.932  0.4106  1.1948 -2.9011
   6623SM   H5G 8573   4.408   2.506  13.936 -0.5564 -0.8865 -0.4496
   6623SM   C6F 8574   4.517   2.418  13.768 -0.2268  0.2434 -0.1233
   6623SM   H6F 8575   4.514   2.516  13.717  1.8892 -0.5626 -1.9599
   6623SM   H6G 8576   4.433   2.361  13.721  1.1741 -0.4434 -1.9029
   6623SM   C7F 8577   4.654   2.350  13.739  0.3163 -0.6196 -0.3747
   6623SM   H7F 8578   4.645   2.240  13.756  3.1317 -0.7327  1.0327
   6623SM   H7G 8579   4.730   2.378  13.815  0.0466 -0.8943  0.0070
   6623SM   C8F 8580   4.710   2.365  13.593 -0.7275 -0.1338  0.0773
   6623SM   H8F 8581   4.782   2.282  13.581 -0.5546  0.2694 -1.8981
   6623SM   H8G 8582   4.770   2.457  13.574 -0.0813 -0.4728  0.4098
   6623SM   C9F 8583   4.610   2.351  13.484 -0.8675 -0.0951  0.7460
   6623SM   H9F 8584   4.540   2.437  13.484 -1.4162 -0.5263  1.2214
   6623SM   H9G 8585   4.554   2.255  13.499 -0.2989 -0.2956  1.6467
   6623SM  C10F 8586   4.686   2.349  13.353 -0.8803  0.3086  0.0360
   6623SM  H10F 8587   4.737   2.253  13.334 -2.2980 -0.4182 -0.2313
   6623SM  H10G 8588   4.755   2.436  13.361  1.7544 -1.6642 -0.2791
   6623SM  C11F 8589   4.600   2.382  13.231 -0.0851  0.0230 -0.5917
   6623SM  H11F 8590   4.544   2.472  13.263 -0.4822 -0.4927  0.2169
   6623SM  H11G 8591   4.521   2.305  13.222  2.4357 -2.6354 -1.8224
   6623SM  C12F 8592   4.686   2.398  13.106 -0.2600  0.4093 -0.4466
   6623SM  H12F 8593   4.719   2.296  13.077  0.6957  0.6827 -0.3473
   6623SM  H12G 8594   4.773   2.459  13.137 -1.5922  0.3852  4.0746
   6623SM  C13F 8595   4.602   2.450  12.995 -0.4879 -0.4712 -0.2563
   6623SM  H13F 8596   4.558   2.549  13.022  1.2583  0.1988  0.2680
   6623SM  H13G 8597   4.515   2.380  12.995 -0.5018 -0.5029  1.5508
   6623SM  C14F 8598   4.683   2.452  12.863  0.3591  0.0213  0.7461
   6623SM  H14F 8599   4.713   2.346  12.849  0.0603 -0.1423  1.3487
   6623SM  H14G 8600   4.779   2.507  12.873  0.8879 -0.7753  0.1436
   6623SM  C15F 8601   4.610   2.525  12.741  0.0690 -0.1206 -0.2397
   6623SM  H15F 8602   4.679   2.536  12.655 -0.9177 -0.9756 -1.1732
   6623SM  H15G 8603   4.572   2.623  12.777 -2.5746 -1.1420  0.0124
   6623SM  C16F 8604   4.489   2.439  12.693  0.1145  0.3742 -0.9333
   6623SM  H16F 8605   4.436   2.431  12.791  3.0591  0.6262  0.7744
   6623SM  H16G 8606   4.535   2.341  12.671  2.4208  1.2511 -0.3360
   6623SM  C17F 8607   4.401   2.499  12.589 -0.0466 -0.3433 -0.3698
   6623SM  H17F 8608   4.467   2.509  12.500  0.4810  1.9631  0.2066
   6623SM  H17G 8609   4.370   2.601  12.621  1.2981  0.0999 -0.4187
   6623SM  C18F 8610   4.265   2.425  12.573 -0.5030  0.7121 -0.8926
   6623SM  H18F 8611   4.224   2.403  12.674  1.0464  0.0119 -0.3714
   6623SM  H18G 8612   4.294   2.327  12.528 -1.2959  0.6464 -1.2698
   6623SM  C19F 8613   4.167   2.486  12.470 -0.0785 -0.1634 -0.1027
   6623SM  H19F 8614   4.211   2.511  12.371  2.2282 -0.6763  0.7251
   6623SM  H19G 8615   4.130   2.576  12.525 -0.0805  1.1600 -2.1668
   6623SM  C20F 8616   4.041   2.391  12.462  0.0149 -0.3236 -0.2735
   6623SM  H20F 8617   3.993   2.361  12.557  1.3966  0.1658  0.6129
   6623SM  H20G 8618   4.081   2.296  12.421  2.9261  0.3258  0.8516
   6623SM  C21F 8619   3.930   2.452  12.364 -0.5991  0.2826 -0.4491
   6623SM  H21F 8620   3.993   2.492  12.282  0.1027  1.1569  0.4835
   6623SM  H21G 8621   3.883   2.538  12.416 -2.5091  0.2587 -2.0269
   6623SM  C22F 8622   3.826   2.347  12.312  0.2355  0.2146  0.1657
   6623SM  H22F 8623   3.779   2.292  12.396 -0.3871 -1.8030 -1.4064
   6623SM  H22G 8624   3.875   2.265  12.255 -1.4751 -1.8119  1.4481
   6623SM  C23F 8625   3.709   2.412  12.248 -0.0019  0.2644 -0.0691
   6623SM  H23F 8626   3.654   2.330  12.198  0.5796  0.1486 -0.5357
   6623SM  H23G 8627   3.741   2.486  12.171  0.1781  0.2330 -0.0267
   6623SM  H23H 8628   3.653   2.473  12.322  1.5291  0.6722  0.8177
   6723SM     N 8629   5.347   6.478  14.676 -0.2730 -0.0471 -0.6210
   6723SM   C15 8630   5.428   6.591  14.630 -0.8694 -0.1226 -0.5699
   6723SM  H15A 8631   5.516   6.553  14.581 -0.0001  0.4885  0.4915
   6723SM  H15B 8632   5.455   6.651  14.715  0.3615 -1.1486 -0.2086
   6723SM  H15C 8633   5.387   6.651  14.550  0.7972 -0.0388 -1.3950
   6723SM   C14 8634   5.428   6.409  14.788  0.1940 -0.0738 -0.2117
   6723SM  H14A 8635   5.455   6.470  14.873 -1.3849 -0.0894  0.3309
   6723SM  H14B 8636   5.525   6.376  14.755  0.0830  0.0235 -0.6468
   6723SM  H14C 8637   5.371   6.329  14.834  0.6543  0.3675  1.1673
   6723SM   C13 8638   5.211   6.532  14.724 -0.2327 -0.0026 -0.1343
   6723SM  H13A 8639   5.228   6.622  14.780 -0.9931  0.2747 -0.3341
   6723SM  H13B 8640   5.157   6.468  14.792  0.4157  1.9002  2.3180
   6723SM  H13C 8641   5.149   6.566  14.642  0.1078  2.8295  0.7015
   6723SM   C12 8642   5.327   6.386  14.555 -0.1837  0.3120 -0.9377
   6723SM  H12A 8643   5.278   6.300  14.597  0.3372  1.0710  1.4389
   6723SM  H12B 8644   5.422   6.347  14.522 -0.3214  0.5702 -1.6429
   6723SM   C11 8645   5.249   6.438  14.438  0.6626 -0.5966  0.0164
   6723SM  H11A 8646   5.280   6.366  14.360  1.5819  0.4523 -0.6071
   6723SM  H11B 8647   5.282   6.534  14.393 -0.8406 -0.5530 -1.0471
   6723SM     P 8648   5.021   6.315  14.495  0.0030 -0.1823  0.0007
   6723SM   O13 8649   5.087   6.222  14.593  0.4460 -0.7447 -0.2200
   6723SM   O14 8650   4.884   6.349  14.539  0.2206 -0.5118  0.3349
   6723SM   O11 8651   5.021   6.250  14.350 -0.1404 -0.0798 -0.7451
   6723SM   O12 8652   5.110   6.444  14.473  0.3085  0.4636 -0.8185
   6723SM   C1S 8653   4.948   6.315  14.244 -0.0188  0.4303 -0.1198
   6723SM   H1S 8654   5.013   6.398  14.209  1.8887  0.3230  2.8065
   6723SM   H1T 8655   4.854   6.364  14.279  0.9700  1.3300  1.4157
   6723SM    NF 8656   4.887   6.282  14.010  0.3710  0.2261 -0.0812
   6723SM   HNF 8657   4.796   6.320  13.997  0.3736  0.1305 -0.4060
   6723SM   C2S 8658   4.917   6.207  14.135 -0.4079  0.2714  0.3562
   6723SM   H2S 8659   5.008   6.144  14.126 -2.3963 -2.5132 -2.1255
   6723SM   C3S 8660   4.797   6.115  14.171 -0.0324 -0.1691 -0.1998
   6723SM   H3S 8661   4.709   6.181  14.160  0.4444  0.5287  0.1610
   6723SM    O3 8662   4.798   6.077  14.312  0.2069  0.1598 -0.3684
   6723SM   HO3 8663   4.877   6.117  14.349 -0.6686 -0.5829  2.6027
   6723SM   C4S 8664   4.783   5.997  14.085  0.4225 -1.4306 -0.4882
   6723SM   H4S 8665   4.709   6.026  14.008  0.5390 -0.2825 -0.1864
   6723SM   C5S 8666   4.846   5.882  14.082  0.1967  0.0621 -0.0300
   6723SM   H5S 8667   4.926   5.859  14.154 -0.9876  0.3657  1.4557
   6723SM   C6S 8668   4.823   5.775  13.982 -0.2007 -0.3867  0.8484
   6723SM   H6S 8669   4.755   5.695  14.018 -0.0432 -2.0383 -2.2407
   6723SM   H6T 8670   4.914   5.715  13.959  0.1476  1.0916 -2.1368
   6723SM   C7S 8671   4.770   5.815  13.839  0.5038  1.0613  0.2916
   6723SM   H7S 8672   4.842   5.892  13.802  0.3163  1.3141  0.4511
   6723SM   H7T 8673   4.668   5.855  13.824 -0.5065 -1.8709 -1.4196
   6723SM   C8S 8674   4.779   5.694  13.742  0.3111 -0.3371 -0.6685
   6723SM   H8S 8675   4.698   5.620  13.761  0.1296 -0.2123 -0.9458
   6723SM   H8T 8676   4.880   5.651  13.762 -0.5413 -1.8775  0.5849
   6723SM   C9S 8677   4.760   5.730  13.592  0.2395  0.6661 -0.2561
   6723SM   H9S 8678   4.858   5.774  13.562  0.8278  0.4426  1.2097
   6723SM   H9T 8679   4.677   5.802  13.584 -0.2235  0.4766  1.9544
   6723SM  C10S 8680   4.735   5.607  13.499 -0.7328  1.0351  0.3719
   6723SM  H10S 8681   4.635   5.566  13.525 -0.0704 -0.5885  0.4950
   6723SM  H10T 8682   4.812   5.530  13.520 -0.5913  0.8206 -0.8630
   6723SM  C11S 8683   4.749   5.639  13.353  0.1783 -1.0521  0.0283
   6723SM  H11S 8684   4.847   5.675  13.317 -0.7836 -0.0082 -1.6614
   6723SM  H11T 8685   4.680   5.724  13.336  1.4837  0.7022  2.7070
   6723SM  C12S 8686   4.707   5.520  13.263 -0.4307  0.0573  0.2953
   6723SM  H12S 8687   4.597   5.507  13.272 -0.7667 -0.8979 -3.4235
   6723SM  H12T 8688   4.763   5.428  13.291 -0.8510 -0.2740  0.0681
   6723SM  C13S 8689   4.740   5.559  13.113 -0.1687  0.3458 -0.4706
   6723SM  H13S 8690   4.846   5.592  13.112  0.8974 -2.6730  0.6119
   6723SM  H13T 8691   4.674   5.643  13.083  0.2756  0.5217 -0.9685
   6723SM  C14S 8692   4.712   5.447  13.016 -0.5418  0.2105  0.1023
   6723SM  H14S 8693   4.607   5.412  13.026 -1.2034  1.9672 -0.3017
   6723SM  H14T 8694   4.790   5.369  13.034  0.9243  1.8969  1.3988
   6723SM  C15S 8695   4.712   5.482  12.870  0.2839 -0.2984  0.2461
   6723SM  H15S 8696   4.801   5.543  12.845  0.4979 -0.7360 -0.0842
   6723SM  H15T 8697   4.632   5.556  12.852 -0.8711 -0.5691  3.6024
   6723SM  C16S 8698   4.695   5.366  12.779  0.1460 -0.0617  0.3904
   6723SM  H16S 8699   4.593   5.326  12.801 -0.8549  1.2990 -1.4631
   6723SM  H16T 8700   4.768   5.285  12.798 -0.4485 -0.9050 -0.7280
   6723SM  C17S 8701   4.709   5.418  12.630  0.2215 -0.9419 -0.2494
   6723SM  H17S 8702   4.803   5.475  12.617 -0.6841  1.3229  2.0924
   6723SM  H17T 8703   4.625   5.491  12.624  1.1469  0.2258  0.5139
   6723SM  C18S 8704   4.698   5.307  12.534  0.2501  0.2234 -0.3386
   6723SM  H18S 8705   4.790   5.245  12.539  0.6440  0.8979  2.2972
   6723SM  H18T 8706   4.704   5.355  12.435 -0.8733 -1.6835 -1.3882
   6723SM  H18U 8707   4.599   5.257  12.545  0.9235 -1.3764 -1.1515
   6723SM   C1F 8708   4.989   6.334  13.943 -0.3967  0.0024 -0.6571
   6723SM    OF 8709   5.108   6.328  13.989 -0.0544  0.6826  0.0909
   6723SM   C2F 8710   4.952   6.393  13.811  0.1237 -0.2502  0.3031
   6723SM   H2F 8711   5.012   6.484  13.790 -0.8177  0.4938  0.7589
   6723SM   H2G 8712   4.850   6.434  13.827  0.6631  0.5551  1.8772
   6723SM   C3F 8713   4.976   6.288  13.697 -0.3085  0.3027  0.4349
   6723SM   H3F 8714   5.073   6.236  13.710 -0.2695  0.3552  0.3558
   6723SM   H3G 8715   5.002   6.350  13.608 -0.9683  0.9337  0.6707
   6723SM   C4F 8716   4.850   6.195  13.687 -0.6854 -0.6538 -0.1819
   6723SM   H4F 8717   4.771   6.272  13.679  1.1035  1.2450 -0.2090
   6723SM   H4G 8718   4.830   6.140  13.781 -0.2402 -0.0615  0.2623
   6723SM   C5F 8719   4.854   6.087  13.581 -0.9698  0.0861 -0.3305
   6723SM   H5F 8720   4.778   6.007  13.599 -0.2986 -0.4532  0.1570
   6723SM   H5G 8721   4.947   6.026  13.585 -0.2730  1.1878  2.3291
   6723SM   C6F 8722   4.831   6.137  13.438  0.1307 -0.1338 -0.6581
   6723SM   H6F 8723   4.919   6.204  13.427  0.2191  0.1284  1.3682
   6723SM   H6G 8724   4.744   6.206  13.432 -0.3552 -0.7871 -1.4420
   6723SM   C7F 8725   4.858   6.032  13.331 -0.1008 -0.7570  0.1805
   6723SM   H7F 8726   4.810   5.937  13.364  1.1218 -0.3046  3.7394
   6723SM   H7G 8727   4.968   6.019  13.329  0.2880  1.8287  1.4492
   6723SM   C8F 8728   4.815   6.080  13.192  0.2771  0.2120  0.1623
   6723SM   H8F 8729   4.890   6.149  13.149  0.3879  0.2413  0.3999
   6723SM   H8G 8730   4.729   6.150  13.203  0.1320  0.3743 -1.7869
   6723SM   C9F 8731   4.785   5.967  13.093 -0.5279  0.1485  0.0020
   6723SM   H9F 8732   4.703   5.906  13.136 -1.8761  0.3296 -2.1767
   6723SM   H9G 8733   4.879   5.913  13.068 -2.3194 -2.4933 -1.5163
   6723SM  C10F 8734   4.732   6.020  12.958  0.2450 -0.7836 -0.1072
   6723SM  H10F 8735   4.800   6.086  12.899  1.2030 -0.8795  0.8691
   6723SM  H10G 8736   4.638   6.074  12.984 -0.4313 -1.9160 -0.0920
   6723SM  C11F 8737   4.705   5.905  12.861  0.0390 -0.4709 -0.3035
   6723SM  H11F 8738   4.619   5.846  12.898 -1.4882  1.9741  0.2194
   6723SM  H11G 8739   4.800   5.847  12.856  0.9067  0.7580  1.0630
   6723SM  C12F 8740   4.671   5.941  12.712 -0.8959 -0.8257 -0.8001
   6723SM  H12F 8741   4.741   6.018  12.673 -1.8104  0.1417 -0.5773
   6723SM  H12G 8742   4.571   5.988  12.712 -0.6595 -0.3088  0.1287
   6723SM  C13F 8743   4.671   5.814  12.624  0.6571 -0.2810  0.5759
   6723SM  H13F 8744   4.587   5.754  12.666  0.9859 -0.1958  1.3779
   6723SM  H13G 8745   4.766   5.761  12.646  1.1256 -0.4565 -1.6398
   6723SM  C14F 8746   4.653   5.834  12.472  1.4075  0.1737  0.4199
   6723SM  H14F 8747   4.644   5.732  12.427 -2.0038  0.2163  0.7410
   6723SM  H14G 8748   4.737   5.890  12.427  0.9437  0.5205 -0.0339
   6723SM  C15F 8749   4.519   5.910  12.433 -0.4048  0.3798 -0.0062
   6723SM  H15F 8750   4.542   6.009  12.479  1.0751 -1.0129  2.5029
   6723SM  H15G 8751   4.426   5.875  12.482  0.5860 -1.4136  0.6650
   6723SM  C16F 8752   4.500   5.931  12.279  0.1642 -0.7884  0.0511
   6723SM  H16F 8753   4.597   5.965  12.237  1.1655 -1.6637  1.5421
   6723SM  H16G 8754   4.427   6.015  12.268  1.3391  0.1912 -0.6150
   6723SM  C17F 8755   4.454   5.806  12.207 -0.3415 -0.5674  0.0937
   6723SM  H17F 8756   4.366   5.765  12.260 -0.2908 -0.3342  0.3607
   6723SM  H17G 8757   4.534   5.728  12.212 -1.7301 -2.0642 -0.3233
   6723SM  C18F 8758   4.414   5.828  12.055 -0.2351 -0.0160 -0.2899
   6723SM  H18F 8759   4.351   5.919  12.062  0.4162  0.3416  1.1576
   6723SM  H18G 8760   4.363   5.736  12.020 -0.1038 -1.1124  2.2288
   6723SM  C19F 8761   4.537   5.857  11.964 -0.7498 -0.2698  0.9557
   6723SM  H19F 8762   4.551   5.964  11.991 -0.1160 -0.6905  2.3738
   6723SM  H19G 8763   4.510   5.848  11.856 -1.0347 -0.4015  1.0355
   6723SM  C20F 8764   4.671   5.786  11.993 -0.4024 -0.3507  0.3778
   6723SM  H20F 8765   4.705   5.812  12.095  0.3087  2.8123 -0.5408
   6723SM  H20G 8766   4.747   5.820  11.919 -0.5192  0.0523  0.4393
   6723SM  C21F 8767   4.675   5.630  11.990  0.1946 -0.1222 -0.1786
   6723SM  H21F 8768   4.681   5.595  11.884  0.3777 -1.6341  0.3032
   6723SM  H21G 8769   4.577   5.603  12.035 -0.1715 -2.8593 -2.3361
   6723SM  C22F 8770   4.802   5.585  12.068  0.9649 -0.0351 -0.1547
   6723SM  H22F 8771   4.808   5.646  12.160  3.5706  0.3383 -0.5035
   6723SM  H22G 8772   4.882   5.614  11.997  0.3675 -1.1536 -1.3350
   6723SM  C23F 8773   4.808   5.436  12.104 -0.0890  1.0694  0.2386
   6723SM  H23F 8774   4.797   5.369  12.016  1.8226  2.1440 -0.8814
   6723SM  H23G 8775   4.723   5.419  12.174  1.3025 -0.0339  1.7408
   6723SM  H23H 8776   4.900   5.407  12.158 -1.1741 -1.3941  0.9031
   6823SM     N 8777   2.859   1.877  14.751  0.2660 -0.6409 -0.1363
   6823SM   C15 8778   2.790   1.811  14.868 -0.0618  0.1901  0.3839
   6823SM  H15A 8779   2.832   1.717  14.900 -0.7249  0.7314  3.1226
   6823SM  H15B 8780   2.690   1.779  14.841 -0.3795  0.5251  1.1520
   6823SM  H15C 8781   2.791   1.878  14.952  0.3408  1.0160 -0.2640
   6823SM   C14 8782   2.885   1.792  14.636 -0.5331 -0.7743  0.4160
   6823SM  H14A 8783   2.805   1.729  14.599 -0.4394  0.1380 -1.4735
   6823SM  H14B 8784   2.964   1.722  14.658 -2.1617 -2.5285  1.0182
   6823SM  H14C 8785   2.909   1.857  14.553  1.4634 -0.0346  1.5188
   6823SM   C13 8786   2.775   1.999  14.712  0.6404 -0.3181 -0.5444
   6823SM  H13A 8787   2.801   2.083  14.774  2.1597  0.1286 -1.7167
   6823SM  H13B 8788   2.669   1.983  14.727  0.3919  1.5822 -0.0719
   6823SM  H13C 8789   2.794   2.022  14.608  0.0081 -2.1117 -1.0950
   6823SM   C12 8790   2.999   1.930  14.803 -0.0206  0.5958  0.5187
   6823SM  H12A 8791   2.977   2.011  14.871  1.2796  0.6129  0.9505
   6823SM  H12B 8792   3.038   1.973  14.712 -3.3395 -1.1913 -1.9668
   6823SM   C11 8793   3.105   1.829  14.871  0.6178  0.4951 -0.6411
   6823SM  H11A 8794   3.069   1.771  14.958  1.2696  1.4618  0.2883
   6823SM  H11B 8795   3.189   1.888  14.914  1.7365 -1.3624 -0.1763
   6823SM     P 8796   3.248   1.770  14.661 -0.0217 -0.2679 -0.1738
   6823SM   O13 8797   3.375   1.759  14.731 -0.0512 -0.0850 -0.1004
   6823SM   O14 8798   3.231   1.689  14.542  0.0608 -0.0037 -0.3461
   6823SM   O11 8799   3.222   1.921  14.616  1.0354  0.8767  0.5089
   6823SM   O12 8800   3.137   1.738  14.767  0.1925  0.0812 -0.0555
   6823SM   C1S 8801   3.314   1.976  14.523 -0.5027 -0.3897  0.3616
   6823SM   H1S 8802   3.421   1.949  14.540 -0.1220 -0.7462 -2.1779
   6823SM   H1T 8803   3.306   2.087  14.521 -1.3656 -0.4516 -0.2074
   6823SM    NF 8804   3.385   2.003  14.292  0.5835  0.9232  0.1346
   6823SM   HNF 8805   3.359   2.083  14.238  0.8570  1.6863  1.0961
   6823SM   C2S 8806   3.286   1.941  14.373  0.0367 -0.7214 -0.5195
   6823SM   H2S 8807   3.275   1.831  14.363 -0.5431 -0.8400  1.0422
   6823SM   C3S 8808   3.140   1.989  14.335 -0.0623 -0.4031  0.0655
   6823SM   H3S 8809   3.143   2.099  14.322  0.1985 -0.1245  2.2637
   6823SM    O3 8810   3.034   1.974  14.426  0.3842 -0.4682 -0.5191
   6823SM   HO3 8811   3.084   1.978  14.508  1.4361 -0.7108 -1.1264
   6823SM   C4S 8812   3.106   1.938  14.198 -0.3079  0.2362 -0.3511
   6823SM   H4S 8813   3.144   2.005  14.120  1.0346 -0.0983 -0.0079
   6823SM   C5S 8814   3.042   1.827  14.166  1.0934  0.1075  0.0471
   6823SM   H5S 8815   2.989   1.766  14.241 -1.1691  1.2752 -0.4915
   6823SM   C6S 8816   2.995   1.783  14.025  0.4565 -0.2357 -0.5846
   6823SM   H6S 8817   2.884   1.784  14.029  0.4910 -0.0610  0.4275
   6823SM   H6T 8818   3.016   1.674  14.024 -0.3778 -0.5605  3.3307
   6823SM   C7S 8819   3.036   1.875  13.911 -0.1671 -0.9713 -0.0632
   6823SM   H7S 8820   3.147   1.883  13.913 -0.1668 -0.5912 -1.1391
   6823SM   H7T 8821   2.991   1.976  13.923 -0.0080 -0.6252 -2.0898
   6823SM   C8S 8822   2.982   1.837  13.772 -0.7020  0.1879 -0.1799
   6823SM   H8S 8823   2.879   1.803  13.794 -0.9510  0.8350 -0.3367
   6823SM   H8T 8824   3.031   1.747  13.728  0.8248 -1.1239  3.8205
   6823SM   C9S 8825   2.977   1.957  13.682  0.4414  0.0468  0.0824
   6823SM   H9S 8826   3.080   1.978  13.647  1.0689 -2.3422  0.3087
   6823SM   H9T 8827   2.921   2.045  13.722  1.0063  0.0393  0.9196
   6823SM  C10S 8828   2.901   1.908  13.561  0.2378  0.1113  0.9954
   6823SM  H10S 8829   2.796   1.886  13.590 -0.6529  0.4497 -1.7348
   6823SM  H10T 8830   2.947   1.810  13.533 -1.5911 -0.9396  1.4454
   6823SM  C11S 8831   2.905   2.017  13.445 -0.5718 -0.1236 -0.5348
   6823SM  H11S 8832   3.004   2.067  13.439  0.6795 -2.3099  0.7842
   6823SM  H11T 8833   2.823   2.090  13.465 -0.2592 -0.2223  1.2065
   6823SM  C12S 8834   2.875   1.961  13.306  0.7170 -0.5157  0.0599
   6823SM  H12S 8835   2.781   1.901  13.309  0.8148 -0.6337  1.7794
   6823SM  H12T 8836   2.956   1.896  13.265 -0.5057 -2.6266  0.7879
   6823SM  C13S 8837   2.854   2.059  13.190  0.0622 -0.4628  0.1811
   6823SM  H13S 8838   2.949   2.114  13.176 -0.3388  0.2960  0.4095
   6823SM  H13T 8839   2.773   2.127  13.224  0.4596 -0.0144  0.2226
   6823SM  C14S 8840   2.811   1.993  13.053 -0.6671  0.6357 -0.5280
   6823SM  H14S 8841   2.710   1.949  13.046 -0.2795 -0.2657 -0.6991
   6823SM  H14T 8842   2.883   1.910  13.032 -1.1815 -0.0924  0.5157
   6823SM  C15S 8843   2.814   2.090  12.926 -0.0392 -0.3576 -0.0281
   6823SM  H15S 8844   2.918   2.092  12.888 -0.8819  1.7124 -2.4860
   6823SM  H15T 8845   2.785   2.187  12.972  1.6806 -0.3457  1.1486
   6823SM  C16S 8846   2.735   2.045  12.807 -0.7386 -0.2803  0.3722
   6823SM  H16S 8847   2.642   2.009  12.857 -2.4007  0.9924 -1.6190
   6823SM  H16T 8848   2.784   1.953  12.769  0.4905  0.2501  0.6447
   6823SM  C17S 8849   2.709   2.154  12.705  0.3240  0.3448 -0.5344
   6823SM  H17S 8850   2.749   2.252  12.740  1.0077 -0.6159  1.5225
   6823SM  H17T 8851   2.598   2.160  12.700  0.0882 -0.2833  2.4531
   6823SM  C18S 8852   2.766   2.110  12.572  0.1069  0.0935  0.1554
   6823SM  H18S 8853   2.729   2.184  12.499 -1.4157 -1.7394 -1.0333
   6823SM  H18T 8854   2.722   2.013  12.540 -1.5355  0.5024  1.0432
   6823SM  H18U 8855   2.876   2.116  12.559 -0.0468 -0.2289 -1.4565
   6823SM   C1F 8856   3.512   1.959  14.278  0.6649 -0.1010  0.6529
   6823SM    OF 8857   3.551   1.858  14.336 -0.1533 -0.7554 -0.5758
   6823SM   C2F 8858   3.598   2.032  14.177 -0.2384  0.2799 -0.1100
   6823SM   H2F 8859   3.698   2.059  14.215 -0.4617  0.0066  0.6890
   6823SM   H2G 8860   3.548   2.128  14.150 -0.7500 -0.1520 -0.7455
   6823SM   C3F 8861   3.620   1.966  14.040 -0.4013 -0.5882 -0.1031
   6823SM   H3F 8862   3.669   1.867  14.046  1.7285  0.5031  2.6542
   6823SM   H3G 8863   3.695   2.025  13.984 -0.0716  0.1341  1.0453
   6823SM   C4F 8864   3.492   1.954  13.962  0.3351  0.3350  0.6849
   6823SM   H4F 8865   3.435   2.050  13.959  1.0649  0.7475 -0.2325
   6823SM   H4G 8866   3.419   1.884  14.009 -1.0770  0.7594 -0.7586
   6823SM   C5F 8867   3.518   1.897  13.826  0.2967  0.2920  0.3085
   6823SM   H5F 8868   3.539   1.788  13.838  0.2507 -0.2324 -3.3721
   6823SM   H5G 8869   3.614   1.939  13.788  0.4756 -1.1547 -0.9422
   6823SM   C6F 8870   3.415   1.933  13.723  0.0736 -0.3686  0.1686
   6823SM   H6F 8871   3.402   2.043  13.720 -0.1353 -0.3575  1.2196
   6823SM   H6G 8872   3.317   1.899  13.763  0.8056 -1.6810  0.9138
   6823SM   C7F 8873   3.435   1.878  13.577  0.7997 -0.0207  0.6664
   6823SM   H7F 8874   3.449   1.768  13.577 -0.2868 -0.1892  2.6678
   6823SM   H7G 8875   3.531   1.922  13.542  0.0333  1.0133 -0.2425
   6823SM   C8F 8876   3.329   1.930  13.482 -0.1362  0.3360  0.5686
   6823SM   H8F 8877   3.328   2.040  13.498 -0.1529  0.1604  1.8816
   6823SM   H8G 8878   3.228   1.886  13.496 -0.5880  0.6829 -1.3698
   6823SM   C9F 8879   3.370   1.909  13.328 -0.3036 -0.8079 -0.0803
   6823SM   H9F 8880   3.374   1.801  13.303  0.6982 -0.9060  0.4916
   6823SM   H9G 8881   3.474   1.943  13.313  0.1888 -1.6699  1.3084
   6823SM  C10F 8882   3.275   1.977  13.230  0.2281  0.3912 -0.3349
   6823SM  H10F 8883   3.289   2.086  13.251  1.9700  0.0418  0.5976
   6823SM  H10G 8884   3.167   1.957  13.240  0.6097 -3.4071 -2.0796
   6823SM  C11F 8885   3.320   1.944  13.084 -0.7149 -1.1068 -0.8334
   6823SM  H11F 8886   3.310   1.834  13.076  0.9548 -1.4685  1.1341
   6823SM  H11G 8887   3.428   1.964  13.066 -0.3628 -3.3710 -1.5124
   6823SM  C12F 8888   3.241   2.017  12.971  0.6319 -0.4365  0.6752
   6823SM  H12F 8889   3.248   2.126  12.985  2.6659 -0.1043 -2.0771
   6823SM  H12G 8890   3.135   1.982  12.971  0.2725  0.6136  0.4013
   6823SM  C13F 8891   3.294   1.990  12.830  0.6562  0.6031 -0.2797
   6823SM  H13F 8892   3.403   1.969  12.832  0.8656  1.6243 -0.5168
   6823SM  H13G 8893   3.296   2.087  12.776  1.5027 -0.4545 -2.2447
   6823SM  C14F 8894   3.222   1.885  12.754 -0.7659 -0.6673 -0.3250
   6823SM  H14F 8895   3.115   1.915  12.763 -0.8473 -0.1459 -2.4543
   6823SM  H14G 8896   3.238   1.786  12.801  1.6969 -0.1614  0.0372
   6823SM  C15F 8897   3.247   1.887  12.602 -0.2849 -0.7908  0.3429
   6823SM  H15F 8898   3.354   1.867  12.578 -0.1269 -1.1693  1.3243
   6823SM  H15G 8899   3.223   1.991  12.571 -3.1866 -2.1985 -2.8283
   6823SM  C16F 8900   3.141   1.812  12.525 -0.0479 -0.4118  0.5209
   6823SM  H16F 8901   3.043   1.848  12.565  0.7393  0.8520  1.3939
   6823SM  H16G 8902   3.155   1.702  12.533  3.7052 -0.1849 -1.0109
   6823SM  C17F 8903   3.134   1.841  12.373  0.7180  0.1850 -0.6336
   6823SM  H17F 8904   3.192   1.934  12.355 -1.3065  1.9367  1.2734
   6823SM  H17G 8905   3.026   1.859  12.355  0.6036  1.8262  1.3132
   6823SM  C18F 8906   3.185   1.724  12.287  0.8409  0.1527 -0.4887
   6823SM  H18F 8907   3.150   1.746  12.184 -1.1931  2.2502  0.5608
   6823SM  H18G 8908   3.129   1.630  12.302  1.6091 -0.8171 -3.1235
   6823SM  C19F 8909   3.339   1.709  12.290  0.5021  0.0644  0.3880
   6823SM  H19F 8910   3.367   1.667  12.389  0.5858  2.1309  1.3043
   6823SM  H19G 8911   3.391   1.807  12.286 -1.2067  0.9906  0.1314
   6823SM  C20F 8912   3.398   1.630  12.169  0.6442 -0.2919 -1.0008
   6823SM  H20F 8913   3.505   1.613  12.193  0.2490 -1.6823 -0.0823
   6823SM  H20G 8914   3.373   1.675  12.071 -0.8760 -1.4588 -1.1894
   6823SM  C21F 8915   3.337   1.486  12.174  0.4592  0.1753 -0.2897
   6823SM  H21F 8916   3.226   1.495  12.175  0.4406  0.0472  1.0050
   6823SM  H21G 8917   3.374   1.434  12.265  3.7190 -0.8531 -2.0650
   6823SM  C22F 8918   3.373   1.417  12.044 -0.4081  0.1787 -0.1683
   6823SM  H22F 8919   3.484   1.422  12.044 -0.1952 -2.3799  1.6744
   6823SM  H22G 8920   3.340   1.479  11.958 -3.0275  0.7929  1.1686
   6823SM  C23F 8921   3.341   1.271  12.027  0.6818  0.5690  0.0128
   6823SM  H23F 8922   3.360   1.224  11.928 -1.3904  1.5682 -0.9282
   6823SM  H23G 8923   3.230   1.266  12.034  0.7320 -1.3456 -0.0337
   6823SM  H23H 8924   3.387   1.198  12.097 -0.9584 -1.8677 -1.2904
   6923SM     N 8925   5.669   1.257  14.953 -0.7325  0.7191 -0.7578
   6923SM   C15 8926   5.727   1.362  15.047  0.2524  0.7535 -0.3820
   6923SM  H15A 8927   5.652   1.429  15.087 -0.8141 -0.9123  0.5310
   6923SM  H15B 8928   5.803   1.422  14.999  0.7520  1.1640  0.8787
   6923SM  H15C 8929   5.761   1.321  15.141  0.5972  1.9254  0.0280
   6923SM   C14 8930   5.767   1.141  14.951  0.3271 -0.4169 -0.2294
   6923SM  H14A 8931   5.866   1.182  14.936  0.5350  0.1783  2.2671
   6923SM  H14B 8932   5.748   1.073  14.870  2.2249 -1.8914  0.5016
   6923SM  H14C 8933   5.764   1.081  15.040 -0.3158 -1.9280 -1.2439
   6923SM   C13 8934   5.540   1.213  14.999  0.3323  0.5662 -0.5565
   6923SM  H13A 8935   5.539   1.154  15.090  1.4015 -0.2881 -1.0833
   6923SM  H13B 8936   5.500   1.140  14.930 -0.0271 -0.9135  1.1304
   6923SM  H13C 8937   5.467   1.292  15.008 -0.4737 -0.2723  0.8052
   6923SM   C12 8938   5.669   1.328  14.819  0.6497 -0.4995  0.0717
   6923SM  H12A 8939   5.766   1.370  14.795 -0.3066 -0.1393 -3.9409
   6923SM  H12B 8940   5.603   1.411  14.838  0.0064 -0.8753 -0.4672
   6923SM   C11 8941   5.622   1.245  14.695 -0.0151 -0.2259 -0.5657
   6923SM  H11A 8942   5.690   1.160  14.670  1.2280  0.0050  1.7951
   6923SM  H11B 8943   5.629   1.306  14.602  1.4042  0.7855  0.1680
   6923SM     P 8944   5.371   1.247  14.631  0.0352 -0.3489  0.0222
   6923SM   O13 8945   5.251   1.162  14.653  0.3321 -0.8277 -0.0532
   6923SM   O14 8946   5.355   1.393  14.658 -0.7521 -0.2625 -0.0639
   6923SM   O11 8947   5.427   1.220  14.486 -0.3098  0.3190 -0.3047
   6923SM   O12 8948   5.488   1.197  14.720  0.0341 -0.1565  0.8945
   6923SM   C1S 8949   5.379   1.275  14.365 -0.2610  0.1564  0.5956
   6923SM   H1S 8950   5.313   1.363  14.373  0.6340  0.9142 -0.0467
   6923SM   H1T 8951   5.329   1.206  14.294  0.8676  0.7278 -0.8084
   6923SM    NF 8952   5.455   1.372  14.138 -0.5581  0.3059 -1.0113
   6923SM   HNF 8953   5.475   1.304  14.067 -1.0607 -2.8478  1.6234
   6923SM   C2S 8954   5.498   1.322  14.269 -0.0436  0.1095 -0.1734
   6923SM   H2S 8955   5.541   1.412  14.319  0.5997 -0.2794 -0.0082
   6923SM   C3S 8956   5.607   1.201  14.244 -0.4294 -0.1999 -0.3451
   6923SM   H3S 8957   5.562   1.129  14.173 -2.4977  0.1666  0.5219
   6923SM    O3 8958   5.642   1.118  14.355  0.2369 -0.1620 -0.4999
   6923SM   HO3 8959   5.565   1.129  14.411  1.7842  0.6835  1.6116
   6923SM   C4S 8960   5.734   1.255  14.187 -0.8780  1.0614 -0.3930
   6923SM   H4S 8961   5.758   1.204  14.093  2.3053 -1.8197  1.7275
   6923SM   C5S 8962   5.828   1.332  14.245 -0.6195 -0.1623 -0.3098
   6923SM   H5S 8963   5.809   1.370  14.346 -1.5543 -0.4662 -0.3568
   6923SM   C6S 8964   5.947   1.373  14.159 -0.3385  0.0915 -0.4967
   6923SM   H6S 8965   6.041   1.324  14.194 -1.3057 -1.1190  0.4943
   6923SM   H6T 8966   5.962   1.482  14.173 -0.7866  0.3464 -1.8420
   6923SM   C7S 8967   5.943   1.348  14.010  0.0534 -0.5288 -0.0087
   6923SM   H7S 8968   5.843   1.373  13.969  1.2590  2.4484 -1.4217
   6923SM   H7T 8969   5.957   1.238  13.996 -0.0610 -0.2978 -2.4744
   6923SM   C8S 8970   6.050   1.425  13.930  0.7415  0.4003 -0.2112
   6923SM   H8S 8971   6.147   1.377  13.956 -0.3703 -0.9213  1.7463
   6923SM   H8T 8972   6.048   1.530  13.967 -2.3259  0.0608  0.8438
   6923SM   C9S 8973   6.019   1.426  13.781  0.4972  0.2596  0.0052
   6923SM   H9S 8974   5.920   1.476  13.773  0.3468  0.0834  0.6775
   6923SM   H9T 8975   6.003   1.331  13.727 -0.3141  0.2294  0.2878
   6923SM  C10S 8976   6.122   1.506  13.704 -0.4758  0.1918  0.0521
   6923SM  H10S 8977   6.218   1.450  13.709  0.1146  1.1761 -0.1411
   6923SM  H10T 8978   6.135   1.603  13.756  0.7458  0.2146 -0.2713
   6923SM  C11S 8979   6.077   1.521  13.560 -0.1899  0.2085  0.0192
   6923SM  H11S 8980   6.120   1.619  13.530  0.3461  0.0112  0.1214
   6923SM  H11T 8981   5.967   1.527  13.552 -0.5334 -4.1505 -0.7153
   6923SM  C12S 8982   6.124   1.407  13.462 -0.1289 -0.2415  0.9180
   6923SM  H12S 8983   6.051   1.326  13.482  0.8769 -1.3597  0.1872
   6923SM  H12T 8984   6.222   1.368  13.497  0.8903  1.4772  0.1417
   6923SM  C13S 8985   6.133   1.459  13.314  0.5840  0.3710 -0.1940
   6923SM  H13S 8986   6.202   1.544  13.296 -2.1066  2.1281 -3.3902
   6923SM  H13T 8987   6.035   1.499  13.280  1.0103 -0.5145 -2.7138
   6923SM  C14S 8988   6.167   1.342  13.214 -0.4009 -0.4522  0.5779
   6923SM  H14S 8989   6.100   1.256  13.233  0.2057 -1.1339 -0.2991
   6923SM  H14T 8990   6.270   1.303  13.232 -0.2476 -0.4593 -0.2785
   6923SM  C15S 8991   6.169   1.388  13.065 -0.0934  0.7902 -0.0851
   6923SM  H15S 8992   6.257   1.453  13.047  2.4551 -2.9738 -2.8329
   6923SM  H15T 8993   6.077   1.442  13.036 -1.8419 -1.7623  0.4031
   6923SM  C16S 8994   6.197   1.276  12.961 -0.1992  0.4589 -0.3692
   6923SM  H16S 8995   6.106   1.213  12.949  0.9512 -1.5029  0.6445
   6923SM  H16T 8996   6.269   1.206  13.007 -0.6813 -0.1413 -0.5121
   6923SM  C17S 8997   6.251   1.343  12.834  0.0979 -1.0281  0.6330
   6923SM  H17S 8998   6.341   1.406  12.848 -0.9743  0.5900  0.5164
   6923SM  H17T 8999   6.176   1.419  12.804  0.3565 -0.0497  2.3379
   6923SM  C18S 9000   6.281   1.242  12.720  0.1153 -0.0686 -0.7118
   6923SM  H18S 9001   6.321   1.303  12.636 -2.3518  2.3559 -0.2723
   6923SM  H18T 9002   6.193   1.180  12.690  1.1174 -0.9879 -1.8577
   6923SM  H18U 9003   6.359   1.168  12.749 -3.4185 -4.1564 -0.6475
   6923SM   C1F 9004   5.372   1.467  14.115  0.1442 -0.3219  0.4541
   6923SM    OF 9005   5.345   1.546  14.200  0.2040 -0.4510  0.3055
   6923SM   C2F 9006   5.326   1.481  13.974  0.2305  0.4598 -0.5666
   6923SM   H2F 9007   5.332   1.381  13.927 -0.6471 -0.9640  2.1509
   6923SM   H2G 9008   5.393   1.558  13.929  0.1331  0.6447 -0.3936
   6923SM   C3F 9009   5.181   1.529  13.972  0.2240 -0.7626  0.6173
   6923SM   H3F 9010   5.167   1.633  14.007 -1.3670 -0.6294 -0.2924
   6923SM   H3G 9011   5.118   1.470  14.042 -0.6314  1.1674  1.5531
   6923SM   C4F 9012   5.105   1.498  13.840 -0.6100 -0.4151  0.0391
   6923SM   H4F 9013   5.001   1.532  13.856 -0.5608 -0.9366  1.5901
   6923SM   H4G 9014   5.109   1.387  13.830  2.4304 -0.5810  1.8120
   6923SM   C5F 9015   5.176   1.564  13.722  0.1944 -0.3145  0.6897
   6923SM   H5F 9016   5.277   1.520  13.708 -0.2324 -1.1968  0.3019
   6923SM   H5G 9017   5.190   1.672  13.748 -2.6724  0.0722  0.9202
   6923SM   C6F 9018   5.095   1.559  13.594 -0.5687  0.1979 -0.3234
   6923SM   H6F 9019   5.028   1.647  13.600  1.2799  1.5900  1.5036
   6923SM   H6G 9020   5.023   1.475  13.594 -1.4786  0.9630  0.1857
   6923SM   C7F 9021   5.184   1.574  13.470  0.4579  0.3339 -0.0482
   6923SM   H7F 9022   5.254   1.488  13.467 -0.0285 -0.0909  0.4971
   6923SM   H7G 9023   5.241   1.669  13.466  0.5900  0.2162 -2.9978
   6923SM   C8F 9024   5.099   1.580  13.343 -0.0681 -0.3170 -0.1060
   6923SM   H8F 9025   5.027   1.663  13.360 -1.5089 -1.0666 -2.1463
   6923SM   H8G 9026   5.028   1.495  13.334  0.5752 -0.8185 -0.6380
   6923SM   C9F 9027   5.163   1.613  13.207  0.1416  0.8864 -1.0472
   6923SM   H9F 9028   5.238   1.540  13.170  0.0304  1.1197 -1.7597
   6923SM   H9G 9029   5.229   1.699  13.232  0.0610  0.6479  0.0329
   6923SM  C10F 9030   5.061   1.644  13.094  0.5077  0.4313 -0.1427
   6923SM  H10F 9031   5.002   1.735  13.116  1.1372  0.2685  2.5394
   6923SM  H10G 9032   4.993   1.556  13.098  0.7623  0.1726 -1.1066
   6923SM  C11F 9033   5.124   1.650  12.951 -0.5762  0.8292  0.2323
   6923SM  H11F 9034   5.131   1.543  12.919  0.4708  1.1143 -0.5514
   6923SM  H11G 9035   5.226   1.690  12.966 -0.5506  1.0703 -0.5632
   6923SM  C12F 9036   5.033   1.723  12.857  0.1370 -0.3711  0.6545
   6923SM  H12F 9037   5.042   1.830  12.888  1.5819 -0.1972 -0.2336
   6923SM  H12G 9038   4.928   1.687  12.862 -0.7763  1.2249 -3.2636
   6923SM  C13F 9039   5.091   1.719  12.717  0.1294 -0.5575  0.5488
   6923SM  H13F 9040   5.088   1.621  12.665 -2.5325  0.0700 -0.6331
   6923SM  H13G 9041   5.194   1.761  12.723 -0.2814  0.5793 -0.0046
   6923SM  C14F 9042   5.009   1.808  12.625 -0.1335  0.2498  0.1941
   6923SM  H14F 9043   4.994   1.910  12.666  0.1839  0.1726  0.5101
   6923SM  H14G 9044   4.911   1.759  12.606  1.5151 -3.8472  1.1102
   6923SM  C15F 9045   5.070   1.832  12.483 -0.3677 -0.0856  0.0472
   6923SM  H15F 9046   5.074   1.728  12.445 -1.7729  0.7832 -2.7936
   6923SM  H15G 9047   5.170   1.879  12.484 -0.5037  0.2267  1.3610
   6923SM  C16F 9048   4.985   1.904  12.379  0.0130  0.6720  0.2873
   6923SM  H16F 9049   5.003   2.013  12.394 -2.7166  1.1516  0.7027
   6923SM  H16G 9050   4.878   1.880  12.398  0.3002 -0.8674  0.0982
   6923SM  C17F 9051   5.026   1.860  12.240  0.8051  0.1415  0.4387
   6923SM  H17F 9052   5.017   1.750  12.227 -0.7908  0.3044  0.0736
   6923SM  H17G 9053   5.136   1.879  12.234  0.7019  1.7062  2.6028
   6923SM  C18F 9054   4.940   1.928  12.131 -0.4087  0.5104 -0.1824
   6923SM  H18F 9055   4.956   2.037  12.146  3.3768  0.1267 -0.4502
   6923SM  H18G 9056   4.837   1.896  12.158  0.1254 -0.2727  1.0071
   6923SM  C19F 9057   4.983   1.889  11.986 -0.3887  0.3661  0.1917
   6923SM  H19F 9058   4.982   1.779  11.973 -0.8468 -0.0481  3.0666
   6923SM  H19G 9059   5.084   1.930  11.966  0.2195 -1.1897 -0.0531
   6923SM  C20F 9060   4.889   1.947  11.882 -0.0105  0.1792 -0.0043
   6923SM  H20F 9061   4.792   1.892  11.888  0.6507 -1.1973 -1.4001
   6923SM  H20G 9062   4.921   1.945  11.776  0.8868  1.7669  0.1968
   6923SM  C21F 9063   4.853   2.096  11.905  0.3838  1.2002  0.1187
   6923SM  H21F 9064   4.810   2.125  12.002 -0.7896  1.9647 -0.6077
   6923SM  H21G 9065   4.757   2.117  11.853  0.0994  0.5742  0.3863
   6923SM  C22F 9066   4.966   2.191  11.880  0.4672 -0.0349  0.3123
   6923SM  H22F 9067   5.001   2.173  11.776  2.4770  1.0285  0.7604
   6923SM  H22G 9068   5.048   2.166  11.951  0.6385  1.5808  0.7180
   6923SM  C23F 9069   4.921   2.339  11.889 -0.1622  0.0018  0.2688
   6923SM  H23F 9070   4.879   2.359  11.991 -0.9991  2.6023 -0.5081
   6923SM  H23G 9071   4.838   2.360  11.818 -0.1842 -1.6407 -0.2124
   6923SM  H23H 9072   5.001   2.412  11.865 -2.4555  2.3510 -0.7983
   7023SM     N 9073   4.980   1.419  14.905 -0.0333  0.1522 -0.3204
   7023SM   C15 9074   4.841   1.459  14.899 -0.3369  0.4445 -0.1457
   7023SM  H15A 9075   4.792   1.415  14.985 -0.2234 -1.5133 -1.0208
   7023SM  H15B 9076   4.788   1.411  14.817 -0.7929 -1.8737  1.3901
   7023SM  H15C 9077   4.828   1.565  14.888 -1.9443  0.3256  0.2433
   7023SM   C14 9078   5.052   1.497  15.012 -0.4764  0.3092 -0.3198
   7023SM  H14A 9079   5.033   1.601  14.990 -1.2613  0.1978 -0.1986
   7023SM  H14B 9080   5.158   1.479  15.016 -0.4371  0.7854  1.0939
   7023SM  H14C 9081   5.017   1.473  15.111  2.3886 -1.7447  0.3428
   7023SM   C13 9082   5.006   1.270  14.931 -0.3471  0.6056 -0.0069
   7023SM  H13A 9083   4.958   1.212  14.853 -0.4203  1.0239 -0.2720
   7023SM  H13B 9084   4.955   1.236  15.020  1.2668  1.7407  1.3976
   7023SM  H13C 9085   5.111   1.247  14.939 -0.1777  1.1688 -0.5081
   7023SM   C12 9086   5.029   1.458  14.766  0.3812 -0.3439 -0.5679
   7023SM  H12A 9087   5.136   1.452  14.766  0.4265  0.1503 -1.8961
   7023SM  H12B 9088   4.986   1.556  14.753  1.5787  0.1968 -0.4840
   7023SM   C11 9089   4.977   1.376  14.647  0.4308  0.1577  1.3724
   7023SM  H11A 9090   5.014   1.271  14.653  0.5799  0.1679  0.7037
   7023SM  H11B 9091   5.041   1.411  14.563 -1.1840  1.7735  0.7467
   7023SM     P 9092   4.752   1.278  14.540  0.4102  0.1222  0.2623
   7023SM   O13 9093   4.794   1.149  14.593  0.2002 -0.0422 -0.0379
   7023SM   O14 9094   4.615   1.331  14.559  0.1997  0.3800  0.2584
   7023SM   O11 9095   4.801   1.287  14.390  0.3059  0.0710  0.2609
   7023SM   O12 9096   4.834   1.394  14.614 -0.3882  0.0770 -0.1822
   7023SM   C1S 9097   4.781   1.414  14.315  0.7932  0.9280  0.1519
   7023SM   H1S 9098   4.842   1.487  14.371  1.3871  0.9037 -0.4502
   7023SM   H1T 9099   4.670   1.428  14.318  0.2348 -2.6642  0.5061
   7023SM    NF 9100   4.794   1.515  14.096 -0.2235 -0.1483 -0.0374
   7023SM   HNF 9101   4.728   1.505  14.021  0.0664  0.0130 -0.3195
   7023SM   C2S 9102   4.827   1.396  14.164  0.0977  0.1997  0.2285
   7023SM   H2S 9103   4.937   1.385  14.169 -0.0612 -4.0247 -1.5203
   7023SM   C3S 9104   4.769   1.269  14.099 -0.2864 -0.1040 -0.6912
   7023SM   H3S 9105   4.658   1.275  14.101 -0.3248 -0.4741  2.1005
   7023SM    O3 9106   4.789   1.149  14.166  0.2159  0.8510 -0.0597
   7023SM   HO3 9107   4.803   1.185  14.254  4.3451 -0.0820 -0.1012
   7023SM   C4S 9108   4.811   1.251  13.964 -0.2848  0.1786  0.4720
   7023SM   H4S 9109   4.920   1.248  13.947  0.1718  0.9207  2.8148
   7023SM   C5S 9110   4.742   1.265  13.853 -0.2800  0.2618 -0.0623
   7023SM   H5S 9111   4.638   1.302  13.856 -0.7998 -1.0083 -1.1592
   7023SM   C6S 9112   4.791   1.251  13.712 -0.0880  0.8816 -0.1571
   7023SM   H6S 9113   4.755   1.152  13.677 -1.7318  0.5268  2.2768
   7023SM   H6T 9114   4.901   1.262  13.698  0.0433 -0.3578 -0.1420
   7023SM   C7S 9115   4.746   1.360  13.607 -0.3373 -0.5923 -0.1422
   7023SM   H7S 9116   4.777   1.462  13.640 -1.9078 -0.2722  0.4212
   7023SM   H7T 9117   4.636   1.360  13.595 -0.5128  1.2953  1.0791
   7023SM   C8S 9118   4.798   1.335  13.467  0.1322 -0.0975 -0.4724
   7023SM   H8S 9119   4.793   1.228  13.439  1.5905  0.1646 -1.9162
   7023SM   H8T 9120   4.909   1.347  13.476 -0.1555  1.1799  3.6928
   7023SM   C9S 9121   4.728   1.416  13.351  0.0446  0.3363 -0.4175
   7023SM   H9S 9122   4.761   1.521  13.359  0.1479  0.3449 -0.9681
   7023SM   H9T 9123   4.620   1.403  13.375 -0.1724  0.7175 -1.1707
   7023SM  C10S 9124   4.763   1.365  13.216 -0.0154 -0.5206 -0.8356
   7023SM  H10S 9125   4.752   1.255  13.217  0.7140 -0.6027 -0.0023
   7023SM  H10T 9126   4.872   1.388  13.204 -0.0224 -0.8672 -1.5948
   7023SM  C11S 9127   4.681   1.423  13.096  0.0246 -0.5014 -0.6571
   7023SM  H11S 9128   4.692   1.533  13.092  2.0602 -0.5836  1.0638
   7023SM  H11T 9129   4.577   1.391  13.115 -0.3962  2.4705  3.2215
   7023SM  C12S 9130   4.732   1.365  12.966 -0.6633 -0.3986 -0.3509
   7023SM  H12S 9131   4.743   1.255  12.977 -0.9297 -0.4053 -0.1147
   7023SM  H12T 9132   4.830   1.415  12.952 -2.1087  2.3165 -1.6174
   7023SM  C13S 9133   4.651   1.410  12.843  0.3106 -0.2042 -0.0732
   7023SM  H13S 9134   4.614   1.512  12.866  1.7875  0.6354 -1.2098
   7023SM  H13T 9135   4.564   1.341  12.842  1.4026 -1.6817  1.2647
   7023SM  C14S 9136   4.734   1.417  12.717  0.9326 -0.4803  0.5618
   7023SM  H14S 9137   4.779   1.321  12.685  0.5681 -0.3667 -0.3279
   7023SM  H14T 9138   4.815   1.488  12.744  0.2020  1.2726 -1.5970
   7023SM  C15S 9139   4.650   1.475  12.601 -0.1859 -0.3247 -0.1656
   7023SM  H15S 9140   4.591   1.565  12.628  0.1063 -0.1869  0.0069
   7023SM  H15T 9141   4.575   1.395  12.580 -0.1606 -0.8698  1.6656
   7023SM  C16S 9142   4.739   1.510  12.479  0.1644 -0.4015  0.3303
   7023SM  H16S 9143   4.787   1.605  12.511 -1.1127 -0.1334  1.5318
   7023SM  H16T 9144   4.673   1.531  12.392 -1.2021  0.6941  1.5940
   7023SM  C17S 9145   4.850   1.420  12.437 -0.0658  0.4378  0.1869
   7023SM  H17S 9146   4.819   1.314  12.451 -0.0840  0.3875 -0.2232
   7023SM  H17T 9147   4.940   1.435  12.500 -1.1834  0.1534  1.9305
   7023SM  C18S 9148   4.881   1.408  12.289 -0.2986  0.2299  0.5311
   7023SM  H18S 9149   4.932   1.495  12.243 -0.5368  0.6975  1.1349
   7023SM  H18T 9150   4.788   1.383  12.233 -1.3820 -0.3951  2.5171
   7023SM  H18U 9151   4.946   1.322  12.265  0.3119  1.2858 -1.8899
   7023SM   C1F 9152   4.844   1.636  14.123  0.5739  0.9731 -0.3578
   7023SM    OF 9153   4.919   1.655  14.218 -0.1634 -0.2200 -0.2184
   7023SM   C2F 9154   4.808   1.744  14.028 -1.0100  0.7344  0.2678
   7023SM   H2F 9155   4.711   1.794  14.049 -1.1331  1.4964 -1.9194
   7023SM   H2G 9156   4.811   1.701  13.926  0.5597 -0.0175  0.5941
   7023SM   C3F 9157   4.906   1.855  14.070  1.0024 -0.2020  0.3747
   7023SM   H3F 9158   5.015   1.830  14.067  1.8638  3.1869 -1.1973
   7023SM   H3G 9159   4.882   1.901  14.168 -0.6162  0.0503 -0.1206
   7023SM   C4F 9160   4.904   1.965  13.958  0.4704  0.5263  0.2766
   7023SM   H4F 9161   4.965   2.049  13.999 -1.1698  1.2400  1.3678
   7023SM   H4G 9162   4.803   2.005  13.934  1.2537  2.2367 -0.3083
   7023SM   C5F 9163   4.969   1.920  13.831  0.5108  0.3698  0.4108
   7023SM   H5F 9164   4.920   1.839  13.773 -1.0348  2.7863 -1.9232
   7023SM   H5G 9165   5.075   1.890  13.849  0.9841  0.1527 -2.3065
   7023SM   C6F 9166   4.968   2.028  13.716  0.0866  0.2487  0.0999
   7023SM   H6F 9167   5.027   2.117  13.746  0.7518 -0.0302 -0.3634
   7023SM   H6G 9168   4.862   2.064  13.712 -1.1831 -3.0860  0.6529
   7023SM   C7F 9169   5.003   1.975  13.576 -0.0125  0.0199  0.0667
   7023SM   H7F 9170   4.926   1.898  13.554  0.1793 -1.3146  3.4149
   7023SM   H7G 9171   5.106   1.932  13.572  0.9031  2.1638 -0.7324
   7023SM   C8F 9172   4.990   2.089  13.467 -0.4234  0.1205 -0.5843
   7023SM   H8F 9173   5.071   2.162  13.486  0.9076 -0.5373 -3.1558
   7023SM   H8G 9174   4.889   2.135  13.466 -1.9197 -2.6989  2.1224
   7023SM   C9F 9175   5.019   2.031  13.328  0.6963 -0.3603  0.3297
   7023SM   H9F 9176   4.919   1.997  13.294 -0.3471  2.8028 -0.1668
   7023SM   H9G 9177   5.093   1.949  13.337  0.4836 -0.6629 -0.6934
   7023SM  C10F 9178   5.064   2.146  13.225 -0.2526  0.5993 -0.0382
   7023SM  H10F 9179   5.169   2.151  13.261 -0.7963  0.2246  1.7034
   7023SM  H10G 9180   4.998   2.231  13.252 -0.7811 -0.2513  1.5061
   7023SM  C11F 9181   5.039   2.109  13.079  0.1980 -0.3792 -0.0697
   7023SM  H11F 9182   4.930   2.095  13.065  0.3270  0.3048 -2.1867
   7023SM  H11G 9183   5.090   2.014  13.052  2.2568  0.8620 -0.8669
   7023SM  C12F 9184   5.073   2.223  12.980 -0.3808  0.3239  0.3101
   7023SM  H12F 9185   5.184   2.225  12.976 -0.4306  0.1434 -1.8996
   7023SM  H12G 9186   5.034   2.315  13.028  0.3171  1.2522 -0.8490
   7023SM  C13F 9187   5.004   2.200  12.844 -0.4348  0.3279 -0.2847
   7023SM  H13F 9188   4.894   2.213  12.856 -0.7998 -1.4601 -1.2800
   7023SM  H13G 9189   5.019   2.099  12.801 -0.9750 -0.0067  0.2827
   7023SM  C14F 9190   5.038   2.300  12.739  0.5212  0.1262  0.4802
   7023SM  H14F 9191   5.149   2.301  12.728  0.7848 -1.1051  2.5265
   7023SM  H14G 9192   5.011   2.407  12.752  1.1652  0.4450 -0.6038
   7023SM  C15F 9193   4.984   2.263  12.599 -0.2963 -0.3070 -0.4433
   7023SM  H15F 9194   4.983   2.153  12.586 -0.3089 -0.4269  0.4925
   7023SM  H15G 9195   5.045   2.317  12.523  0.9412  0.9008  1.3082
   7023SM  C16F 9196   4.836   2.294  12.581 -0.0509 -0.0495  0.4372
   7023SM  H16F 9197   4.809   2.401  12.594 -2.1532 -0.7026  2.0720
   7023SM  H16G 9198   4.788   2.225  12.654  1.5028 -1.5611  0.0982
   7023SM  C17F 9199   4.796   2.259  12.445  0.0509 -0.3175  0.4201
   7023SM  H17F 9200   4.827   2.155  12.423  1.7726  0.7205 -2.8684
   7023SM  H17G 9201   4.847   2.322  12.368  0.8167  1.4903  2.3172
   7023SM  C18F 9202   4.647   2.282  12.417  0.1220 -0.1141 -0.2011
   7023SM  H18F 9203   4.610   2.380  12.453 -1.9844 -1.4786  1.6532
   7023SM  H18G 9204   4.592   2.206  12.477 -0.5474  0.1293 -0.4898
   7023SM  C19F 9205   4.600   2.256  12.267  0.0957 -0.0668  0.7584
   7023SM  H19F 9206   4.654   2.170  12.222 -1.0665 -0.5064  0.1775
   7023SM  H19G 9207   4.633   2.341  12.202  0.8216 -0.0377  1.1487
   7023SM  C20F 9208   4.452   2.230  12.263  0.1709  0.5122 -0.7634
   7023SM  H20F 9209   4.397   2.320  12.297  1.1656  0.6173  0.6423
   7023SM  H20G 9210   4.439   2.141  12.329 -0.5748 -0.2822 -1.9546
   7023SM  C21F 9211   4.410   2.217  12.116  0.6995 -1.3042  0.2162
   7023SM  H21F 9212   4.496   2.165  12.069  0.9385  0.2581 -1.1713
   7023SM  H21G 9213   4.408   2.319  12.074 -0.0632 -0.8913  1.2315
   7023SM  C22F 9214   4.283   2.135  12.096  0.3108  0.8726  0.5427
   7023SM  H22F 9215   4.296   2.042  12.155 -0.6141  1.0502  1.0431
   7023SM  H22G 9216   4.276   2.111  11.987  1.0624 -2.1761  1.0685
   7023SM  C23F 9217   4.158   2.210  12.140  0.4014  0.6984  0.2409
   7023SM  H23F 9218   4.068   2.154  12.104  0.3069 -0.5023  2.2466
   7023SM  H23G 9219   4.159   2.310  12.091  1.4800 -0.2713 -1.8570
   7023SM  H23H 9220   4.156   2.216  12.250  0.3859 -0.2448  0.3012
   7123SM     N 9221   4.130   0.798  14.611  0.6856 -0.2676 -0.2914
   7123SM   C15 9222   4.063   0.877  14.721  0.1648  1.0823  0.3613
   7123SM  H15A 9223   3.964   0.836  14.738  0.1648  1.5751  1.6628
   7123SM  H15B 9224   4.060   0.984  14.705  2.3660  0.7690 -3.1585
   7123SM  H15C 9225   4.122   0.858  14.810  1.1184  0.2656 -0.4198
   7123SM   C14 9226   4.166   0.656  14.658 -0.2313 -0.7737  0.0745
   7123SM  H14A 9227   4.227   0.607  14.583  0.4148 -0.1074  0.1542
   7123SM  H14B 9228   4.074   0.600  14.662 -0.4626 -0.3289  1.2617
   7123SM  H14C 9229   4.213   0.653  14.755 -0.7623 -2.8680  0.3264
   7123SM   C13 9230   4.034   0.791  14.499  0.8741 -0.4952 -0.1058
   7123SM  H13A 9231   4.001   0.887  14.463 -1.2001 -0.6121  1.2969
   7123SM  H13B 9232   3.947   0.745  14.545  1.5559 -1.3057  0.3994
   7123SM  H13C 9233   4.063   0.733  14.413 -1.4844 -0.2818 -1.1395
   7123SM   C12 9234   4.255   0.872  14.573  0.8224 -0.1159 -0.4273
   7123SM  H12A 9235   4.320   0.896  14.655  2.4170 -0.7627 -1.4577
   7123SM  H12B 9236   4.221   0.964  14.526 -0.1088 -0.8725 -1.2840
   7123SM   C11 9237   4.350   0.799  14.469  0.5082  0.1156  0.2079
   7123SM  H11A 9238   4.433   0.869  14.447 -2.1355  2.9068 -1.5314
   7123SM  H11B 9239   4.291   0.790  14.375  3.3643 -1.0704 -1.5965
   7123SM     P 9240   4.415   0.551  14.429  0.1176  0.2073 -0.3594
   7123SM   O13 9241   4.553   0.502  14.451  0.5419  0.2044  0.3867
   7123SM   O14 9242   4.304   0.458  14.472 -0.8577 -0.5988  0.1464
   7123SM   O11 9243   4.398   0.591  14.281 -0.0173  0.9262  0.0273
   7123SM   O12 9244   4.404   0.678  14.522  0.2570 -0.1028 -0.0203
   7123SM   C1S 9245   4.479   0.548  14.166  0.4546 -0.8980 -0.0962
   7123SM   H1S 9246   4.480   0.438  14.153  0.1159 -1.2377  2.3393
   7123SM   H1T 9247   4.583   0.578  14.191  0.3897 -1.3241  0.6992
   7123SM    NF 9248   4.496   0.557  13.911 -0.3242 -0.1260 -0.8049
   7123SM   HNF 9249   4.587   0.583  13.881 -0.1608  1.9762  1.2159
   7123SM   C2S 9250   4.442   0.630  14.028  0.6136 -0.0466 -0.4415
   7123SM   H2S 9251   4.331   0.630  14.016  0.4769  1.6552  0.5588
   7123SM   C3S 9252   4.472   0.785  14.044  0.0125 -0.4420 -0.0939
   7123SM   H3S 9253   4.577   0.809  14.068 -0.4924  2.1127 -0.1979
   7123SM    O3 9254   4.405   0.844  14.157  0.1808  0.1137  0.2648
   7123SM   HO3 9255   4.391   0.773  14.220  1.1434  0.6008  1.0613
   7123SM   C4S 9256   4.439   0.874  13.932  0.1519  0.2167  0.6298
   7123SM   H4S 9257   4.332   0.896  13.922  0.6556  2.1980 -1.1140
   7123SM   C5S 9258   4.513   0.952  13.853 -0.9211  0.3712 -0.4520
   7123SM   H5S 9259   4.622   0.949  13.860 -0.8050 -0.4124 -2.2156
   7123SM   C6S 9260   4.462   1.047  13.749 -0.6445 -0.4127  0.0049
   7123SM   H6S 9261   4.526   1.138  13.749 -0.4767 -0.5125  1.3180
   7123SM   H6T 9262   4.359   1.082  13.774 -0.1001 -0.0040  1.8372
   7123SM   C7S 9263   4.452   0.988  13.610  0.5347 -0.3295 -0.2074
   7123SM   H7S 9264   4.383   0.902  13.608  1.4026 -1.0877  1.1768
   7123SM   H7T 9265   4.546   0.946  13.568  2.2910  1.4651  1.6888
   7123SM   C8S 9266   4.395   1.090  13.505 -0.1424 -0.2963 -0.2244
   7123SM   H8S 9267   4.451   1.185  13.492  0.7165 -0.8788 -0.8994
   7123SM   H8T 9268   4.299   1.134  13.540  0.0254  0.3295 -0.5260
   7123SM   C9S 9269   4.374   1.024  13.372 -0.5872  0.7935 -0.7658
   7123SM   H9S 9270   4.275   0.975  13.373  0.1818 -1.0768  3.1533
   7123SM   H9T 9271   4.434   0.931  13.364 -1.4217 -0.0773  1.9630
   7123SM  C10S 9272   4.389   1.118  13.250 -0.0102 -0.0287 -0.4561
   7123SM  H10S 9273   4.484   1.172  13.271 -1.1837  1.2077  2.1417
   7123SM  H10T 9274   4.315   1.200  13.259  0.8116  0.6102  1.0100
   7123SM  C11S 9275   4.384   1.052  13.115  0.0879  0.0491  0.3275
   7123SM  H11S 9276   4.279   1.023  13.095 -0.0289 -1.0069  2.2222
   7123SM  H11T 9277   4.452   0.965  13.120 -1.0469 -0.8677  0.1360
   7123SM  C12S 9278   4.435   1.134  12.993  0.2173  0.2493  0.1512
   7123SM  H12S 9279   4.546   1.138  12.999  0.5343 -2.4082 -1.8757
   7123SM  H12T 9280   4.381   1.231  12.999 -1.1565 -0.5431  1.7969
   7123SM  C13S 9281   4.391   1.061  12.863 -0.0735 -0.1956  0.2226
   7123SM  H13S 9282   4.285   1.029  12.872 -0.7830  1.7698 -0.4970
   7123SM  H13T 9283   4.440   0.966  12.835 -0.0380  0.2366 -1.2478
   7123SM  C14S 9284   4.413   1.146  12.737 -0.2609  0.1784 -0.3128
   7123SM  H14S 9285   4.519   1.178  12.726 -0.4603  1.3390  0.8065
   7123SM  H14T 9286   4.359   1.243  12.747 -0.7637  0.1136 -2.0281
   7123SM  C15S 9287   4.359   1.087  12.606  0.5061 -0.0991 -0.1458
   7123SM  H15S 9288   4.370   1.168  12.531 -0.0796 -0.5239 -0.7067
   7123SM  H15T 9289   4.250   1.073  12.623  0.0119  2.2205 -0.9796
   7123SM  C16S 9290   4.415   0.951  12.558 -0.0387  0.6314  0.2132
   7123SM  H16S 9291   4.381   0.857  12.605 -0.2301  0.4634 -0.2541
   7123SM  H16T 9292   4.524   0.964  12.571  0.3904 -1.4377 -0.9572
   7123SM  C17S 9293   4.397   0.907  12.411 -0.0948  0.0641  0.2844
   7123SM  H17S 9294   4.411   0.991  12.340 -0.8590  0.2285  0.3199
   7123SM  H17T 9295   4.287   0.887  12.403 -0.2404  0.3799  1.3896
   7123SM  C18S 9296   4.467   0.779  12.371  0.4978  0.2728 -0.2340
   7123SM  H18S 9297   4.465   0.763  12.261 -0.2570  1.6190 -0.4399
   7123SM  H18T 9298   4.437   0.694  12.435  0.8730  1.8598  2.1953
   7123SM  H18U 9299   4.571   0.806  12.400  1.1117 -0.8812 -1.2947
   7123SM   C1F 9300   4.442   0.443  13.870 -0.4581 -0.2218  0.1421
   7123SM    OF 9301   4.334   0.410  13.917  0.2163  0.2979 -0.2177
   7123SM   C2F 9302   4.521   0.368  13.763  0.0479 -0.3741  0.0434
   7123SM   H2F 9303   4.614   0.339  13.817  0.4143  0.1348 -0.3038
   7123SM   H2G 9304   4.541   0.436  13.677  2.0834  0.0551  0.8118
   7123SM   C3F 9305   4.432   0.255  13.715 -0.6354 -0.3883  0.2203
   7123SM   H3F 9306   4.338   0.291  13.669  0.0162  0.8933 -0.1514
   7123SM   H3G 9307   4.414   0.183  13.798 -0.3510 -0.1673  0.4741
   7123SM   C4F 9308   4.485   0.159  13.607 -0.0372  0.1519 -0.0437
   7123SM   H4F 9309   4.411   0.078  13.590  0.8372 -0.5130 -0.8194
   7123SM   H4G 9310   4.582   0.122  13.646 -0.1422 -0.0334  0.0397
   7123SM   C5F 9311   4.511   0.219  13.469 -0.1494 -0.6986  0.3039
   7123SM   H5F 9312   4.595   0.292  13.478  0.4349 -1.0537 -1.6795
   7123SM   H5G 9313   4.419   0.272  13.434  1.5129  1.5717 -0.8900
   7123SM   C6F 9314   4.549   0.116  13.366  0.4251  0.2783  1.0013
   7123SM   H6F 9315   4.470   0.039  13.353  0.6869 -0.1759  2.0081
   7123SM   H6G 9316   4.643   0.062  13.392 -0.9313 -1.1858  3.1930
   7123SM   C7F 9317   4.573   0.190  13.226 -0.9353 -0.6026  0.2268
   7123SM   H7F 9318   4.660   0.258  13.234 -0.3749 -1.3626  0.6387
   7123SM   H7G 9319   4.487   0.261  13.216 -0.0630  0.4939  0.2711
   7123SM   C8F 9320   4.582   0.089  13.112 -0.2773 -0.6149  0.1349
   7123SM   H8F 9321   4.486   0.034  13.114 -1.3707  1.1524 -0.9424
   7123SM   H8G 9322   4.668   0.020  13.118  0.8357  0.2337 -3.4332
   7123SM   C9F 9323   4.605   0.158  12.977  0.4193  0.0237 -0.5200
   7123SM   H9F 9324   4.690   0.224  13.001  0.9579 -0.8751  0.1019
   7123SM   H9G 9325   4.517   0.221  12.952  1.9939  1.9637 -1.5170
   7123SM  C10F 9326   4.665   0.070  12.866  0.3974  0.0016 -0.7739
   7123SM  H10F 9327   4.742   0.001  12.907 -1.9380 -1.9230  0.5848
   7123SM  H10G 9328   4.709   0.144  12.795  0.2419 -2.6161 -3.8050
   7123SM  C11F 9329   4.553   0.007  12.775 -0.6597 -0.3232  0.1588
   7123SM  H11F 9330   4.480   0.081  12.736 -0.3639  0.9506  1.8837
   7123SM  H11G 9331   4.505  -0.071  12.838  0.3743 -0.3951  0.8827
   7123SM  C12F 9332   4.619  -0.053  12.652 -0.6902  0.0534 -0.0794
   7123SM  H12F 9333   4.673   0.027  12.596  0.5335  0.1565  1.1737
   7123SM  H12G 9334   4.544  -0.091  12.580 -0.5976  0.2497 -0.2816
   7123SM  C13F 9335   4.718  -0.170  12.673 -0.1945  0.4223 -0.5192
   7123SM  H13F 9336   4.660  -0.264  12.671 -0.8505  0.7669  0.9729
   7123SM  H13G 9337   4.768  -0.159  12.772  0.5362 -3.1103 -0.3563
   7123SM  C14F 9338   4.836  -0.174  12.575 -0.0288  0.4999  0.8004
   7123SM  H14F 9339   4.912  -0.096  12.595  2.4787 -0.2911 -4.0529
   7123SM  H14G 9340   4.807  -0.163  12.468  0.6196  0.6685  0.6405
   7123SM  C15F 9341   4.935  -0.296  12.572  0.6085 -0.1125  0.0589
   7123SM  H15F 9342   4.967  -0.319  12.676  0.0196 -0.2621  0.2124
   7123SM  H15G 9343   5.023  -0.260  12.515 -1.2401  2.9562 -1.1629
   7123SM  C16F 9344   4.868  -0.415  12.505 -0.9631  0.2843  0.1913
   7123SM  H16F 9345   4.766  -0.392  12.467 -1.0732 -0.5277 -0.0397
   7123SM  H16G 9346   4.842  -0.493  12.580 -1.1520 -0.1998 -0.3684
   7123SM  C17F 9347   4.965  -0.465  12.397  0.0566  0.2112  0.0182
   7123SM  H17F 9348   5.058  -0.502  12.444  0.0482 -0.4291 -0.4591
   7123SM  H17G 9349   4.987  -0.387  12.321  0.0726  0.3618  0.1749
   7123SM  C18F 9350   4.926  -0.588  12.316  0.4588  0.5282  0.6967
   7123SM  H18F 9351   4.828  -0.579  12.266 -0.6207 -1.9656  2.1903
   7123SM  H18G 9352   4.910  -0.674  12.385  2.9959 -2.6063 -2.2064
   7123SM  C19F 9353   5.029  -0.631  12.216 -0.1747 -0.5318  0.0784
   7123SM  H19F 9354   5.117  -0.660  12.277 -1.3150 -0.9666  1.5821
   7123SM  H19G 9355   5.049  -0.537  12.161  1.3089 -0.6703  0.3511
   7123SM  C20F 9356   4.997  -0.756  12.133  0.2139 -0.3336  0.2388
   7123SM  H20F 9357   4.893  -0.737  12.098  0.5173  2.3861  0.5528
   7123SM  H20G 9358   5.013  -0.846  12.195 -0.6995  0.4250  1.6411
   7123SM  C21F 9359   5.088  -0.784  12.011  0.4109 -0.0770 -0.0992
   7123SM  H21F 9360   5.072  -0.888  11.975  1.1664 -0.5666  0.9364
   7123SM  H21G 9361   5.193  -0.798  12.046  0.0160 -2.2922  0.3581
   7123SM  C22F 9362   5.094  -0.670  11.906 -0.0868  0.4532  0.0043
   7123SM  H22F 9363   5.161  -0.710  11.827 -1.4586  1.7562 -1.9256
   7123SM  H22G 9364   5.147  -0.585  11.954  1.3330 -0.4882  0.1675
   7123SM  C23F 9365   4.961  -0.637  11.852 -0.6487  0.5455  0.4600
   7123SM  H23F 9366   4.971  -0.589  11.752  0.5894 -1.3731 -0.4024
   7123SM  H23G 9367   4.906  -0.590  11.936  0.4318 -2.1368  2.8194
   7123SM  H23H 9368   4.905  -0.727  11.816 -0.1765 -0.0728  1.2376
   7223SM     N 9369   6.423   3.810  15.260  0.2765  0.4245 -0.3583
   7223SM   C15 9370   6.446   3.742  15.391 -0.1198 -0.5408 -0.0780
   7223SM  H15A 9371   6.391   3.784  15.474 -0.5815  1.0120 -1.1180
   7223SM  H15B 9372   6.552   3.752  15.409 -0.3619  0.7042  0.8552
   7223SM  H15C 9373   6.429   3.636  15.394  0.2469 -0.5845  1.3175
   7223SM   C14 9374   6.280   3.839  15.236 -0.3309 -0.2486  0.0135
   7223SM  H14A 9375   6.238   3.897  15.316 -1.1531 -1.9720  0.8768
   7223SM  H14B 9376   6.215   3.754  15.246 -0.7647  0.0587 -0.1932
   7223SM  H14C 9377   6.263   3.891  15.143  0.1669 -1.4277 -0.7655
   7223SM   C13 9378   6.503   3.937  15.261 -0.9195 -0.0103  0.3392
   7223SM  H13A 9379   6.609   3.920  15.265 -0.7249  0.9583 -0.4145
   7223SM  H13B 9380   6.484   4.000  15.347  0.9626 -1.5316  1.9608
   7223SM  H13C 9381   6.488   3.988  15.167 -0.6684 -1.3121 -0.4302
   7223SM   C12 9382   6.476   3.715  15.149 -0.4553 -0.7921  0.3990
   7223SM  H12A 9383   6.453   3.756  15.052 -2.0101 -1.2851  0.5440
   7223SM  H12B 9384   6.425   3.620  15.154 -2.0245 -0.5739 -5.0641
   7223SM   C11 9385   6.634   3.687  15.164  0.4295  0.1804  0.5427
   7223SM  H11A 9386   6.684   3.781  15.198  1.0268 -0.8054  2.5245
   7223SM  H11B 9387   6.686   3.678  15.066 -0.1527 -1.2367  0.3357
   7223SM     P 9388   6.611   3.440  15.240  0.1723  0.0225  0.1484
   7223SM   O13 9389   6.706   3.352  15.305 -0.5480  0.1669  0.4293
   7223SM   O14 9390   6.469   3.448  15.280 -0.4761  0.5620  0.0543
   7223SM   O11 9391   6.609   3.416  15.081  0.6649 -0.4131  0.1161
   7223SM   O12 9392   6.676   3.585  15.254 -0.2272  0.0888  0.1080
   7223SM   C1S 9393   6.707   3.330  15.026 -0.0489 -0.8033  0.2496
   7223SM   H1S 9394   6.721   3.239  15.088  0.8306  0.8107  2.5810
   7223SM   H1T 9395   6.805   3.381  15.022 -0.7069  0.4889  0.0432
   7223SM    NF 9396   6.741   3.186  14.828 -0.4020  0.0213 -0.6827
   7223SM   HNF 9397   6.793   3.218  14.749  0.9603  3.2018  1.2829
   7223SM   C2S 9398   6.657   3.295  14.882  0.8887  0.1544  0.5426
   7223SM   H2S 9399   6.555   3.250  14.883  1.2276 -1.0830 -3.5659
   7223SM   C3S 9400   6.643   3.418  14.786  0.1499  0.0455 -0.0941
   7223SM   H3S 9401   6.742   3.460  14.759  1.0690 -1.7359  0.3771
   7223SM    O3 9402   6.575   3.532  14.841 -0.0261 -0.1919 -0.0670
   7223SM   HO3 9403   6.581   3.512  14.934 -1.4014 -1.4168 -0.1958
   7223SM   C4S 9404   6.565   3.373  14.662 -0.0076 -0.2630  0.1455
   7223SM   H4S 9405   6.461   3.348  14.687 -0.5881  0.0077 -1.8124
   7223SM   C5S 9406   6.622   3.341  14.544  0.0579  0.6499  0.1992
   7223SM   H5S 9407   6.731   3.340  14.530 -0.0508 -0.4186 -0.6640
   7223SM   C6S 9408   6.539   3.277  14.436 -0.1051 -0.3476 -0.2154
   7223SM   H6S 9409   6.552   3.333  14.341 -3.1339 -2.1087 -1.8017
   7223SM   H6T 9410   6.432   3.281  14.463  0.0707 -0.2241  0.5080
   7223SM   C7S 9411   6.584   3.135  14.410  0.2594 -0.0669  0.6390
   7223SM   H7S 9412   6.515   3.084  14.340  2.2075 -2.0535  0.0815
   7223SM   H7T 9413   6.571   3.077  14.504 -1.5432 -1.0016 -0.1441
   7223SM   C8S 9414   6.729   3.121  14.360  0.0882 -0.2408  0.3017
   7223SM   H8S 9415   6.763   3.018  14.381  1.8117  0.2177 -0.0557
   7223SM   H8T 9416   6.804   3.184  14.412  1.0332 -1.7739  0.8627
   7223SM   C9S 9417   6.743   3.149  14.206 -0.7358  0.7238 -0.7134
   7223SM   H9S 9418   6.701   3.248  14.179 -1.5391  0.1998 -1.4412
   7223SM   H9T 9419   6.673   3.078  14.158 -3.6212  1.9679  1.4089
   7223SM  C10S 9420   6.882   3.123  14.149  0.0283  0.2123 -0.0856
   7223SM  H10S 9421   6.936   3.055  14.219 -2.5928 -2.0082 -0.0429
   7223SM  H10T 9422   6.938   3.218  14.137  2.0889 -0.8760  0.3676
   7223SM  C11S 9423   6.867   3.059  14.011 -0.6315 -0.0823  0.0213
   7223SM  H11S 9424   6.820   3.117  13.928  2.0437  3.3738  0.6302
   7223SM  H11T 9425   6.805   2.968  14.019 -0.5727 -0.1473 -0.2278
   7223SM  C12S 9426   7.002   3.002  13.953  0.8352  0.1470 -0.1738
   7223SM  H12S 9427   7.027   2.909  14.010 -0.0185 -0.1511 -0.2795
   7223SM  H12T 9428   7.079   3.081  13.958  0.2706  0.7508 -0.8334
   7223SM  C13S 9429   6.992   2.958  13.808 -0.0657 -0.3010  0.2967
   7223SM  H13S 9430   6.911   2.889  13.777 -0.0409  0.4373 -1.5625
   7223SM  H13T 9431   7.082   2.896  13.787 -0.5037 -0.9241  0.2432
   7223SM  C14S 9432   6.978   3.077  13.711 -0.9254  0.7983 -0.0879
   7223SM  H14S 9433   7.044   3.163  13.735  0.9911  0.7350 -4.3465
   7223SM  H14T 9434   6.877   3.123  13.712  0.1019  3.2649 -1.0231
   7223SM  C15S 9435   6.997   3.039  13.565 -0.2773  0.5027 -0.0756
   7223SM  H15S 9436   6.933   2.951  13.543  0.5415 -0.3746  0.9384
   7223SM  H15T 9437   7.101   3.002  13.554 -0.0677  1.6018 -2.3398
   7223SM  C16S 9438   6.963   3.147  13.468 -0.4108 -0.2445  0.5662
   7223SM  H16S 9439   7.014   3.243  13.493  0.6516 -0.3612 -1.0128
   7223SM  H16T 9440   6.853   3.156  13.476 -0.4258 -1.8418  3.9692
   7223SM  C17S 9441   7.012   3.126  13.325  0.2274  0.1713  0.3201
   7223SM  H17S 9442   7.123   3.126  13.323  0.2458  0.4641  1.0592
   7223SM  H17T 9443   6.993   3.215  13.262 -0.3415  1.1175  1.7727
   7223SM  C18S 9444   6.959   3.003  13.255 -0.3806  0.2959 -0.1646
   7223SM  H18S 9445   6.849   3.019  13.246 -0.3458  1.1571  0.6852
   7223SM  H18T 9446   6.975   2.918  13.324 -2.3646  1.0270  1.3119
   7223SM  H18U 9447   7.008   2.985  13.157 -2.0645 -1.2616 -0.7777
   7223SM   C1F 9448   6.751   3.067  14.896 -0.5085  0.5156  0.0481
   7223SM    OF 9449   6.676   3.038  14.987 -0.1064 -0.1562  0.1181
   7223SM   C2F 9450   6.865   2.981  14.865 -0.1221 -0.2978 -0.8911
   7223SM   H2F 9451   6.954   3.028  14.912 -1.3342  2.8113 -1.4734
   7223SM   H2G 9452   6.869   2.986  14.754  1.8583 -0.3197 -0.8580
   7223SM   C3F 9453   6.842   2.828  14.891  0.2543  0.5852  0.1275
   7223SM   H3F 9454   6.746   2.794  14.848 -1.6224 -0.4349  4.5315
   7223SM   H3G 9455   6.825   2.802  14.998 -1.8110  1.0479 -0.0526
   7223SM   C4F 9456   6.965   2.736  14.857  0.4046 -0.3674 -0.3110
   7223SM   H4F 9457   6.952   2.631  14.889 -2.2248 -0.4093 -1.2585
   7223SM   H4G 9458   7.064   2.758  14.903 -0.6884 -2.0260  3.1421
   7223SM   C5F 9459   6.977   2.727  14.706  0.0407  0.4961 -0.0501
   7223SM   H5F 9460   6.994   2.832  14.674 -1.9012  0.4238 -1.4977
   7223SM   H5G 9461   6.876   2.705  14.666 -0.4959 -0.1627  1.5818
   7223SM   C6F 9462   7.085   2.631  14.647 -0.3975  0.4992 -0.2705
   7223SM   H6F 9463   7.056   2.530  14.683  3.2537  0.2364  2.5653
   7223SM   H6G 9464   7.181   2.658  14.696  0.4039 -0.2091 -1.4087
   7223SM   C7F 9465   7.092   2.629  14.497  1.4137  0.0789  0.1897
   7223SM   H7F 9466   7.109   2.733  14.460  0.2928  0.4060  0.5462
   7223SM   H7G 9467   6.991   2.605  14.459  1.5167  0.1192 -0.1105
   7223SM   C8F 9468   7.196   2.536  14.446  0.4904 -0.1002  0.2480
   7223SM   H8F 9469   7.167   2.432  14.470  1.3227 -0.5590 -0.6697
   7223SM   H8G 9470   7.296   2.563  14.487  0.1731 -1.1624  1.8000
   7223SM   C9F 9471   7.214   2.550  14.295  0.6131 -0.2018 -0.0025
   7223SM   H9F 9472   7.231   2.653  14.258  0.9577 -0.2845 -0.0824
   7223SM   H9G 9473   7.118   2.524  14.245  1.0748 -1.8372 -0.1096
   7223SM  C10F 9474   7.317   2.452  14.229  0.1778 -0.3714 -0.4363
   7223SM  H10F 9475   7.275   2.350  14.241  0.4387 -0.5272 -0.8035
   7223SM  H10G 9476   7.409   2.466  14.290  0.0688 -0.2632 -0.2977
   7223SM  C11F 9477   7.354   2.483  14.078  0.2278 -0.2090  0.2514
   7223SM  H11F 9478   7.388   2.396  14.019 -0.4769  0.6854 -1.5445
   7223SM  H11G 9479   7.445   2.547  14.082  0.4336 -0.4032 -1.0043
   7223SM  C12F 9480   7.254   2.557  13.990 -0.2350  0.3218  0.2750
   7223SM  H12F 9481   7.267   2.667  13.994 -1.0787  0.4131  0.5330
   7223SM  H12G 9482   7.150   2.530  14.016  0.7141 -0.8520  3.3270
   7223SM  C13F 9483   7.274   2.527  13.839  0.1247  0.1881  0.6170
   7223SM  H13F 9484   7.266   2.416  13.835 -0.7748  0.1997  1.6277
   7223SM  H13G 9485   7.380   2.549  13.812  0.0332  0.4679  0.4863
   7223SM  C14F 9486   7.177   2.600  13.753 -0.0202  0.7446  0.2535
   7223SM  H14F 9487   7.203   2.705  13.780 -0.2690  0.3245  2.2986
   7223SM  H14G 9488   7.070   2.574  13.767 -0.2099  1.1010 -0.4891
   7223SM  C15F 9489   7.211   2.577  13.601  0.7246 -0.4965  0.0088
   7223SM  H15F 9490   7.175   2.477  13.566 -0.2774  0.4837 -1.9678
   7223SM  H15G 9491   7.321   2.585  13.590  0.6107 -0.8565 -1.8028
   7223SM  C16F 9492   7.152   2.678  13.502  0.6595  0.3335 -0.5993
   7223SM  H16F 9493   7.186   2.781  13.524 -1.3397  0.6867  1.0883
   7223SM  H16G 9494   7.042   2.665  13.497  0.3821  2.1143  0.1193
   7223SM  C17F 9495   7.204   2.648  13.360  0.0170  0.8246 -0.7574
   7223SM  H17F 9496   7.219   2.538  13.366 -2.0210  0.5861  1.9914
   7223SM  H17G 9497   7.295   2.708  13.338 -1.0176  2.5985 -0.4456
   7223SM  C18F 9498   7.105   2.667  13.247 -0.0647  0.3507  0.0801
   7223SM  H18F 9499   7.106   2.771  13.208  0.1522  0.4002  0.2129
   7223SM  H18G 9500   7.005   2.647  13.292  0.3695 -0.6000  0.6464
   7223SM  C19F 9501   7.133   2.571  13.127  0.1778 -0.0244 -0.9856
   7223SM  H19F 9502   7.034   2.561  13.077 -0.6336  0.8284  0.3663
   7223SM  H19G 9503   7.161   2.472  13.169 -0.7693  0.7939  1.8302
   7223SM  C20F 9504   7.244   2.620  13.034  0.1363  0.1723  0.2437
   7223SM  H20F 9505   7.317   2.682  13.090  1.0816  0.8406 -1.6361
   7223SM  H20G 9506   7.202   2.685  12.954 -0.3710  0.1043  0.4492
   7223SM  C21F 9507   7.310   2.505  12.965 -0.2889  0.0602 -0.2747
   7223SM  H21F 9508   7.239   2.427  12.931  2.3887 -1.6259 -2.5039
   7223SM  H21G 9509   7.366   2.459  13.049  2.2632  0.6702 -1.5527
   7223SM  C22F 9510   7.395   2.555  12.852  0.1212 -0.4444  0.0152
   7223SM  H22F 9511   7.473   2.479  12.830 -0.3423 -1.1833  0.8653
   7223SM  H22G 9512   7.439   2.654  12.877  2.3429 -0.7512 -2.2569
   7223SM  C23F 9513   7.313   2.562  12.717 -0.8852 -0.3071  0.0560
   7223SM  H23F 9514   7.235   2.642  12.718 -0.5319  0.0392  0.0310
   7223SM  H23G 9515   7.268   2.462  12.702  0.3555 -0.6007 -2.0210
   7223SM  H23H 9516   7.389   2.575  12.637 -1.5512 -0.6178 -0.6484
   7323SM     N 9517   5.145   0.922  14.396 -0.1173  0.3191  0.1966
   7323SM   C15 9518   5.032   0.843  14.442 -0.0639  0.0988 -0.5422
   7323SM  H15A 9519   4.987   0.870  14.536 -0.3518 -1.6530 -0.1463
   7323SM  H15B 9520   5.050   0.739  14.465 -0.2835 -0.0626 -1.0849
   7323SM  H15C 9521   4.949   0.855  14.373 -0.7593  0.1646  0.2922
   7323SM   C14 9522   5.105   1.063  14.389 -0.0727  0.3871  0.0584
   7323SM  H14A 9523   5.086   1.108  14.485 -1.4433  0.8253 -0.3787
   7323SM  H14B 9524   5.015   1.085  14.333 -0.3509 -0.5875  0.1014
   7323SM  H14C 9525   5.193   1.117  14.358  0.9650 -0.9684  0.6050
   7323SM   C13 9526   5.258   0.902  14.487  0.0782 -0.1414 -0.7019
   7323SM  H13A 9527   5.238   0.944  14.584 -0.9399 -0.0607 -0.9318
   7323SM  H13B 9528   5.354   0.938  14.454  0.9092 -1.5862  0.0256
   7323SM  H13C 9529   5.275   0.795  14.493 -1.4848 -0.3456  1.2306
   7323SM   C12 9530   5.189   0.880  14.253  0.2755 -0.0541  0.0270
   7323SM  H12A 9531   5.265   0.949  14.222 -0.1568 -0.1207 -1.2301
   7323SM  H12B 9532   5.100   0.896  14.195  0.8576 -2.7395 -1.8080
   7323SM   C11 9533   5.242   0.736  14.218 -0.1661 -0.0389  0.1417
   7323SM  H11A 9534   5.268   0.728  14.110  0.0656 -2.9252  0.3375
   7323SM  H11B 9535   5.161   0.663  14.237 -0.3368  0.2421  0.5078
   7323SM     P 9536   5.490   0.646  14.254 -0.2315  0.2471 -0.0823
   7323SM   O13 9537   5.599   0.687  14.350 -0.2690  0.2757  0.1586
   7323SM   O14 9538   5.476   0.502  14.231  0.1368  0.0943  0.3434
   7323SM   O11 9539   5.498   0.728  14.122 -0.3527 -0.8700 -0.2883
   7323SM   O12 9540   5.355   0.708  14.304  0.0212  0.1922  0.0215
   7323SM   C1S 9541   5.540   0.863  14.115  0.2405 -0.0283  0.4375
   7323SM   H1S 9542   5.615   0.883  14.194 -1.0013 -1.3054  2.0083
   7323SM   H1T 9543   5.451   0.929  14.124  0.6840  0.4564  1.3429
   7323SM    NF 9544   5.526   0.892  13.868  0.3551  0.5968  0.9283
   7323SM   HNF 9545   5.530   0.834  13.787  4.1954  1.1892  0.5238
   7323SM   C2S 9546   5.617   0.883  13.976  0.3548  0.7708 -0.3589
   7323SM   H2S 9547   5.662   0.984  13.977 -0.5234  1.2033 -1.7265
   7323SM   C3S 9548   5.734   0.776  13.962 -0.3400  0.1142 -0.4869
   7323SM   H3S 9549   5.692   0.677  13.935  2.1884 -1.4948  1.0782
   7323SM    O3 9550   5.800   0.749  14.084  0.1209  0.2268 -0.1246
   7323SM   HO3 9551   5.730   0.748  14.149 -1.1999 -0.7009 -1.4943
   7323SM   C4S 9552   5.835   0.819  13.860 -0.6299  0.0339 -0.1737
   7323SM   H4S 9553   5.818   0.766  13.765 -2.9529  1.2929 -0.5453
   7323SM   C5S 9554   5.936   0.916  13.864  0.2111 -0.3850  0.1817
   7323SM   H5S 9555   5.952   0.969  13.959  1.0769  0.6917 -0.5526
   7323SM   C6S 9556   6.021   0.964  13.748 -0.5768  0.5464  0.2723
   7323SM   H6S 9557   6.128   0.938  13.763 -0.3571  1.6526  0.6765
   7323SM   H6T 9558   6.021   1.074  13.730 -1.6825  0.4151 -0.6289
   7323SM   C7S 9559   5.984   0.903  13.612  0.0713  0.1399  0.8153
   7323SM   H7S 9560   5.891   0.948  13.571  1.2268 -0.1696 -2.4697
   7323SM   H7T 9561   5.959   0.795  13.624 -1.8649  0.4443 -0.1432
   7323SM   C8S 9562   6.088   0.922  13.507 -0.4539  0.4797  0.2659
   7323SM   H8S 9563   6.184   0.867  13.510 -0.9004 -0.4186 -1.0694
   7323SM   H8T 9564   6.127   1.025  13.494  1.1033  0.0310  1.1446
   7323SM   C9S 9565   6.027   0.903  13.367  0.1213 -0.1791 -0.1422
   7323SM   H9S 9566   5.947   0.979  13.354  2.3480  2.3519  0.1095
   7323SM   H9T 9567   5.979   0.803  13.366  0.4624 -0.3448 -0.1500
   7323SM  C10S 9568   6.130   0.915  13.249 -0.4446 -0.0150 -0.2382
   7323SM  H10S 9569   6.218   0.847  13.260 -1.2532 -1.0215  0.1388
   7323SM  H10T 9570   6.164   1.019  13.229  0.8857  0.1281  2.3815
   7323SM  C11S 9571   6.061   0.880  13.112 -0.1272 -0.6550  0.1316
   7323SM  H11S 9572   5.970   0.942  13.095  0.8861  0.7654 -0.3090
   7323SM  H11T 9573   6.032   0.773  13.111  2.9946 -1.6143 -1.9966
   7323SM  C12S 9574   6.137   0.904  12.979  0.4521  0.2477 -0.5503
   7323SM  H12S 9575   6.208   0.819  12.982 -0.7724 -0.8168  3.3954
   7323SM  H12T 9576   6.196   0.997  12.988  2.0580 -0.5225 -2.3608
   7323SM  C13S 9577   6.047   0.910  12.858  0.2824 -0.3174 -0.6666
   7323SM  H13S 9578   5.996   1.008  12.864  1.9244  0.5166  0.6152
   7323SM  H13T 9579   5.960   0.841  12.862  0.0862 -0.1735 -1.9538
   7323SM  C14S 9580   6.115   0.879  12.725  0.3686  0.2275  0.3506
   7323SM  H14S 9581   6.120   0.768  12.718 -0.2937  0.0830  1.8499
   7323SM  H14T 9582   6.217   0.925  12.724  0.9657 -1.0141  1.4193
   7323SM  C15S 9583   6.024   0.922  12.615  0.3534 -0.7798  0.3069
   7323SM  H15S 9584   6.006   1.032  12.621  0.7639 -0.5764 -1.5475
   7323SM  H15T 9585   5.929   0.864  12.615 -0.9241  1.1558 -2.0047
   7323SM  C16S 9586   6.088   0.903  12.475  0.4968  0.6788  0.2463
   7323SM  H16S 9587   6.163   0.820  12.480 -0.7525 -0.4045  3.2975
   7323SM  H16T 9588   6.153   0.989  12.449  1.8364 -0.3340  0.1232
   7323SM  C17S 9589   5.979   0.862  12.364 -0.7710 -0.2366 -0.2065
   7323SM  H17S 9590   5.901   0.940  12.374  1.0686  1.6605  0.0274
   7323SM  H17T 9591   5.918   0.774  12.394 -1.9719  0.5116 -0.3928
   7323SM  C18S 9592   6.029   0.867  12.224  0.3443  0.2042  0.3910
   7323SM  H18S 9593   6.086   0.961  12.206  0.5336 -0.1398 -0.8951
   7323SM  H18T 9594   5.936   0.865  12.163  0.1007  0.3076  0.7558
   7323SM  H18U 9595   6.104   0.788  12.201  0.6607  0.7165 -0.4156
   7323SM   C1F 9596   5.428   0.979  13.861 -0.3183 -0.4883 -0.5966
   7323SM    OF 9597   5.431   1.087  13.926 -0.4012  0.1165  0.1305
   7323SM   C2F 9598   5.325   0.955  13.757  0.3253 -0.6387  0.1099
   7323SM   H2F 9599   5.280   0.854  13.764 -2.1073  0.4358  1.7466
   7323SM   H2G 9600   5.379   0.963  13.661  1.1412  0.3191  0.6291
   7323SM   C3F 9601   5.199   1.047  13.760  0.1094  0.3655  0.2174
   7323SM   H3F 9602   5.224   1.155  13.771 -0.7717  0.4831  1.2157
   7323SM   H3G 9603   5.142   1.014  13.850 -1.0216  1.0210 -0.2362
   7323SM   C4F 9604   5.114   1.035  13.628  0.2952  0.0240  0.2836
   7323SM   H4F 9605   5.006   1.054  13.647  0.2826 -0.0124  0.2458
   7323SM   H4G 9606   5.128   0.928  13.601 -1.4669 -0.9279  2.6919
   7323SM   C5F 9607   5.164   1.135  13.522 -0.0632 -0.0556  0.3267
   7323SM   H5F 9608   5.275   1.138  13.525 -0.0787  1.3587  0.0808
   7323SM   H5G 9609   5.139   1.237  13.560  0.1515  0.0482  0.1896
   7323SM   C6F 9610   5.103   1.107  13.391 -0.5823  0.1756  0.1261
   7323SM   H6F 9611   4.993   1.112  13.398 -0.5221 -0.0020  1.5923
   7323SM   H6G 9612   5.143   1.006  13.366  1.6475  0.6173  1.5582
   7323SM   C7F 9613   5.153   1.201  13.287 -0.5286  0.2209 -0.0763
   7323SM   H7F 9614   5.263   1.205  13.274 -0.6091  1.3665 -0.5230
   7323SM   H7G 9615   5.115   1.302  13.311  0.2098  0.3874  0.4345
   7323SM   C8F 9616   5.096   1.167  13.149  0.2005 -0.1089 -0.2464
   7323SM   H8F 9617   4.986   1.154  13.156  0.3935 -1.0069  1.8943
   7323SM   H8G 9618   5.114   1.059  13.131 -0.1759 -0.7063  2.4345
   7323SM   C9F 9619   5.142   1.242  13.025  0.2349  0.3612 -0.2400
   7323SM   H9F 9620   5.253   1.248  13.021  0.3777 -0.5111  1.5997
   7323SM   H9G 9621   5.112   1.349  13.028  0.6655  0.5408 -1.8361
   7323SM  C10F 9622   5.067   1.192  12.897  0.8199 -0.7458 -0.9007
   7323SM  H10F 9623   4.956   1.191  12.905  0.6963  1.4133 -1.7163
   7323SM  H10G 9624   5.087   1.083  12.892 -0.4677 -1.6481  5.3920
   7323SM  C11F 9625   5.095   1.265  12.768 -1.2332 -0.5705  0.0649
   7323SM  H11F 9626   5.047   1.365  12.770 -2.6648 -1.2339 -0.0851
   7323SM  H11G 9627   5.040   1.213  12.686 -0.2831 -2.9690  0.8532
   7323SM  C12F 9628   5.242   1.275  12.724 -0.4896 -0.2457 -0.4043
   7323SM  H12F 9629   5.285   1.173  12.730 -1.6290 -0.6911  0.3407
   7323SM  H12G 9630   5.294   1.334  12.803 -0.5034 -4.0754  2.7429
   7323SM  C13F 9631   5.255   1.325  12.576  0.3375  0.0645 -0.1599
   7323SM  H13F 9632   5.181   1.408  12.570 -0.2411 -0.4924 -1.0383
   7323SM  H13G 9633   5.215   1.250  12.505  1.2917  0.9759 -1.7236
   7323SM  C14F 9634   5.382   1.381  12.523 -0.2931  0.1553  0.9579
   7323SM  H14F 9635   5.464   1.310  12.547 -1.1908 -0.4756  2.2928
   7323SM  H14G 9636   5.396   1.475  12.582 -0.8644  0.5784  0.4283
   7323SM  C15F 9637   5.373   1.416  12.374 -0.4772 -0.2320  0.2820
   7323SM  H15F 9638   5.341   1.333  12.308  2.1468  0.1693 -1.6327
   7323SM  H15G 9639   5.472   1.448  12.337 -1.0990  1.6014  0.1186
   7323SM  C16F 9640   5.286   1.534  12.341  0.6922  0.1449  0.0035
   7323SM  H16F 9641   5.301   1.608  12.423  0.5818  1.5934 -1.2380
   7323SM  H16G 9642   5.178   1.516  12.362  0.6363  2.2369  1.8565
   7323SM  C17F 9643   5.323   1.604  12.213 -0.5819 -0.3156  0.2369
   7323SM  H17F 9644   5.429   1.597  12.180 -0.8755 -0.4925 -0.6912
   7323SM  H17G 9645   5.300   1.711  12.232  1.2792  0.2655 -0.5286
   7323SM  C18F 9646   5.248   1.547  12.087 -0.0621  0.6521 -0.1491
   7323SM  H18F 9647   5.140   1.527  12.103  0.0386  0.3732  0.2067
   7323SM  H18G 9648   5.274   1.439  12.076 -2.7441 -0.0239 -0.6249
   7323SM  C19F 9649   5.266   1.617  11.958 -0.3935  0.1004 -0.0970
   7323SM  H19F 9650   5.376   1.623  11.946 -0.3892 -0.5911 -0.4382
   7323SM  H19G 9651   5.209   1.712  11.969  0.7044  0.5090  3.2587
   7323SM  C20F 9652   5.205   1.527  11.841  0.3392 -0.5085 -0.5968
   7323SM  H20F 9653   5.181   1.600  11.761  1.8910  3.3325  2.1288
   7323SM  H20G 9654   5.104   1.493  11.873  0.1900  1.7920  1.6780
   7323SM  C21F 9655   5.313   1.428  11.772 -0.1431 -0.8528 -0.6723
   7323SM  H21F 9656   5.334   1.361  11.858  2.7312 -2.9599 -2.8186
   7323SM  H21G 9657   5.411   1.477  11.754 -0.6100  1.0142  1.3601
   7323SM  C22F 9658   5.251   1.355  11.653  0.2579  0.4816 -0.6623
   7323SM  H22F 9659   5.145   1.336  11.677  0.9977  0.4644  3.1473
   7323SM  H22G 9660   5.302   1.257  11.645  2.2644  1.3146  0.9173
   7323SM  C23F 9661   5.279   1.425  11.529 -0.3066 -0.0937  0.1354
   7323SM  H23F 9662   5.383   1.463  11.529 -0.0732 -0.7092 -0.7389
   7323SM  H23G 9663   5.200   1.503  11.517  0.3478  0.8276  1.5328
   7323SM  H23H 9664   5.254   1.365  11.439 -1.2561  0.1646  0.2155
   7423SM     N 9665   2.142   4.723  14.742  0.6815  0.5754  0.5647
   7423SM   C15 9666   2.005   4.782  14.758  0.1697 -0.4477 -0.4149
   7423SM  H15A 9667   2.004   4.890  14.770 -0.3907 -0.3127 -1.5165
   7423SM  H15B 9668   1.952   4.743  14.843  0.4573 -0.9099 -0.4493
   7423SM  H15C 9669   1.938   4.762  14.675  0.9629  1.5592 -1.6226
   7423SM   C14 9670   2.232   4.778  14.847  0.1846 -0.4520  0.1995
   7423SM  H14A 9671   2.331   4.736  14.842 -0.8279 -2.8915 -1.2725
   7423SM  H14B 9672   2.202   4.745  14.945  1.7993  2.1921  1.6910
   7423SM  H14C 9673   2.229   4.885  14.843  0.4507 -0.4714 -0.6364
   7423SM   C13 9674   2.136   4.572  14.768 -0.4338 -0.8287 -0.1596
   7423SM  H13A 9675   2.091   4.521  14.683 -1.1314  1.0067 -0.9336
   7423SM  H13B 9676   2.085   4.543  14.859  0.7441 -2.1231  0.1275
   7423SM  H13C 9677   2.238   4.538  14.774 -0.5937 -1.1581  0.8857
   7423SM   C12 9678   2.208   4.761  14.606  1.1649 -0.2097 -0.2547
   7423SM  H12A 9679   2.305   4.716  14.600 -0.1411 -3.1692 -1.1542
   7423SM  H12B 9680   2.205   4.868  14.594  0.0366 -0.4124 -2.1454
   7423SM   C11 9681   2.138   4.722  14.471 -0.6174  0.0502 -0.7976
   7423SM  H11A 9682   2.130   4.612  14.479 -1.2581  0.0082 -1.7786
   7423SM  H11B 9683   2.215   4.740  14.393  2.1149 -3.2056  0.8875
   7423SM     P 9684   1.997   4.932  14.413 -0.4644  0.1071 -0.0548
   7423SM   O13 9685   1.860   4.959  14.385  0.2506 -0.1659  0.4540
   7423SM   O14 9686   2.057   5.010  14.526 -0.1512  0.5382 -0.8296
   7423SM   O11 9687   2.082   4.943  14.280 -0.2164  0.0234 -0.3305
   7423SM   O12 9688   2.010   4.779  14.448 -0.1044  0.0425 -0.1047
   7423SM   C1S 9689   2.031   4.882  14.158  0.3970 -0.3767 -0.6518
   7423SM   H1S 9690   1.924   4.912  14.154 -0.0559 -1.8530 -0.4696
   7423SM   H1T 9691   2.028   4.771  14.164  0.1318 -0.3049  2.0230
   7423SM    NF 9692   2.047   4.932  13.912  0.0622 -0.2700 -0.1118
   7423SM   HNF 9693   2.072   4.873  13.836  1.3998  1.4477 -1.0875
   7423SM   C2S 9694   2.121   4.922  14.041 -0.0970  0.0542 -0.6097
   7423SM   H2S 9695   2.160   5.024  14.061  0.2437 -0.5651  2.3992
   7423SM   C3S 9696   2.243   4.826  14.034 -0.2650 -0.1926  0.0351
   7423SM   H3S 9697   2.209   4.728  13.992  0.5563 -0.5172  0.1065
   7423SM    O3 9698   2.302   4.798  14.160  0.8213 -0.4482  0.3378
   7423SM   HO3 9699   2.252   4.846  14.226  0.3403 -0.1066 -0.2615
   7423SM   C4S 9700   2.347   4.886  13.937 -0.3968 -0.2828  0.5201
   7423SM   H4S 9701   2.313   4.883  13.832  1.0126  0.2621  0.0365
   7423SM   C5S 9702   2.466   4.941  13.976  0.5662  0.0410 -0.7075
   7423SM   H5S 9703   2.483   4.954  14.084 -0.5991 -0.3390 -0.4542
   7423SM   C6S 9704   2.578   4.981  13.882  0.1277  0.1865 -0.1011
   7423SM   H6S 9705   2.661   4.908  13.896  0.1030  0.0750 -0.5468
   7423SM   H6T 9706   2.617   5.081  13.913  0.3452  0.3928 -1.0102
   7423SM   C7S 9707   2.550   4.975  13.728  0.0556 -0.1090 -0.0585
   7423SM   H7S 9708   2.460   5.038  13.712  1.1289  1.2162 -1.0085
   7423SM   H7T 9709   2.508   4.874  13.706 -1.1265  0.6016 -1.1537
   7423SM   C8S 9710   2.675   5.005  13.645 -0.6717  0.2541 -0.5258
   7423SM   H8S 9711   2.756   4.948  13.697 -1.7226  0.7350  1.7501
   7423SM   H8T 9712   2.714   5.109  13.640  2.7123 -0.9069 -1.8500
   7423SM   C9S 9713   2.658   4.963  13.500 -0.2497  0.3633  0.3141
   7423SM   H9S 9714   2.581   5.031  13.459 -0.0257  0.7795  0.5639
   7423SM   H9T 9715   2.623   4.858  13.501  2.3670 -0.6375 -1.4982
   7423SM  C10S 9716   2.782   4.975  13.412 -0.1341 -0.3095  1.1080
   7423SM  H10S 9717   2.860   4.923  13.473  1.5285 -0.0855 -0.7279
   7423SM  H10T 9718   2.811   5.081  13.398  1.1909 -0.9000 -1.0418
   7423SM  C11S 9719   2.762   4.904  13.279 -0.3854 -0.6967  0.4302
   7423SM  H11S 9720   2.653   4.895  13.257 -0.4766  2.5902 -1.0155
   7423SM  H11T 9721   2.799   4.800  13.288  0.0733 -0.4176  2.0511
   7423SM  C12S 9722   2.844   4.969  13.167  0.0255  0.2119 -0.3642
   7423SM  H12S 9723   2.953   4.970  13.190  0.1981  0.2243 -1.1241
   7423SM  H12T 9724   2.833   5.080  13.169  2.2268  0.5072 -1.1745
   7423SM  C13S 9725   2.810   4.917  13.026 -0.1842  0.7639 -0.0284
   7423SM  H13S 9726   2.700   4.910  13.010 -0.1276 -0.1366 -0.0754
   7423SM  H13T 9727   2.844   4.812  13.012  1.3254  1.2587 -0.2030
   7423SM  C14S 9728   2.891   4.988  12.907 -0.1262  0.5602 -0.6868
   7423SM  H14S 9729   2.997   4.959  12.918  0.0986  1.9262  1.0956
   7423SM  H14T 9730   2.892   5.099  12.903  2.4275  0.5781 -1.7977
   7423SM  C15S 9731   2.841   4.934  12.767 -0.4095  0.8248  0.7169
   7423SM  H15S 9732   2.851   4.824  12.768 -2.2635  0.5824 -0.7123
   7423SM  H15T 9733   2.908   4.972  12.687 -1.8085  2.0114  0.0643
   7423SM  C16S 9734   2.696   4.977  12.728 -0.4944 -0.5117 -0.0563
   7423SM  H16S 9735   2.633   4.947  12.814  0.9153 -0.3475  1.0789
   7423SM  H16T 9736   2.663   4.918  12.640 -0.0796 -0.0214 -0.5538
   7423SM  C17S 9737   2.688   5.128  12.710 -0.5286 -0.2610  0.7446
   7423SM  H17S 9738   2.747   5.156  12.621 -0.7765 -0.9173  0.3693
   7423SM  H17T 9739   2.735   5.183  12.795 -1.3479  0.4012  0.7893
   7423SM  C18S 9740   2.554   5.190  12.707  0.3141  0.3650  0.6074
   7423SM  H18S 9741   2.547   5.300  12.722 -0.3011  0.7342 -1.9364
   7423SM  H18T 9742   2.491   5.139  12.784 -0.5340 -0.2842 -0.4789
   7423SM  H18U 9743   2.503   5.175  12.610 -0.0527  1.4251  0.6230
   7423SM   C1F 9744   1.960   5.034  13.891  0.2281 -0.3202  0.3113
   7423SM    OF 9745   1.970   5.140  13.949 -0.4605  0.5211 -1.0086
   7423SM   C2F 9746   1.857   5.006  13.787 -0.3139  0.0399 -0.3579
   7423SM   H2F 9747   1.770   4.964  13.841 -2.3292  1.4802 -2.3015
   7423SM   H2G 9748   1.890   4.929  13.713  0.7583  0.9637 -0.8780
   7423SM   C3F 9749   1.813   5.130  13.710  0.0462  0.1183 -0.4721
   7423SM   H3F 9750   1.889   5.173  13.642  0.7312 -0.3812 -0.0410
   7423SM   H3G 9751   1.793   5.217  13.776 -0.3112 -2.0751  2.5317
   7423SM   C4F 9752   1.670   5.108  13.654 -0.6172  0.1061  0.3167
   7423SM   H4F 9753   1.625   5.200  13.612 -0.8497  0.0921  0.5297
   7423SM   H4G 9754   1.612   5.072  13.742  1.9634 -1.0547  1.6380
   7423SM   C5F 9755   1.668   5.002  13.545 -0.6619 -0.2593 -0.4448
   7423SM   H5F 9756   1.681   4.898  13.583 -1.5890 -0.5070 -0.7580
   7423SM   H5G 9757   1.756   5.029  13.483  0.1691 -1.5822  0.1210
   7423SM   C6F 9758   1.552   5.012  13.434 -0.1054 -0.6778  0.5521
   7423SM   H6F 9759   1.571   5.104  13.374 -1.7448 -0.2068  0.7208
   7423SM   H6G 9760   1.456   5.020  13.488 -1.7452  0.7519 -2.3515
   7423SM   C7F 9761   1.548   4.882  13.349  0.0173 -0.9515 -0.2539
   7423SM   H7F 9762   1.551   4.791  13.413  1.2462  0.0997  1.2396
   7423SM   H7G 9763   1.648   4.870  13.301 -0.4342 -0.8783 -1.2320
   7423SM   C8F 9764   1.440   4.881  13.246  0.0564 -0.2121  0.3266
   7423SM   H8F 9765   1.447   4.973  13.185  1.0615 -1.6643 -1.8567
   7423SM   H8G 9766   1.337   4.889  13.286 -0.1845  0.1205 -0.3620
   7423SM   C9F 9767   1.465   4.766  13.142  0.3456 -0.6623 -0.1810
   7423SM   H9F 9768   1.452   4.668  13.191  2.8616 -1.4140 -0.8393
   7423SM   H9G 9769   1.569   4.774  13.101 -0.0988 -0.6139 -1.3456
   7423SM  C10F 9770   1.378   4.773  13.023  0.2111  0.2747  0.0617
   7423SM  H10F 9771   1.415   4.857  12.961  2.5627 -0.0695  0.8789
   7423SM  H10G 9772   1.273   4.788  13.055  0.3573  1.8046 -0.1207
   7423SM  C11F 9773   1.377   4.651  12.931 -0.8134 -0.0637  0.7663
   7423SM  H11F 9774   1.341   4.560  12.982  0.7517 -1.2978 -0.2446
   7423SM  H11G 9775   1.477   4.627  12.890 -0.9496 -0.1396  0.4786
   7423SM  C12F 9776   1.283   4.678  12.809 -0.1774  0.0794 -0.1717
   7423SM  H12F 9777   1.295   4.784  12.778 -1.2291  0.2319 -0.0898
   7423SM  H12G 9778   1.175   4.673  12.835 -0.8370  4.3123 -1.3131
   7423SM  C13F 9779   1.307   4.598  12.688 -0.8103 -0.4088 -0.0699
   7423SM  H13F 9780   1.294   4.492  12.719 -0.7226  0.2185  2.3760
   7423SM  H13G 9781   1.414   4.602  12.660 -0.8806  1.6179 -0.1803
   7423SM  C14F 9782   1.224   4.643  12.569  0.5609  0.5969 -0.4889
   7423SM  H14F 9783   1.252   4.747  12.540  1.9031  1.3654  2.9830
   7423SM  H14G 9784   1.120   4.639  12.608  0.0603 -0.7872 -1.8665
   7423SM  C15F 9785   1.241   4.556  12.444  0.1182  0.2884  0.5362
   7423SM  H15F 9786   1.227   4.452  12.478 -1.5769 -0.7522 -2.8949
   7423SM  H15G 9787   1.347   4.560  12.410  0.2076  2.1468  0.9064
   7423SM  C16F 9788   1.147   4.599  12.330  0.1435  0.3520 -0.5169
   7423SM  H16F 9789   1.152   4.706  12.300 -0.7188 -0.2077 -2.8897
   7423SM  H16G 9790   1.045   4.584  12.372 -0.1674  1.9385 -0.6337
   7423SM  C17F 9791   1.163   4.511  12.201 -0.4346 -0.0212 -0.1460
   7423SM  H17F 9792   1.247   4.553  12.143 -1.1342 -0.4267 -1.5038
   7423SM  H17G 9793   1.069   4.540  12.150 -1.6103  1.1658  2.4618
   7423SM  C18F 9794   1.164   4.357  12.205  0.8770  0.7722 -0.2741
   7423SM  H18F 9795   1.253   4.326  12.264  0.0964 -1.0417  0.0303
   7423SM  H18G 9796   1.177   4.312  12.104  1.9946  3.0492 -1.1959
   7423SM  C19F 9797   1.043   4.283  12.275 -0.5232  0.0676  0.2895
   7423SM  H19F 9798   1.052   4.307  12.383 -0.0104  0.1270  0.2340
   7423SM  H19G 9799   1.080   4.181  12.250 -1.7079 -0.2124 -0.4398
   7423SM  C20F 9800   0.892   4.302  12.237  0.7069 -0.3277 -0.0411
   7423SM  H20F 9801   0.862   4.291  12.130 -0.5356 -1.8926  0.4412
   7423SM  H20G 9802   0.860   4.404  12.268  0.1678 -0.2398 -0.8423
   7423SM  C21F 9803   0.800   4.201  12.308  0.1044 -0.7155 -0.0707
   7423SM  H21F 9804   0.811   4.097  12.270 -4.1686 -0.9890 -0.9696
   7423SM  H21G 9805   0.699   4.226  12.268  0.7498  2.3623 -0.0719
   7423SM  C22F 9806   0.808   4.194  12.460 -0.9601  0.1110 -0.3963
   7423SM  H22F 9807   0.791   4.298  12.496 -1.1037 -0.4397  1.2480
   7423SM  H22G 9808   0.911   4.159  12.486 -1.0100 -0.3286 -0.7859
   7423SM  C23F 9809   0.700   4.100  12.520  0.1729 -0.0710 -0.3864
   7423SM  H23F 9810   0.723   3.995  12.491 -0.7579  0.1624 -2.0929
   7423SM  H23G 9811   0.604   4.124  12.470  0.4387 -0.2514 -0.9881
   7423SM  H23H 9812   0.686   4.105  12.630 -1.5998 -1.6697 -0.4860
   7523SM     N 9813   6.700   5.803  14.544  0.0353  0.1896 -0.6240
   7523SM   C15 9814   6.609   5.884  14.634  0.2532  0.7588  0.5638
   7523SM  H15A 9815   6.522   5.915  14.578 -0.5314  1.0479  1.8985
   7523SM  H15B 9816   6.658   5.975  14.662  1.1573  1.1213 -1.9513
   7523SM  H15C 9817   6.570   5.824  14.716 -1.1437 -0.9650 -1.2557
   7523SM   C14 9818   6.820   5.748  14.621 -0.2380  0.3796 -0.5666
   7523SM  H14A 9819   6.790   5.685  14.703 -0.7452 -0.1710 -1.1618
   7523SM  H14B 9820   6.891   5.816  14.665 -0.8887 -0.6310  2.2679
   7523SM  H14C 9821   6.878   5.672  14.570  0.7545  0.0885  0.9341
   7523SM   C13 9822   6.617   5.688  14.492  0.4073  0.2554 -0.0161
   7523SM  H13A 9823   6.674   5.629  14.422  2.3227  0.4256  1.3301
   7523SM  H13B 9824   6.528   5.716  14.437  0.0293 -1.3635 -0.2769
   7523SM  H13C 9825   6.582   5.621  14.569 -0.4979  0.6030 -0.1086
   7523SM   C12 9826   6.742   5.897  14.437 -0.1364 -0.2559  0.0097
   7523SM  H12A 9827   6.659   5.906  14.369 -0.7273 -2.3207  0.3741
   7523SM  H12B 9828   6.820   5.847  14.380 -1.0362 -0.1631 -1.3319
   7523SM   C11 9829   6.791   6.043  14.478  0.1229 -0.1819 -0.1231
   7523SM  H11A 9830   6.709   6.100  14.525  0.0841  0.2207 -0.6729
   7523SM  H11B 9831   6.803   6.098  14.382 -1.2213  0.5971  0.1400
   7523SM     P 9832   7.055   6.025  14.512  0.0351 -0.2456  0.1118
   7523SM   O13 9833   7.119   6.160  14.524  0.5171  0.3221  0.1973
   7523SM   O14 9834   7.119   5.920  14.588 -0.8671  0.3300 -0.6598
   7523SM   O11 9835   7.043   5.988  14.363  0.2244  0.6733  0.2777
   7523SM   O12 9836   6.906   6.038  14.560  0.3347  0.1130 -0.0495
   7523SM   C1S 9837   7.067   6.075  14.253 -0.3713  0.3073 -0.2310
   7523SM   H1S 9838   7.172   6.109  14.255 -0.3683  0.2868  0.0813
   7523SM   H1T 9839   7.014   6.173  14.262  1.0659  1.1631 -0.7315
   7523SM    NF 9840   7.031   6.113  14.010 -0.1192 -0.0025  0.5418
   7523SM   HNF 9841   6.939   6.127  13.974 -0.8575 -1.2420  1.8457
   7523SM   C2S 9842   7.047   6.007  14.109  0.2829  0.5553 -0.8834
   7523SM   H2S 9843   7.141   5.951  14.090 -0.5477 -1.8006  1.3103
   7523SM   C3S 9844   6.935   5.899  14.116 -0.0858  0.6507  0.1025
   7523SM   H3S 9845   6.837   5.948  14.138 -0.3854 -0.9130  2.6508
   7523SM    O3 9846   6.953   5.795  14.208 -0.1370 -0.2616 -0.3697
   7523SM   HO3 9847   7.012   5.835  14.272 -1.5273 -0.0974  0.8500
   7523SM   C4S 9848   6.909   5.837  13.978  0.0159  0.9973  0.3648
   7523SM   H4S 9849   6.812   5.876  13.944 -0.6392  1.7620  2.8912
   7523SM   C5S 9850   6.981   5.753  13.899 -0.2292 -0.4104 -0.0533
   7523SM   H5S 9851   7.068   5.700  13.942 -0.5784 -0.3265  0.7675
   7523SM   C6S 9852   6.945   5.715  13.762  0.6458 -0.3835  0.2052
   7523SM   H6S 9853   6.850   5.761  13.727  1.5207  1.1641 -0.2147
   7523SM   H6T 9854   6.937   5.605  13.748 -0.1620 -0.2144 -0.7568
   7523SM   C7S 9855   7.065   5.753  13.675  0.2788 -0.3595 -0.1722
   7523SM   H7S 9856   7.158   5.705  13.711  0.4783  1.4269  1.8847
   7523SM   H7T 9857   7.092   5.861  13.668 -0.5057  0.1104  2.6967
   7523SM   C8S 9858   7.057   5.699  13.531  0.6697 -0.7723 -0.6045
   7523SM   H8S 9859   6.953   5.725  13.503  0.2995 -0.4954  0.9384
   7523SM   H8T 9860   7.063   5.588  13.532 -0.5074 -0.8419  0.5115
   7523SM   C9S 9861   7.166   5.754  13.438  0.3139  0.3187 -0.2622
   7523SM   H9S 9862   7.264   5.706  13.456 -0.6960 -2.1239 -0.9023
   7523SM   H9T 9863   7.166   5.863  13.460 -3.5458  1.0612 -2.8685
   7523SM  C10S 9864   7.116   5.740  13.287 -0.0406  0.0262 -0.3831
   7523SM  H10S 9865   7.044   5.825  13.286  1.9600  1.8575  1.2622
   7523SM  H10T 9866   7.074   5.640  13.267 -1.6767  0.9472 -1.8557
   7523SM  C11S 9867   7.231   5.774  13.185  0.5373 -0.4296 -0.2669
   7523SM  H11S 9868   7.320   5.711  13.206  1.1039  0.0042 -1.2723
   7523SM  H11T 9869   7.273   5.874  13.208 -0.6281  0.2099 -0.8333
   7523SM  C12S 9870   7.180   5.761  13.037  0.3277 -0.1695  0.0635
   7523SM  H12S 9871   7.076   5.798  13.022  1.1810  1.8373 -1.2873
   7523SM  H12T 9872   7.177   5.651  13.019  1.6051 -0.0699 -0.8739
   7523SM  C13S 9873   7.275   5.813  12.940  0.6787 -0.7884  0.2800
   7523SM  H13S 9874   7.377   5.797  12.981  1.5696  2.1612 -0.5689
   7523SM  H13T 9875   7.270   5.924  12.940  0.5325 -0.7947  0.4959
   7523SM  C14S 9876   7.257   5.750  12.801  0.0342 -0.7288 -0.9483
   7523SM  H14S 9877   7.150   5.725  12.783 -0.5981  1.9956 -1.4055
   7523SM  H14T 9878   7.319   5.659  12.811  0.3614 -0.4832 -0.7080
   7523SM  C15S 9879   7.303   5.844  12.693  0.0053 -0.2469  0.0843
   7523SM  H15S 9880   7.411   5.853  12.715  0.1003 -0.0753 -0.4408
   7523SM  H15T 9881   7.249   5.940  12.709  1.2225 -0.0129  3.8686
   7523SM  C16S 9882   7.281   5.791  12.549 -0.1614  0.3180 -0.3235
   7523SM  H16S 9883   7.173   5.779  12.526 -0.5835  1.1140  1.0996
   7523SM  H16T 9884   7.337   5.696  12.540 -1.4516 -0.4646 -0.4649
   7523SM  C17S 9885   7.337   5.881  12.439  0.0912  0.1754 -0.2800
   7523SM  H17S 9886   7.442   5.911  12.458  0.7925  0.6168 -4.0582
   7523SM  H17T 9887   7.279   5.975  12.449 -0.6623 -0.4056  1.0852
   7523SM  C18S 9888   7.338   5.808  12.307  0.2266 -0.2658  0.3385
   7523SM  H18S 9889   7.399   5.860  12.230 -0.9216 -1.3794 -1.3949
   7523SM  H18T 9890   7.236   5.786  12.269  1.5755 -1.1496 -3.1168
   7523SM  H18U 9891   7.386   5.708  12.320  0.1832 -0.2935  0.2886
   7523SM   C1F 9892   7.133   6.178  13.963  0.0685  0.0310  0.5415
   7523SM    OF 9893   7.244   6.158  14.000  0.4920  0.4128  0.0589
   7523SM   C2F 9894   7.105   6.274  13.849  0.3506  0.2722 -0.4017
   7523SM   H2F 9895   7.157   6.367  13.880 -0.6910  0.1079  2.1362
   7523SM   H2G 9896   6.997   6.296  13.842  0.3244  0.0308 -0.7627
   7523SM   C3F 9897   7.153   6.209  13.722  0.5693 -0.4371 -0.6701
   7523SM   H3F 9898   7.081   6.132  13.687  0.7580 -0.0986 -1.8494
   7523SM   H3G 9899   7.248   6.154  13.739  0.4440  0.0209  2.0445
   7523SM   C4F 9900   7.165   6.293  13.595 -0.2667  0.7315 -0.8129
   7523SM   H4F 9901   7.232   6.381  13.609 -1.5111  1.4493  1.2166
   7523SM   H4G 9902   7.070   6.343  13.565 -0.7739  1.3290  1.5480
   7523SM   C5F 9903   7.220   6.207  13.489 -0.3804 -0.0552  0.4605
   7523SM   H5F 9904   7.154   6.117  13.485 -0.7544  0.2756 -1.4829
   7523SM   H5G 9905   7.315   6.167  13.531 -1.6990 -0.7130  3.0617
   7523SM   C6F 9906   7.242   6.279  13.353  0.4356  0.1407 -0.6919
   7523SM   H6F 9907   7.143   6.283  13.303 -0.2416 -2.4333  0.2849
   7523SM   H6G 9908   7.301   6.217  13.281 -0.5067  1.8648 -3.0918
   7523SM   C7F 9909   7.326   6.411  13.361 -0.5503  0.4612 -0.0393
   7523SM   H7F 9910   7.426   6.390  13.402  1.2116  2.8653 -2.7140
   7523SM   H7G 9911   7.274   6.489  13.421  2.8225  1.5650  1.6862
   7523SM   C8F 9912   7.364   6.462  13.225  0.4695  0.4888 -0.2585
   7523SM   H8F 9913   7.434   6.391  13.177 -1.6494 -2.1149  0.2599
   7523SM   H8G 9914   7.423   6.555  13.244 -0.5893  1.9006 -3.2657
   7523SM   C9F 9915   7.244   6.507  13.149 -0.2576 -0.3247  0.5743
   7523SM   H9F 9916   7.193   6.589  13.204 -0.6979 -0.6741  0.6903
   7523SM   H9G 9917   7.169   6.428  13.130 -0.9675  0.9322 -2.4616
   7523SM  C10F 9918   7.299   6.550  13.007 -0.4305 -0.2920  0.1372
   7523SM  H10F 9919   7.371   6.469  12.981  0.9182  0.6661  0.7510
   7523SM  H10G 9920   7.362   6.639  13.026  0.8037 -1.1185  0.0291
   7523SM  C11F 9921   7.203   6.568  12.891 -0.1879  0.2813  0.6235
   7523SM  H11F 9922   7.132   6.652  12.909 -0.1687  0.5654 -0.5455
   7523SM  H11G 9923   7.147   6.473  12.880  0.7281 -0.3864  1.5605
   7523SM  C12F 9924   7.278   6.598  12.759 -0.0081  0.0930 -0.1327
   7523SM  H12F 9925   7.348   6.513  12.741 -1.9537 -1.4475 -0.9105
   7523SM  H12G 9926   7.326   6.697  12.773 -0.6134  0.2660  0.8287
   7523SM  C13F 9927   7.182   6.612  12.641  0.1379  0.1177  0.2823
   7523SM  H13F 9928   7.134   6.711  12.657  0.8253  0.6562 -0.8524
   7523SM  H13G 9929   7.108   6.529  12.638 -0.0120  0.2643 -0.3140
   7523SM  C14F 9930   7.251   6.611  12.506  0.4419  0.2917  0.5483
   7523SM  H14F 9931   7.320   6.524  12.494  0.2283  0.2960 -0.8268
   7523SM  H14G 9932   7.321   6.696  12.503 -0.3969  0.9858  0.2210
   7523SM  C15F 9933   7.156   6.632  12.386 -0.1905 -0.1109 -0.0272
   7523SM  H15F 9934   7.109   6.731  12.401  0.1896  0.4129 -2.0683
   7523SM  H15G 9935   7.085   6.547  12.377 -0.3548  0.0012  0.2060
   7523SM  C16F 9936   7.235   6.643  12.253 -0.2618  0.0696 -0.0705
   7523SM  H16F 9937   7.295   6.550  12.238  0.7876  0.6198  0.5975
   7523SM  H16G 9938   7.316   6.717  12.238  0.7086 -1.0771 -0.6967
   7523SM  C17F 9939   7.135   6.664  12.138  0.7181 -0.1547  0.2265
   7523SM  H17F 9940   7.082   6.762  12.141  2.8331  1.0634  0.1953
   7523SM  H17G 9941   7.056   6.594  12.172  1.1608  0.2306  2.1650
   7523SM  C18F 9942   7.185   6.625  11.998  0.1874  0.3736  0.0337
   7523SM  H18F 9943   7.257   6.543  12.017  0.8113  1.0531  0.6748
   7523SM  H18G 9944   7.239   6.708  11.948 -0.7036  1.1448  0.2991
   7523SM  C19F 9945   7.075   6.584  11.897  0.1475 -0.1550 -0.0274
   7523SM  H19F 9946   6.995   6.660  11.886  0.6450  0.6269  1.4632
   7523SM  H19G 9947   7.036   6.483  11.923 -0.0425  0.2111  1.1788
   7523SM  C20F 9948   7.136   6.565  11.761  0.1493 -0.6265 -0.6238
   7523SM  H20F 9949   7.049   6.521  11.707 -1.6559  2.0503 -0.1091
   7523SM  H20G 9950   7.221   6.494  11.764  1.0044  0.2993 -1.8961
   7523SM  C21F 9951   7.182   6.688  11.682  0.6757 -0.2493  0.3888
   7523SM  H21F 9952   7.285   6.715  11.713  0.3458  2.2170 -0.4601
   7523SM  H21G 9953   7.111   6.769  11.711  0.3398 -0.6847  0.8144
   7523SM  C22F 9954   7.187   6.647  11.532 -0.2310  0.5536 -0.3403
   7523SM  H22F 9955   7.249   6.555  11.519 -1.2468 -0.1177 -0.5998
   7523SM  H22G 9956   7.239   6.734  11.487  3.8054 -2.6930 -2.6173
   7523SM  C23F 9957   7.051   6.641  11.455 -0.8241 -0.3383  0.8486
   7523SM  H23F 9958   6.992   6.719  11.509  2.1740  1.5910  1.6117
   7523SM  H23G 9959   7.003   6.541  11.458 -0.4563 -0.5394  0.1503
   7523SM  H23H 9960   7.073   6.671  11.351 -0.8888  2.2212  1.4955
   7623SM     N 9961   1.183   6.266  14.788  0.2224 -0.4175  0.1103
   7623SM   C15 9962   1.046   6.295  14.851  0.2353 -0.4962 -0.1196
   7623SM  H15A 9963   0.963   6.282  14.784 -0.1316  3.3194 -0.6282
   7623SM  H15B 9964   1.047   6.400  14.878 -2.1124 -0.3992 -0.1504
   7623SM  H15C 9965   1.042   6.238  14.943  2.6218 -0.8020 -0.1531
   7623SM   C14 9966   1.284   6.282  14.902  0.2192 -0.1549 -0.6139
   7623SM  H14A 9967   1.373   6.230  14.870  1.4801  0.7533  1.2177
   7623SM  H14B 9968   1.257   6.230  14.993  3.3967 -0.2500  0.4287
   7623SM  H14C 9969   1.302   6.387  14.922  1.2171 -0.3836 -0.2639
   7623SM   C13 9970   1.179   6.123  14.736 -0.1573  0.4616 -0.3177
   7623SM  H13A 9971   1.275   6.074  14.744  2.4987  5.0666 -0.5392
   7623SM  H13B 9972   1.144   6.114  14.634  2.1915  0.2712 -1.1845
   7623SM  H13C 9973   1.115   6.065  14.800 -1.7110  1.1077 -1.2282
   7623SM   C12 9974   1.215   6.370  14.689  0.4690 -0.4216  0.8580
   7623SM  H12A 9975   1.318   6.344  14.667  0.6997 -0.2237  1.6750
   7623SM  H12B 9976   1.209   6.466  14.739 -1.5613  0.3784 -0.7513
   7623SM   C11 9977   1.131   6.380  14.554 -0.0071 -0.1835  0.1952
   7623SM  H11A 9978   1.158   6.469  14.493 -1.0254 -0.6763 -1.0344
   7623SM  H11B 9979   1.023   6.387  14.576  0.0155  0.2158  0.1921
   7623SM     P 9980   1.267   6.237  14.380  0.0441 -0.2072  0.3548
   7623SM   O13 9981   1.380   6.324  14.419 -0.1598 -0.4668 -0.8253
   7623SM   O14 9982   1.295   6.098  14.368  0.0326  0.7675 -0.2318
   7623SM   O11 9983   1.219   6.285  14.234  0.3163 -0.5230  0.6597
   7623SM   O12 9984   1.146   6.260  14.477 -0.0716 -0.6675 -0.3162
   7623SM   C1S 9985   1.084   6.264  14.188  0.7498  0.1259  0.6685
   7623SM   H1S 9986   1.021   6.351  14.215  1.5363  0.7235  0.6169
   7623SM   H1T 9987   1.042   6.167  14.223 -1.9320  0.3199 -1.6721
   7623SM    NF 9988   0.950   6.284  13.981 -0.4829  0.3985 -0.7810
   7623SM   HNF 9989   0.907   6.208  13.934  0.7974  0.4064 -2.0421
   7623SM   C2S 9990   1.085   6.275  14.032  0.4608 -0.0124  0.2793
   7623SM   H2S 9991   1.127   6.376  14.011 -1.7597  0.7811 -0.6955
   7623SM   C3S 9992   1.172   6.166  13.969 -0.0667 -0.3317 -0.2634
   7623SM   H3S 9993   1.120   6.069  13.982 -0.4107 -0.2069 -0.6752
   7623SM    O3 9994   1.303   6.158  14.032  0.7360 -0.3118 -0.1337
   7623SM   HO3 9995   1.288   6.220  14.104 -2.0653 -1.1638  0.1350
   7623SM   C4S 9996   1.183   6.183  13.820 -0.3278  0.7954 -0.8513
   7623SM   H4S 9997   1.231   6.273  13.780  1.2738 -0.0954 -1.0124
   7623SM   C5S 9998   1.147   6.090  13.725  0.3857  0.1782 -0.0639
   7623SM   H5S 9999   1.094   6.001  13.762  1.4763 -0.9151 -1.0694
   7623SM   C6S10000   1.150   6.099  13.577 -0.5736 -0.0001  0.8458
   7623SM   H6S10001   1.135   5.994  13.544  1.9301 -1.0744  2.8007
   7623SM   H6T10002   1.254   6.119  13.544 -1.4471  1.3117 -1.2775
   7623SM   C7S10003   1.051   6.194  13.514 -0.4146  0.3620  0.4200
   7623SM   H7S10004   1.058   6.296  13.558 -1.8184  1.7817 -2.3338
   7623SM   H7T10005   0.944   6.169  13.533 -0.8200 -1.3405 -3.1841
   7623SM   C8S10006   1.075   6.199  13.357 -0.5547  0.0948  0.1007
   7623SM   H8S10007   1.049   6.097  13.323 -2.2953  0.5844 -0.1767
   7623SM   H8T10008   1.183   6.207  13.332 -0.1156 -2.2682  0.9673
   7623SM   C9S10009   1.003   6.316  13.294 -0.0990  0.3322  0.1998
   7623SM   H9S10010   1.038   6.406  13.349 -0.3575  0.4169  0.2256
   7623SM   H9T10011   0.893   6.308  13.306 -0.4905 -0.7183 -3.2267
   7623SM  C10S10012   1.025   6.337  13.144  0.3364 -0.2836  0.4676
   7623SM  H10S10013   1.133   6.320  13.126  0.2341 -1.4471  0.8548
   7623SM  H10T10014   0.997   6.443  13.127  0.3399 -0.1204  1.4314
   7623SM  C11S10015   0.944   6.259  13.044 -0.0080 -0.1881  0.0490
   7623SM  H11S10016   0.840   6.235  13.075  0.9494 -1.6319  2.4665
   7623SM  H11T10017   0.993   6.159  13.039  0.1711 -0.0388 -2.3237
   7623SM  C12S10018   0.934   6.329  12.907  0.2902 -0.1682  0.3306
   7623SM  H12S10019   1.040   6.348  12.878  0.9517  0.9719  3.1485
   7623SM  H12T10020   0.881   6.426  12.920 -2.0380 -1.4912  1.4195
   7623SM  C13S10021   0.852   6.250  12.796 -1.0917 -0.2828  0.2269
   7623SM  H13S10022   0.746   6.232  12.826 -1.3909 -0.2436 -0.7811
   7623SM  H13T10023   0.895   6.148  12.786  0.7534  0.3310  1.3348
   7623SM  C14S10024   0.845   6.321  12.662  0.7389 -0.4293 -0.3061
   7623SM  H14S10025   0.947   6.344  12.625  0.7412 -1.2457 -0.8416
   7623SM  H14T10026   0.807   6.425  12.676  0.0588 -0.5258 -1.3012
   7623SM  C15S10027   0.774   6.229  12.560 -0.3440 -0.3200 -0.7243
   7623SM  H15S10028   0.664   6.239  12.551 -0.2843  0.6406 -0.4692
   7623SM  H15T10029   0.786   6.122  12.588  1.7353  0.3578  1.3289
   7623SM  C16S10030   0.828   6.248  12.418 -0.5857  0.9508  0.3821
   7623SM  H16S10031   0.805   6.159  12.355 -5.4298  1.0232  1.6162
   7623SM  H16T10032   0.938   6.258  12.424 -0.0819 -2.4227 -0.9683
   7623SM  C17S10033   0.774   6.374  12.347 -0.5299  0.3975  0.3667
   7623SM  H17S10034   0.792   6.459  12.416 -1.2658  0.6920  0.1992
   7623SM  H17T10035   0.664   6.369  12.332 -0.5140 -0.5183  0.4844
   7623SM  C18S10036   0.836   6.395  12.208 -0.2983 -0.3405 -0.3311
   7623SM  H18S10037   0.946   6.405  12.200  0.2808 -1.2327  4.0449
   7623SM  H18T10038   0.789   6.478  12.151 -1.6279 -1.4278 -0.8757
   7623SM  H18U10039   0.822   6.302  12.148  0.4808 -0.2424 -0.6813
   7623SM   C1F10040   0.873   6.390  13.986  0.5063 -0.2956 -0.1441
   7623SM    OF10041   0.906   6.477  14.065 -0.9213 -0.1563 -0.4384
   7623SM   C2F10042   0.748   6.389  13.905  0.1071  0.1511 -0.0134
   7623SM   H2F10043   0.670   6.382  13.983 -0.3811 -0.5193 -0.5568
   7623SM   H2G10044   0.743   6.296  13.845 -1.5783 -0.2274  0.6684
   7623SM   C3F10045   0.715   6.520  13.825  0.3233  0.4286 -0.2260
   7623SM   H3F10046   0.709   6.613  13.885 -1.0378  0.7998 -0.8880
   7623SM   H3G10047   0.613   6.499  13.784 -0.3068 -0.9781  1.8644
   7623SM   C4F10048   0.808   6.538  13.707 -0.1381 -0.3455  0.2917
   7623SM   H4F10049   0.830   6.443  13.654  1.0917  0.8860 -1.5541
   7623SM   H4G10050   0.908   6.567  13.744  0.2204  0.6254 -1.3138
   7623SM   C5F10051   0.762   6.638  13.602  0.2346 -0.5246  1.3374
   7623SM   H5F10052   0.746   6.739  13.644 -4.0133  0.4298 -1.8383
   7623SM   H5G10053   0.659   6.611  13.568  0.6589 -2.3097  1.3356
   7623SM   C6F10054   0.853   6.646  13.483 -0.4472  0.4645  0.0273
   7623SM   H6F10055   0.844   6.551  13.426  1.7370  0.7355 -0.8650
   7623SM   H6G10056   0.961   6.645  13.510 -0.3201  0.0567 -0.4759
   7623SM   C7F10057   0.823   6.751  13.378 -0.5992 -0.3270 -0.0518
   7623SM   H7F10058   0.827   6.850  13.429  0.4293 -0.1756 -0.4054
   7623SM   H7G10059   0.717   6.728  13.353 -0.3432 -1.7314  0.0951
   7623SM   C8F10060   0.920   6.754  13.265  0.0175 -0.8014 -0.0739
   7623SM   H8F10061   0.925   6.654  13.216 -0.9039  0.0141 -1.9451
   7623SM   H8G10062   1.021   6.785  13.300 -0.3958  2.4223 -1.3690
   7623SM   C9F10063   0.880   6.850  13.153 -0.4075  0.0740 -0.0551
   7623SM   H9F10064   0.881   6.958  13.176  0.3601  0.1000 -0.1995
   7623SM   H9G10065   0.774   6.829  13.124 -0.1380 -0.7671 -0.4687
   7623SM  C10F10066   0.956   6.816  13.025  0.4050 -0.0672  0.3886
   7623SM  H10F10067   0.966   6.705  13.023 -2.8402 -0.4707  0.1609
   7623SM  H10G10068   1.056   6.865  13.028  0.5859 -0.3616 -0.5632
   7623SM  C11F10069   0.895   6.877  12.899  0.2783 -0.0921  0.3082
   7623SM  H11F10070   0.882   6.987  12.915  0.8825 -0.1489  1.2829
   7623SM  H11G10071   0.790   6.840  12.897 -1.0122  2.9821  2.4038
   7623SM  C12F10072   0.970   6.841  12.768  0.5476 -0.5025 -0.4544
   7623SM  H12F10073   1.078   6.825  12.791  1.4385  1.5610 -2.8221
   7623SM  H12G10074   0.964   6.927  12.699  0.6971 -0.1172  0.0049
   7623SM  C13F10075   0.911   6.714  12.714  0.2266  0.4436  0.2839
   7623SM  H13F10076   0.800   6.709  12.709  0.1876  0.6089  0.8572
   7623SM  H13G10077   0.938   6.630  12.781 -0.6835 -0.7999 -0.8819
   7623SM  C14F10078   0.957   6.675  12.567 -0.2515 -0.5592  0.1266
   7623SM  H14F10079   0.901   6.737  12.493  2.5040 -0.6814 -2.2082
   7623SM  H14G10080   0.936   6.568  12.546  0.7237 -1.4621  3.2293
   7623SM  C15F10081   1.099   6.702  12.540  0.2087 -0.2793  0.0068
   7623SM  H15F10082   1.160   6.636  12.605  0.5470 -0.5313 -0.5527
   7623SM  H15G10083   1.137   6.803  12.569  2.2810 -0.4978 -1.6677
   7623SM  C16F10084   1.145   6.669  12.391 -0.5037  0.7827 -0.4196
   7623SM  H16F10085   1.146   6.558  12.393  0.3427  0.7929  1.5919
   7623SM  H16G10086   1.250   6.705  12.393  0.3003 -1.4195  0.9083
   7623SM  C17F10087   1.062   6.730  12.278  0.5033  0.1404 -0.1390
   7623SM  H17F10088   1.087   6.838  12.268  0.7638 -0.1334 -3.2869
   7623SM  H17G10089   0.956   6.723  12.308  0.5876 -0.0164  0.1259
   7623SM  C18F10090   1.091   6.679  12.145 -0.5204 -0.4212  0.3529
   7623SM  H18F10091   1.055   6.575  12.137 -0.3815 -0.3656 -1.4756
   7623SM  H18G10092   1.197   6.690  12.114 -0.5156 -0.1856  0.4452
   7623SM  C19F10093   1.020   6.769  12.039 -0.0386 -0.2340  0.2160
   7623SM  H19F10094   1.071   6.743  11.944  2.0869  1.8358  0.6907
   7623SM  H19G10095   1.039   6.878  12.056 -1.1957  0.1939 -1.0165
   7623SM  C20F10096   0.867   6.757  12.034 -0.7973  1.0274 -0.5476
   7623SM  H20F10097   0.827   6.767  12.137 -1.3161 -0.4623 -0.5745
   7623SM  H20G10098   0.832   6.657  12.001  0.3377  0.5584 -0.3888
   7623SM  C21F10099   0.789   6.869  11.963 -0.5354  0.4198 -0.2207
   7623SM  H21F10100   0.815   6.964  12.014  1.1334 -1.7724  3.4010
   7623SM  H21G10101   0.682   6.849  11.981 -0.7367  0.2167 -1.4993
   7623SM  C22F10102   0.816   6.882  11.805 -0.2489  0.8495 -0.4088
   7623SM  H22F10103   0.782   6.786  11.761  1.7871  0.3965 -1.1375
   7623SM  H22G10104   0.926   6.881  11.790  0.8342 -1.9209  4.9804
   7623SM  C23F10105   0.736   6.989  11.734 -0.2563 -0.0037  0.4210
   7623SM  H23F10106   0.753   7.093  11.769 -2.4442  0.7701 -0.6150
   7623SM  H23G10107   0.629   6.961  11.749  0.4685 -3.3174  0.1878
   7623SM  H23H10108   0.753   6.976  11.625  1.5742 -2.1834  0.8872
   7723SM     N10109   1.214   1.298  14.736 -0.2178  0.2986  0.2857
   7723SM   C1510110   1.180   1.193  14.830 -0.2700 -0.3041  0.3072
   7723SM  H15A10111   1.256   1.181  14.905  0.6555  1.8016 -0.2365
   7723SM  H15B10112   1.184   1.096  14.782 -0.5808  0.1661 -0.7170
   7723SM  H15C10113   1.084   1.215  14.876  0.7294  1.1496  1.7825
   7723SM   C1410114   1.338   1.256  14.662  0.4336 -0.0752 -0.3354
   7723SM  H14A10115   1.363   1.337  14.594 -0.5128 -0.3965 -1.0904
   7723SM  H14B10116   1.312   1.170  14.602  0.2081  1.6155 -2.8457
   7723SM  H14C10117   1.418   1.237  14.731 -1.9902  3.0963  3.8650
   7723SM   C1310118   1.104   1.319  14.634  0.0077 -0.7577 -0.1684
   7723SM  H13A10119   1.094   1.233  14.569  0.0701 -0.7683 -0.1639
   7723SM  H13B10120   1.119   1.407  14.574 -1.4599 -0.3296  0.0687
   7723SM  H13C10121   1.008   1.335  14.681  0.7251 -1.4259  1.6391
   7723SM   C1210122   1.241   1.427  14.820  0.0895  0.4010  0.0042
   7723SM  H12A10123   1.331   1.415  14.877 -1.1888  3.1121  2.8775
   7723SM  H12B10124   1.165   1.443  14.895  0.7019  0.4129  0.6303
   7723SM   C1110125   1.246   1.560  14.742 -0.2413  0.7054  1.1852
   7723SM  H11A10126   1.148   1.581  14.694  0.5725  0.5670 -0.6045
   7723SM  H11B10127   1.325   1.558  14.665  0.6337  1.2382  2.0399
   7723SM     P10128   1.394   1.741  14.862  0.0384 -0.0679 -0.0522
   7723SM   O1310129   1.361   1.879  14.909  0.0710 -0.5188 -0.3789
   7723SM   O1410130   1.466   1.652  14.953 -0.4097 -0.2305 -0.2494
   7723SM   O1110131   1.465   1.746  14.722  0.7214 -0.2502  0.1754
   7723SM   O1210132   1.266   1.669  14.830 -0.5590  0.0353 -0.2190
   7723SM   C1S10133   1.444   1.864  14.636 -0.2086 -0.4341 -1.1683
   7723SM   H1S10134   1.489   1.952  14.687 -2.6416  0.2842 -0.1521
   7723SM   H1T10135   1.335   1.880  14.624  0.0460  3.5532  0.4879
   7723SM    NF10136   1.469   1.953  14.409  0.2366 -0.0235 -0.2036
   7723SM   HNF10137   1.394   1.933  14.347 -2.7625 -0.2367  3.1993
   7723SM   C2S10138   1.515   1.849  14.497  0.0946  0.0369 -0.5236
   7723SM   H2S10139   1.625   1.851  14.509  0.2085 -0.2925 -1.4294
   7723SM   C3S10140   1.495   1.715  14.434 -0.0373 -0.2263 -0.3185
   7723SM   H3S10141   1.387   1.705  14.412 -0.4812  2.3377  0.3408
   7723SM    O310142   1.535   1.603  14.511  0.2404 -0.2146 -0.0142
   7723SM   HO310143   1.539   1.632  14.602  1.6208 -3.5808  1.1739
   7723SM   C4S10144   1.567   1.699  14.297  0.2681 -0.2107 -0.3093
   7723SM   H4S10145   1.672   1.725  14.282 -0.0954  0.7029 -1.4514
   7723SM   C5S10146   1.503   1.659  14.187 -0.5448  0.4308 -0.5334
   7723SM   H5S10147   1.396   1.639  14.201 -0.0930 -1.1565  0.9982
   7723SM   C6S10148   1.547   1.641  14.043 -0.6499 -0.8019 -0.2381
   7723SM   H6S10149   1.541   1.537  14.006  0.4817  0.0397 -3.1193
   7723SM   H6T10150   1.648   1.681  14.019 -1.2240  1.7601  1.1938
   7723SM   C7S10151   1.456   1.725  13.958  0.1113 -0.5901 -0.2340
   7723SM   H7S10152   1.447   1.822  14.010  0.8046 -0.3595 -0.5355
   7723SM   H7T10153   1.359   1.671  13.953 -0.7024  0.9336 -4.2711
   7723SM   C8S10154   1.496   1.737  13.813 -0.4408 -0.0636  0.0879
   7723SM   H8S10155   1.524   1.635  13.781 -2.6923 -1.1056  1.1653
   7723SM   H8T10156   1.585   1.802  13.799 -1.0343  0.9141  0.6712
   7723SM   C9S10157   1.378   1.779  13.730 -0.5936  0.7501  0.4513
   7723SM   H9S10158   1.298   1.829  13.789 -0.2244  1.3217  0.4771
   7723SM   H9T10159   1.341   1.684  13.685  0.8007  1.4997 -2.5506
   7723SM  C10S10160   1.417   1.873  13.619 -0.0491 -0.5270  1.0740
   7723SM  H10S10161   1.483   1.954  13.657 -0.7785  0.5645  0.0831
   7723SM  H10T10162   1.328   1.926  13.578 -0.7725 -1.4581  1.3836
   7723SM  C11S10163   1.498   1.807  13.506 -0.2333 -0.1602 -0.3877
   7723SM  H11S10164   1.565   1.724  13.535 -0.7345 -0.4585 -0.0740
   7723SM  H11T10165   1.569   1.884  13.470  0.3283 -0.2565  0.5037
   7723SM  C12S10166   1.414   1.745  13.391 -0.0256  0.1326  0.2712
   7723SM  H12S10167   1.356   1.818  13.331  0.2638 -0.4619 -0.7757
   7723SM  H12T10168   1.341   1.687  13.451  0.1784  0.5504  0.9252
   7723SM  C13S10169   1.486   1.640  13.304  1.0335  0.2027  0.4551
   7723SM  H13S10170   1.421   1.577  13.240  0.0712  2.4186 -0.8736
   7723SM  H13T10171   1.536   1.560  13.363 -0.5381 -1.2354 -0.0818
   7723SM  C14S10172   1.589   1.712  13.216  0.7138  0.7721  0.2634
   7723SM  H14S10173   1.676   1.739  13.280  1.8267  0.5144 -1.0978
   7723SM  H14T10174   1.548   1.810  13.185  0.3764 -0.1757 -2.5235
   7723SM  C15S10175   1.635   1.633  13.099 -0.2438 -0.0164  0.4178
   7723SM  H15S10176   1.598   1.528  13.109  1.1162 -0.6726 -0.9824
   7723SM  H15T10177   1.745   1.642  13.089 -0.3360 -0.9546 -2.0532
   7723SM  C16S10178   1.583   1.671  12.959  0.7463  0.1907 -0.1253
   7723SM  H16S10179   1.609   1.777  12.941 -1.3221  0.9337  0.9713
   7723SM  H16T10180   1.474   1.666  12.941  0.6861 -0.8402  0.4145
   7723SM  C17S10181   1.642   1.583  12.848 -0.0733 -0.2219 -0.0426
   7723SM  H17S10182   1.613   1.478  12.871  0.5704 -0.5384 -0.6291
   7723SM  H17T10183   1.751   1.603  12.854 -0.3374  1.0092  1.0722
   7723SM  C18S10184   1.575   1.621  12.713 -0.0286  0.2100 -0.7774
   7723SM  H18S10185   1.466   1.601  12.719  0.0997 -0.6490 -1.1252
   7723SM  H18T10186   1.625   1.567  12.630  1.3746 -0.2986  0.3506
   7723SM  H18U10187   1.588   1.731  12.703 -1.4659  0.9473  3.3335
   7723SM   C1F10188   1.493   2.081  14.443 -0.4418 -0.2817  0.2387
   7723SM    OF10189   1.586   2.109  14.515 -0.8832  0.4823 -0.3049
   7723SM   C2F10190   1.397   2.185  14.417  0.0695  0.0780  0.0831
   7723SM   H2F10191   1.404   2.275  14.481  2.8026  1.4728 -1.9575
   7723SM   H2G10192   1.294   2.144  14.426  0.2152 -0.5017 -0.7479
   7723SM   C3F10193   1.403   2.231  14.273  0.1783 -0.2529  0.5850
   7723SM   H3F10194   1.498   2.285  14.252 -1.0812  1.7526 -0.2073
   7723SM   H3G10195   1.330   2.315  14.279  0.2953 -0.0823 -0.2521
   7723SM   C4F10196   1.363   2.133  14.158 -0.2793 -0.6820  0.0112
   7723SM   H4F10197   1.254   2.116  14.170 -0.7051  2.8078  2.3880
   7723SM   H4G10198   1.414   2.034  14.158 -0.0335 -0.5756 -1.3474
   7723SM   C5F10199   1.397   2.210  14.026  0.0467  0.3797  0.1937
   7723SM   H5F10200   1.504   2.236  14.031  0.3884 -0.9465  0.2699
   7723SM   H5G10201   1.331   2.298  14.008 -1.7484 -0.7580  0.9119
   7723SM   C6F10202   1.384   2.128  13.903  0.2790 -0.5560 -0.1132
   7723SM   H6F10203   1.291   2.067  13.900  0.8720 -1.4588 -2.2787
   7723SM   H6G10204   1.464   2.053  13.884 -0.5974 -1.9218  1.3432
   7723SM   C7F10205   1.375   2.206  13.773  0.3090  0.1007  0.2202
   7723SM   H7F10206   1.297   2.285  13.778  0.6785  0.5500 -0.7095
   7723SM   H7G10207   1.348   2.143  13.686  2.6558  1.3771 -1.5458
   7723SM   C8F10208   1.506   2.279  13.734  0.1821 -0.0442  0.4408
   7723SM   H8F10209   1.590   2.210  13.757  1.6002  1.2749 -0.5519
   7723SM   H8G10210   1.517   2.363  13.807  0.1923 -0.1296  0.5373
   7723SM   C9F10211   1.520   2.329  13.585  0.0903  0.1303 -0.0892
   7723SM   H9F10212   1.612   2.388  13.566  0.6567 -1.1839 -1.6767
   7723SM   H9G10213   1.428   2.391  13.571  0.3547  0.4809 -0.2815
   7723SM  C10F10214   1.511   2.211  13.482 -0.6233 -0.1316 -0.6648
   7723SM  H10F10215   1.421   2.147  13.495  0.6881 -2.0443 -0.5855
   7723SM  H10G10216   1.600   2.148  13.503 -0.5480  0.2368  0.1750
   7723SM  C11F10217   1.515   2.259  13.334  0.8146  0.1577  0.0784
   7723SM  H11F10218   1.619   2.293  13.312  1.0877 -0.3234  0.6255
   7723SM  H11G10219   1.461   2.356  13.328  0.1689 -0.2720 -1.4381
   7723SM  C12F10220   1.466   2.154  13.243 -0.1582  0.2102  0.3910
   7723SM  H12F10221   1.362   2.123  13.269  0.0662  0.3402  1.5100
   7723SM  H12G10222   1.536   2.068  13.237  1.1255  1.1335  1.5600
   7723SM  C13F10223   1.446   2.216  13.103 -0.0320  0.0102 -0.4403
   7723SM  H13F10224   1.545   2.237  13.057  0.0945  0.5394  0.0534
   7723SM  H13G10225   1.382   2.307  13.092  1.1845  1.2161  1.7254
   7723SM  C14F10226   1.384   2.107  13.012 -0.3501 -1.0272  0.3166
   7723SM  H14F10227   1.304   2.053  13.067  0.5535 -1.6412  1.0590
   7723SM  H14G10228   1.460   2.027  12.998  0.1819 -0.3354 -0.9121
   7723SM  C15F10229   1.316   2.170  12.888 -0.7050  0.2791 -0.5511
   7723SM  H15F10230   1.384   2.256  12.870  0.3361 -0.5360 -0.6298
   7723SM  H15G10231   1.216   2.211  12.912 -1.5771 -0.9512 -1.8663
   7723SM  C16F10232   1.306   2.083  12.760  0.6148 -0.0356 -0.5387
   7723SM  H16F10233   1.216   2.022  12.783  0.8304 -0.6451 -1.2442
   7723SM  H16G10234   1.397   2.022  12.747  0.6121 -0.0388 -0.5420
   7723SM  C17F10235   1.270   2.161  12.632 -0.0545  0.4716 -0.2420
   7723SM  H17F10236   1.353   2.233  12.616  0.8024 -0.7888 -1.7867
   7723SM  H17G10237   1.176   2.217  12.650 -0.6053 -0.4731 -0.1051
   7723SM  C18F10238   1.271   2.077  12.499 -0.1083 -0.2694 -0.3338
   7723SM  H18F10239   1.225   2.144  12.423  0.1355  2.0896  1.4793
   7723SM  H18G10240   1.216   1.983  12.521 -1.2072  0.0656 -1.5370
   7723SM  C19F10241   1.408   2.030  12.451  0.1527 -0.7647  0.1084
   7723SM  H19F10242   1.465   2.007  12.544  1.5079  1.6219 -0.0368
   7723SM  H19G10243   1.460   2.120  12.413  0.9913 -0.7349  1.2536
   7723SM  C20F10244   1.387   1.932  12.343 -0.0911 -0.2931 -0.3084
   7723SM  H20F10245   1.362   1.987  12.250  0.9026  3.6873  1.5945
   7723SM  H20G10246   1.310   1.858  12.375  1.9499 -2.2391  0.4040
   7723SM  C21F10247   1.510   1.845  12.330  0.1927 -0.2136 -0.0480
   7723SM  H21F10248   1.553   1.810  12.427 -1.1336  4.6251  2.5984
   7723SM  H21G10249   1.595   1.904  12.290  0.4176  0.6251  1.5732
   7723SM  C22F10250   1.489   1.734  12.221 -0.0842 -0.0649 -0.2809
   7723SM  H22F10251   1.471   1.783  12.123 -1.0075  0.0299 -0.0717
   7723SM  H22G10252   1.396   1.678  12.245 -0.2759  0.9224  1.4427
   7723SM  C23F10253   1.612   1.645  12.211  0.3076 -0.1990  0.7269
   7723SM  H23F10254   1.609   1.584  12.118  1.4416 -0.1875  0.6608
   7723SM  H23G10255   1.623   1.572  12.293 -0.2685 -1.1072  0.0132
   7723SM  H23H10256   1.693   1.719  12.190 -1.4146  1.1800 -1.5120
   7823SM     N10257   2.806   0.207  14.474 -0.3976  0.4209 -0.2784
   7823SM   C1510258   2.816   0.129  14.345 -0.0979 -0.7652 -0.6974
   7823SM  H15A10259   2.846   0.026  14.351 -2.1733 -1.2991  2.0605
   7823SM  H15B10260   2.895   0.178  14.288  0.8218 -0.6370  0.6499
   7823SM  H15C10261   2.727   0.141  14.286 -1.1711  1.3421  1.2042
   7823SM   C1410262   2.906   0.168  14.581 -0.0561  0.3081  0.0525
   7823SM  H14A10263   2.889   0.066  14.613  1.5480 -0.6592 -1.8736
   7823SM  H14B10264   2.901   0.231  14.667  0.9681  0.2666  0.1552
   7823SM  H14C10265   3.008   0.177  14.544 -0.4832  0.9142 -1.0369
   7823SM   C1310266   2.823   0.353  14.447  0.5512 -0.1573 -0.6108
   7823SM  H13A10267   2.915   0.376  14.396 -0.0098  0.9159 -1.1655
   7823SM  H13B10268   2.816   0.411  14.537 -0.4911 -2.4746  0.8928
   7823SM  H13C10269   2.746   0.389  14.381 -1.3847 -0.6695  1.2602
   7823SM   C1210270   2.661   0.187  14.533 -0.2171  0.0912  0.0579
   7823SM  H12A10271   2.660   0.223  14.634  1.5454  0.5943 -0.0756
   7823SM  H12B10272   2.640   0.082  14.545 -0.8916  0.0571 -1.1664
   7823SM   C1110273   2.536   0.249  14.450 -0.9017  0.4591  0.7692
   7823SM  H11A10274   2.548   0.358  14.435 -0.1080  0.2491 -0.1940
   7823SM  H11B10275   2.441   0.232  14.506 -2.0644 -0.8713 -1.4493
   7823SM     P10276   2.469   0.053  14.296  0.4482 -0.0100  0.2670
   7823SM   O1310277   2.545  -0.044  14.371  0.1778  0.0417 -0.1336
   7823SM   O1410278   2.324   0.062  14.327 -0.0690 -0.1229 -0.4157
   7823SM   O1110279   2.498   0.011  14.145  0.2776  0.1313 -0.1373
   7823SM   O1210280   2.530   0.198  14.320 -0.1164  0.0358 -0.0749
   7823SM   C1S10281   2.429   0.085  14.045 -0.3177  0.5833  0.4160
   7823SM   H1S10282   2.456   0.192  14.054 -1.2541  0.7143  1.9400
   7823SM   H1T10283   2.319   0.071  14.056 -0.1098 -0.1120  1.8072
   7823SM    NF10284   2.412   0.085  13.798  0.1049 -0.4912 -0.6490
   7823SM   HNF10285   2.320   0.052  13.783 -0.1733  0.7935 -1.9295
   7823SM   C2S10286   2.474   0.020  13.912 -0.1236 -0.7317  0.1070
   7823SM   H2S10287   2.583   0.040  13.898 -0.4317 -0.0614 -1.5738
   7823SM   C3S10288   2.465  -0.133  13.904  0.0975  1.4605 -0.2354
   7823SM   H3S10289   2.367  -0.169  13.940  1.1673  0.0213  1.4210
   7823SM    O310290   2.556  -0.197  14.000 -0.1865  0.2824 -0.2973
   7823SM   HO310291   2.558  -0.130  14.068  2.1289  1.1844 -1.1607
   7823SM   C4S10292   2.494  -0.195  13.767  0.1628 -0.4568 -1.0498
   7823SM   H4S10293   2.404  -0.206  13.705 -1.8518  1.9031  1.2077
   7823SM   C5S10294   2.616  -0.216  13.717 -1.2256  0.0570 -0.0902
   7823SM   H5S10295   2.706  -0.217  13.781 -1.1409 -0.8023 -0.2060
   7823SM   C6S10296   2.642  -0.267  13.577  0.8819  0.5908 -0.7548
   7823SM   H6S10297   2.672  -0.375  13.578  1.8023  0.8014 -2.1745
   7823SM   H6T10298   2.736  -0.227  13.535  1.8060  0.8863  1.4396
   7823SM   C7S10299   2.532  -0.262  13.480 -0.1684 -0.4013 -0.2895
   7823SM   H7S10300   2.488  -0.162  13.465 -0.0864 -0.5890 -2.0719
   7823SM   H7T10301   2.450  -0.334  13.505  1.7602 -2.6288 -0.0132
   7823SM   C8S10302   2.585  -0.301  13.339  0.2928  0.3651  0.7288
   7823SM   H8S10303   2.647  -0.393  13.349 -0.9464 -0.4358  1.2523
   7823SM   H8T10304   2.640  -0.212  13.301 -2.8964  1.8053 -0.9130
   7823SM   C9S10305   2.474  -0.333  13.239  0.1841 -0.2360 -0.1369
   7823SM   H9S10306   2.411  -0.242  13.243 -0.1717 -0.5170  1.1706
   7823SM   H9T10307   2.418  -0.418  13.285 -1.7459  0.5064 -0.9969
   7823SM  C10S10308   2.515  -0.353  13.094 -0.4731 -0.1265  0.0353
   7823SM  H10S10309   2.575  -0.447  13.096  1.3905  1.0201  0.8682
   7823SM  H10T10310   2.580  -0.271  13.057 -0.5192 -0.5040 -0.9217
   7823SM  C11S10311   2.405  -0.366  12.984 -0.1682 -0.2724 -0.5117
   7823SM  H11S10312   2.350  -0.269  12.984 -0.2661 -0.3216 -1.6589
   7823SM  H11T10313   2.331  -0.444  13.010 -1.7081  0.3797 -2.7287
   7823SM  C12S10314   2.470  -0.381  12.850  0.0242  1.0363  0.2237
   7823SM  H12S10315   2.495  -0.487  12.824  1.3453  1.1062  1.0900
   7823SM  H12T10316   2.566  -0.325  12.849  0.0145  1.0492 -0.1657
   7823SM  C13S10317   2.367  -0.334  12.745  0.0199  0.2544 -0.5242
   7823SM  H13S10318   2.342  -0.227  12.760  0.7187  0.1229  2.1477
   7823SM  H13T10319   2.276  -0.397  12.747  0.2645 -0.1432 -1.3096
   7823SM  C14S10320   2.437  -0.344  12.606 -0.6664  0.4829  0.0719
   7823SM  H14S10321   2.488  -0.443  12.607  1.1294  1.3682 -0.5362
   7823SM  H14T10322   2.518  -0.269  12.597 -1.5900  1.5096  0.0411
   7823SM  C15S10323   2.348  -0.335  12.480  0.1713  0.2607 -0.2671
   7823SM  H15S10324   2.289  -0.242  12.492 -2.1428 -1.1946  0.3392
   7823SM  H15T10325   2.271  -0.414  12.500 -0.1390  0.2031 -1.6261
   7823SM  C16S10326   2.416  -0.332  12.343 -0.4680 -0.5373 -0.6219
   7823SM  H16S10327   2.484  -0.245  12.331  0.2543 -1.1790 -1.3208
   7823SM  H16T10328   2.337  -0.320  12.267 -1.0074 -0.2432 -0.0185
   7823SM  C17S10329   2.504  -0.452  12.312  0.5909 -0.1569  0.6828
   7823SM  H17S10330   2.429  -0.531  12.330 -0.3648  0.1253 -1.6848
   7823SM  H17T10331   2.580  -0.450  12.393 -0.8802  3.2271  2.1402
   7823SM  C18S10332   2.566  -0.463  12.167 -0.4956 -0.7038 -0.4086
   7823SM  H18S10333   2.484  -0.463  12.092  0.9408 -0.7734 -2.0468
   7823SM  H18T10334   2.622  -0.559  12.160  0.5481 -0.3727  2.1473
   7823SM  H18U10335   2.634  -0.379  12.143 -0.3499 -0.0899  1.8887
   7823SM   C1F10336   2.436   0.213  13.772 -0.0675  0.2419  0.2439
   7823SM    OF10337   2.525   0.282  13.823  0.4742  0.0522  0.8280
   7823SM   C2F10338   2.345   0.283  13.675  0.1654  0.5472  0.1012
   7823SM   H2F10339   2.393   0.359  13.609  3.1878 -0.0148  1.4488
   7823SM   H2G10340   2.293   0.350  13.747  0.0248  1.6837 -1.0278
   7823SM   C3F10341   2.242   0.187  13.614  0.8561 -0.0758 -0.3563
   7823SM   H3F10342   2.167   0.248  13.559 -0.2254 -1.7057 -0.7833
   7823SM   H3G10343   2.187   0.142  13.700  1.0522  1.2351  0.4856
   7823SM   C4F10344   2.292   0.088  13.500 -0.1338 -0.0333 -0.7902
   7823SM   H4F10345   2.211   0.011  13.500  0.1644 -0.3577 -0.1582
   7823SM   H4G10346   2.382   0.038  13.541  0.6153  0.2353 -2.0642
   7823SM   C5F10347   2.314   0.152  13.372  0.0147 -0.6711  0.4275
   7823SM   H5F10348   2.384   0.238  13.378 -0.3244 -0.4945  2.1266
   7823SM   H5G10349   2.215   0.197  13.349  0.8412  1.8846  1.5313
   7823SM   C6F10350   2.362   0.067  13.259  0.1095 -0.9043  0.1502
   7823SM   H6F10351   2.297  -0.023  13.247 -1.7189  0.4966 -0.9467
   7823SM   H6G10352   2.463   0.027  13.282  0.3284  0.2222  1.2157
   7823SM   C7F10353   2.373   0.140  13.120  0.1266  0.4164  0.2744
   7823SM   H7F10354   2.466   0.201  13.124  0.9923 -0.8860  0.6427
   7823SM   H7G10355   2.290   0.213  13.112  0.7598  1.1920  0.6289
   7823SM   C8F10356   2.360   0.046  12.996 -0.3109 -0.3376  0.3256
   7823SM   H8F10357   2.256   0.006  12.995 -0.0892 -0.9412 -0.9313
   7823SM   H8G10358   2.430  -0.040  12.992 -0.4566 -0.4313 -0.3702
   7823SM   C9F10359   2.372   0.146  12.868 -0.4051  0.0951 -0.0064
   7823SM   H9F10360   2.465   0.206  12.861 -1.3079  1.5395  0.0058
   7823SM   H9G10361   2.289   0.218  12.884 -0.0306  0.4056  0.5424
   7823SM  C10F10362   2.355   0.067  12.743 -0.1455  0.2580  0.0691
   7823SM  H10F10363   2.253   0.024  12.745  0.3344 -0.9926  2.9598
   7823SM  H10G10364   2.432  -0.013  12.733  0.2762  0.8561 -1.8458
   7823SM  C11F10365   2.367   0.149  12.611  0.0240  0.8730  1.3303
   7823SM  H11F10366   2.465   0.200  12.621  0.9154 -0.6342  0.7180
   7823SM  H11G10367   2.301   0.237  12.623 -2.5564 -0.9194  1.2582
   7823SM  C12F10368   2.340   0.068  12.486  0.0630  0.5474  0.5670
   7823SM  H12F10369   2.234   0.036  12.490 -0.4440  2.1034  0.3068
   7823SM  H12G10370   2.413  -0.016  12.484  0.5540  0.9592  1.0410
   7823SM  C13F10371   2.350   0.148  12.354 -1.0328 -0.5215 -0.8552
   7823SM  H13F10372   2.439   0.215  12.351 -1.9086  0.6610 -1.1141
   7823SM  H13G10373   2.271   0.226  12.352 -0.5144  0.0032 -1.7388
   7823SM  C14F10374   2.342   0.058  12.233  0.3805  0.8001  0.1590
   7823SM  H14F10375   2.263  -0.020  12.241  1.5809 -0.6800 -1.6708
   7823SM  H14G10376   2.437   0.002  12.229  1.4117  2.4883 -0.0587
   7823SM  C15F10377   2.325   0.137  12.107  0.3684  0.1396  0.6749
   7823SM  H15F10378   2.405   0.214  12.120 -0.5573  1.1619  0.4650
   7823SM  H15G10379   2.225   0.185  12.113 -0.0579 -0.8812  2.1286
   7823SM  C16F10380   2.330   0.056  11.969 -0.1678 -0.4263 -0.2722
   7823SM  H16F10381   2.430   0.011  11.953 -0.4722 -1.0756 -0.3619
   7823SM  H16G10382   2.312   0.132  11.890  1.4919 -0.0546 -0.3288
   7823SM  C17F10383   2.225  -0.054  11.948  0.3348 -0.5153  0.1618
   7823SM  H17F10384   2.123  -0.010  11.954 -0.1099 -1.4545 -0.2259
   7823SM  H17G10385   2.240  -0.127  12.031 -0.0042 -3.0902 -1.8906
   7823SM  C18F10386   2.249  -0.144  11.826 -0.4437  0.4751  0.6227
   7823SM  H18F10387   2.339  -0.207  11.848 -0.2543  0.6621  0.3817
   7823SM  H18G10388   2.257  -0.089  11.730 -3.6005  0.2528  0.1216
   7823SM  C19F10389   2.131  -0.240  11.804 -0.5235  0.1787 -0.3118
   7823SM  H19F10390   2.157  -0.303  11.716  1.7630  1.3068 -0.5259
   7823SM  H19G10391   2.039  -0.185  11.774 -0.5885 -0.9762 -2.4031
   7823SM  C20F10392   2.110  -0.351  11.915 -0.1193 -0.2580 -0.1009
   7823SM  H20F10393   2.102  -0.313  12.019 -0.4981 -0.7781  0.0663
   7823SM  H20G10394   2.201  -0.411  11.894 -0.3608 -0.3649 -0.8672
   7823SM  C21F10395   1.979  -0.428  11.892  0.0766 -0.0841  0.7124
   7823SM  H21F10396   1.979  -0.472  11.790 -0.7660  0.8689  0.2844
   7823SM  H21G10397   1.893  -0.358  11.893  0.5955  0.6243 -0.8446
   7823SM  C22F10398   1.957  -0.543  11.991  0.1426 -0.6651  0.0706
   7823SM  H22F10399   1.978  -0.509  12.095  2.3668  1.0281 -0.8491
   7823SM  H22G10400   2.041  -0.613  11.972 -0.6107 -1.6005  0.1068
   7823SM  C23F10401   1.817  -0.601  11.989  0.0673 -0.2107  0.3914
   7823SM  H23F10402   1.811  -0.666  11.899 -2.8952 -0.0120  0.3242
   7823SM  H23G10403   1.739  -0.522  11.994 -1.0236 -1.2812  0.8406
   7823SM  H23H10404   1.793  -0.666  12.075 -0.2217 -1.2148 -0.4212
   7923SM     N10405   6.274   0.562  14.572  0.2363  0.5094  0.6089
   7923SM   C1510406   6.167   0.531  14.469 -0.3342 -0.1619 -0.4340
   7923SM  H15A10407   6.096   0.463  14.514  0.0786  0.2995  0.9840
   7923SM  H15B10408   6.212   0.495  14.378 -2.0952  0.5545 -1.6626
   7923SM  H15C10409   6.113   0.623  14.449 -0.0394 -0.2329 -1.6247
   7923SM   C1410410   6.211   0.614  14.693 -0.4209 -0.2332 -0.2342
   7923SM  H14A10411   6.136   0.687  14.666  2.5120  2.6848 -1.0769
   7923SM  H14B10412   6.288   0.659  14.753 -0.2354  0.6478 -1.1146
   7923SM  H14C10413   6.168   0.530  14.745  0.0755 -1.0689 -1.1111
   7923SM   C1310414   6.353   0.446  14.607 -0.8488  0.4440 -0.0866
   7923SM  H13A10415   6.425   0.423  14.531  2.3718  2.0949  2.2044
   7923SM  H13B10416   6.293   0.362  14.640  1.1237 -0.6192  1.0319
   7923SM  H13C10417   6.423   0.468  14.687 -1.5021 -1.3758  1.0600
   7923SM   C1210418   6.360   0.666  14.499  0.0401 -0.2720  0.0121
   7923SM  H12A10419   6.448   0.698  14.554  0.9781  0.5018 -1.8243
   7923SM  H12B10420   6.305   0.758  14.484 -0.2054 -0.4224 -0.0029
   7923SM   C1110421   6.424   0.631  14.362  0.1010 -0.2357  0.0419
   7923SM  H11A10422   6.464   0.727  14.323  1.6266 -0.3562  1.1898
   7923SM  H11B10423   6.356   0.592  14.283  0.3807 -2.4025  0.7884
   7923SM     P10424   6.662   0.568  14.429 -0.6011  0.0038 -0.4036
   7923SM   O1310425   6.648   0.694  14.504  0.0446  0.5440 -0.0635
   7923SM   O1410426   6.722   0.458  14.506 -1.0606 -0.1634 -0.6374
   7923SM   O1110427   6.749   0.599  14.297  0.4878 -0.5287 -0.1819
   7923SM   O1210428   6.523   0.530  14.377  0.1528 -0.1189 -0.4760
   7923SM   C1S10429   6.780   0.504  14.196 -0.3792 -0.0775  0.0471
   7923SM   H1S10430   6.710   0.418  14.200  1.3728 -1.5398  0.4051
   7923SM   H1T10431   6.880   0.464  14.222 -0.3691 -1.0236 -1.3447
   7923SM    NF10432   6.801   0.468  13.962  0.0167 -0.3213  0.4162
   7923SM   HNF10433   6.896   0.455  13.934  0.3083  0.7458  0.8748
   7923SM   C2S10434   6.775   0.572  14.059  0.3145 -0.0760 -0.1469
   7923SM   H2S10435   6.669   0.599  14.043  0.1112  0.2900  1.6346
   7923SM   C3S10436   6.866   0.693  14.049  0.0602 -0.1126  0.3943
   7923SM   H3S10437   6.972   0.662  14.065 -0.2103 -1.1446  0.2352
   7923SM    O310438   6.833   0.794  14.149 -0.0710 -0.2835  0.1788
   7923SM   HO310439   6.780   0.743  14.211  0.7920 -0.0781  1.1076
   7923SM   C4S10440   6.856   0.750  13.908 -0.1956  0.2590  0.1698
   7923SM   H4S10441   6.756   0.778  13.872  0.3073  1.0715 -0.6313
   7923SM   C5S10442   6.961   0.772  13.824  0.4866  0.2644 -0.5606
   7923SM   H5S10443   7.064   0.757  13.858  0.7736  0.3631 -1.3645
   7923SM   C6S10444   6.948   0.834  13.690  0.4083 -0.0651  0.5527
   7923SM   H6S10445   7.030   0.907  13.677  1.2329 -0.2826  3.7544
   7923SM   H6T10446   6.861   0.903  13.687 -0.1384 -0.7604 -0.2453
   7923SM   C7S10447   6.955   0.733  13.567  0.0399 -0.1974 -0.5894
   7923SM   H7S10448   6.865   0.667  13.569  0.0502 -0.1975  0.4639
   7923SM   H7T10449   7.040   0.665  13.583 -0.7731 -1.3119 -0.8954
   7923SM   C8S10450   6.976   0.802  13.433  0.0664  0.3057  0.3185
   7923SM   H8S10451   7.077   0.849  13.442  0.6517 -1.0056  0.8209
   7923SM   H8T10452   6.911   0.892  13.431  0.4548  0.5895 -1.5705
   7923SM   C9S10453   6.945   0.717  13.309 -0.0876 -0.6473  0.5857
   7923SM   H9S10454   6.838   0.685  13.305 -0.7909  1.2509  2.5045
   7923SM   H9T10455   7.010   0.628  13.294  1.4082  0.8462 -2.6124
   7923SM  C10S10456   6.972   0.803  13.187 -1.0126  0.4483  0.3857
   7923SM  H10S10457   7.062   0.863  13.214  0.0206 -1.8179  2.4564
   7923SM  H10T10458   6.888   0.874  13.174 -0.9424  0.5605  0.5321
   7923SM  C11S10459   6.993   0.716  13.062 -0.0851 -0.0817  0.0792
   7923SM  H11S10460   6.928   0.627  13.075 -0.0172  0.1602  2.5400
   7923SM  H11T10461   7.087   0.658  13.055  1.0070  1.6538 -0.3993
   7923SM  C12S10462   6.984   0.786  12.928 -0.7027  0.7355 -0.2273
   7923SM  H12S10463   7.074   0.848  12.909 -0.4403  1.8338  3.7118
   7923SM  H12T10464   6.906   0.865  12.933  1.8690  3.4294 -0.0331
   7923SM  C13S10465   6.973   0.695  12.798  0.0703  0.4581 -0.0626
   7923SM  H13S10466   6.907   0.607  12.811  1.6946 -0.8278 -0.1873
   7923SM  H13T10467   7.073   0.647  12.789 -0.1044  0.0872 -0.0205
   7923SM  C14S10468   6.939   0.768  12.667  0.4054  0.2606  0.6966
   7923SM  H14S10469   7.003   0.856  12.646  2.2511 -1.0833  0.4759
   7923SM  H14T10470   6.837   0.810  12.679  0.4824  0.9738 -0.8677
   7923SM  C15S10471   6.949   0.677  12.542 -0.6760  0.2331 -0.5495
   7923SM  H15S10472   6.888   0.585  12.553 -1.1317  0.7000  1.1126
   7923SM  H15T10473   7.053   0.637  12.535 -1.3278 -1.5549 -0.4544
   7923SM  C16S10474   6.910   0.749  12.414  0.1744  0.0972 -0.8252
   7923SM  H16S10475   6.967   0.842  12.393  0.2657  0.1442 -0.3968
   7923SM  H16T10476   6.801   0.766  12.419  0.1019 -0.4117 -0.5445
   7923SM  C17S10477   6.935   0.665  12.293 -0.4266 -0.3005 -0.3855
   7923SM  H17S10478   6.886   0.566  12.306  0.8505 -1.0250 -0.8270
   7923SM  H17T10479   7.044   0.647  12.286 -0.3122  0.5412 -0.8588
   7923SM  C18S10480   6.888   0.725  12.163 -0.0238  0.3696  0.2483
   7923SM  H18S10481   6.892   0.653  12.078 -1.0288  0.0968  0.4255
   7923SM  H18T10482   6.926   0.828  12.145 -0.6876  0.5281 -0.2825
   7923SM  H18U10483   6.781   0.751  12.172  0.3145  2.1268 -0.3833
   7923SM   C1F10484   6.715   0.377  13.922 -0.1507  0.4518  0.1193
   7923SM    OF10485   6.600   0.367  13.969 -0.1639 -0.4127  0.5782
   7923SM   C2F10486   6.748   0.288  13.808 -0.7381  0.5593  0.3709
   7923SM   H2F10487   6.678   0.202  13.816 -0.8411  0.4959 -0.9589
   7923SM   H2G10488   6.852   0.253  13.819 -0.7901  0.1239 -0.4288
   7923SM   C3F10489   6.710   0.354  13.667  0.7050 -0.7771  0.8352
   7923SM   H3F10490   6.757   0.455  13.662 -1.3230  0.1539 -2.5015
   7923SM   H3G10491   6.603   0.380  13.654  1.1525 -0.1188 -2.4125
   7923SM   C4F10492   6.761   0.259  13.548  0.0093  0.9221 -0.6698
   7923SM   H4F10493   6.673   0.192  13.544  0.9564 -0.3168 -1.9617
   7923SM   H4G10494   6.855   0.210  13.580 -1.4531 -1.8282 -0.3354
   7923SM   C5F10495   6.772   0.327  13.410  0.2885  0.3452  0.0672
   7923SM   H5F10496   6.837   0.416  13.418  0.3245  0.3591 -0.3904
   7923SM   H5G10497   6.672   0.372  13.396  0.1748 -0.4103 -1.8243
   7923SM   C6F10498   6.814   0.236  13.289 -0.3929 -0.0800 -0.6190
   7923SM   H6F10499   6.742   0.152  13.275 -1.4951  0.4342  1.4850
   7923SM   H6G10500   6.917   0.197  13.302  0.7206  2.8087 -0.0489
   7923SM   C7F10501   6.816   0.324  13.159 -0.0352  0.2349  0.2711
   7923SM   H7F10502   6.894   0.400  13.179  0.2775  0.2804 -1.0724
   7923SM   H7G10503   6.711   0.355  13.140 -0.2805  1.1483  2.7079
   7923SM   C8F10504   6.860   0.249  13.031 -0.2985  0.7553 -0.2983
   7923SM   H8F10505   6.799   0.158  13.011 -0.7018  0.8792  0.3236
   7923SM   H8G10506   6.962   0.209  13.051 -1.6260 -3.1400 -0.5024
   7923SM   C9F10507   6.855   0.319  12.907 -0.6896  0.1098 -0.1955
   7923SM   H9F10508   6.929   0.402  12.902 -1.1087  0.4621 -0.6930
   7923SM   H9G10509   6.758   0.372  12.890 -1.2177 -0.3889  1.1096
   7923SM  C10F10510   6.875   0.228  12.784  0.2845  0.7513  0.2733
   7923SM  H10F10511   6.799   0.147  12.781  1.9870 -0.9156 -0.2700
   7923SM  H10G10512   6.972   0.174  12.792 -0.4854 -0.6629  0.4250
   7923SM  C11F10513   6.859   0.301  12.650  0.3304 -0.6464  0.8267
   7923SM  H11F10514   6.933   0.383  12.644  0.6466 -0.6193  3.6463
   7923SM  H11G10515   6.762   0.355  12.643  1.9897  2.2732 -1.6857
   7923SM  C12F10516   6.879   0.218  12.524 -0.0901 -0.1242 -0.1535
   7923SM  H12F10517   6.833   0.117  12.531 -1.3363  0.3560 -1.0098
   7923SM  H12G10518   6.988   0.205  12.505 -0.3064 -1.1843 -0.8029
   7923SM  C13F10519   6.822   0.288  12.396 -0.8448 -0.6256  0.3839
   7923SM  H13F10520   6.882   0.376  12.366  0.8554 -2.0950 -0.7164
   7923SM  H13G10521   6.719   0.326  12.418 -0.1603  2.0892 -0.6244
   7923SM  C14F10522   6.822   0.195  12.271 -0.9478 -0.3475  0.3957
   7923SM  H14F10523   6.748   0.115  12.294 -1.2125 -0.4265 -0.6905
   7923SM  H14G10524   6.920   0.144  12.258  0.3169  1.1142  3.1531
   7923SM  C15F10525   6.771   0.274  12.144 -0.7541  0.1747 -0.1321
   7923SM  H15F10526   6.837   0.361  12.123 -0.5129  0.2116  0.7296
   7923SM  H15G10527   6.674   0.322  12.170  0.2902  2.0383  0.4506
   7923SM  C16F10528   6.757   0.191  12.014 -0.4652  0.3300 -0.3287
   7923SM  H16F10529   6.684   0.112  12.042 -0.6529  0.9024  0.8926
   7923SM  H16G10530   6.851   0.133  11.998  0.4445  1.6760 -0.0964
   7923SM  C17F10531   6.695   0.272  11.896 -0.7039  0.6946  0.6090
   7923SM  H17F10532   6.777   0.331  11.851  1.0086 -0.6959  1.7536
   7923SM  H17G10533   6.624   0.346  11.938 -0.3232  0.7186  1.2380
   7923SM  C18F10534   6.627   0.184  11.793  0.4662  0.3638 -0.0703
   7923SM  H18F10535   6.601   0.255  11.712  0.5870  0.1856 -0.2644
   7923SM  H18G10536   6.531   0.145  11.833 -0.9584  1.8966 -1.8355
   7923SM  C19F10537   6.715   0.077  11.737  0.5920 -0.2003 -0.4487
   7923SM  H19F10538   6.735  -0.008  11.806  0.0828 -1.3925 -1.7356
   7923SM  H19G10539   6.813   0.130  11.727 -0.1002  1.2426  0.0819
   7923SM  C20F10540   6.661   0.023  11.609 -0.5587 -0.2748 -0.1653
   7923SM  H20F10541   6.550   0.008  11.612 -1.1569  1.9778 -4.2093
   7923SM  H20G10542   6.705  -0.077  11.588  1.1972 -0.0854  2.2387
   7923SM  C21F10543   6.697   0.120  11.496 -0.9751  0.1217 -0.1851
   7923SM  H21F10544   6.808   0.117  11.498 -0.9822 -2.4789  1.8714
   7923SM  H21G10545   6.673   0.227  11.514 -2.0601  0.1257 -1.4538
   7923SM  C22F10546   6.649   0.080  11.354 -0.1627 -0.0439 -0.2873
   7923SM  H22F10547   6.663  -0.029  11.339  2.1342 -0.4745  3.6478
   7923SM  H22G10548   6.708   0.124  11.271  0.4094 -2.1340 -1.0478
   7923SM  C23F10549   6.491   0.093  11.333 -0.4716  0.4751  0.2166
   7923SM  H23F10550   6.469   0.059  11.229  1.0873 -0.3965  0.1385
   7923SM  H23G10551   6.456   0.197  11.350  0.5201  0.9107 -0.3135
   7923SM  H23H10552   6.436   0.029  11.405  1.3553 -1.7145 -0.2431
   8023SM     N10553   1.904   0.614  14.460 -0.1627 -0.2545 -0.2909
   8023SM   C1510554   1.886   0.483  14.535 -0.0218 -0.6827  0.0607
   8023SM  H15A10555   1.970   0.415  14.526  1.2857  0.9036 -0.1789
   8023SM  H15B10556   1.799   0.426  14.505 -0.9087  0.1612  0.9521
   8023SM  H15C10557   1.873   0.504  14.640 -0.4429  0.9482 -0.2918
   8023SM   C1410558   1.766   0.675  14.457 -0.2394  0.0313  0.1248
   8023SM  H14A10559   1.686   0.606  14.435 -0.0529 -0.9733  2.2950
   8023SM  H14B10560   1.769   0.752  14.382 -0.2598 -1.5183 -1.5357
   8023SM  H14C10561   1.737   0.721  14.551 -0.7361 -1.4760  0.7388
   8023SM   C1310562   1.992   0.705  14.548 -0.5698  0.3522 -0.4251
   8023SM  H13A10563   2.091   0.662  14.556 -0.2199  0.9815 -1.2862
   8023SM  H13B10564   1.954   0.728  14.646  1.1923 -0.6770  0.5554
   8023SM  H13C10565   2.008   0.799  14.499  0.5231  0.8100  0.7822
   8023SM   C1210566   1.959   0.581  14.330 -0.3147 -0.0992 -0.2980
   8023SM  H12A10567   1.882   0.518  14.288  0.2045 -1.5459  0.8328
   8023SM  H12B10568   2.047   0.518  14.331  0.3119  0.7548 -0.4035
   8023SM   C1110569   1.986   0.700  14.233  0.8893  0.3142 -0.0809
   8023SM  H11A10570   1.886   0.746  14.245  0.9036 -0.2173  3.0378
   8023SM  H11B10571   1.988   0.660  14.129  0.5006 -1.4501  0.5468
   8023SM     P10572   2.226   0.774  14.217  0.2640  0.1343 -0.1374
   8023SM   O1310573   2.299   0.904  14.221  0.0933 -0.1473 -0.0672
   8023SM   O1410574   2.295   0.668  14.289  0.7591 -0.0400 -0.1170
   8023SM   O1110575   2.216   0.731  14.060 -0.3353 -0.2529 -0.0238
   8023SM   O1210576   2.082   0.797  14.256  0.6259 -0.7762 -0.0475
   8023SM   C1S10577   2.147   0.818  13.970  0.0181  0.3225 -0.3841
   8023SM   H1S10578   2.190   0.921  13.976  1.4631 -0.3336  1.0819
   8023SM   H1T10579   2.042   0.835  14.003  0.4565 -0.2388  1.4392
   8023SM    NF10580   2.108   0.877  13.725  0.3111 -0.1575  0.4828
   8023SM   HNF10581   2.019   0.860  13.683  0.0008  0.2206  0.9703
   8023SM   C2S10582   2.151   0.774  13.819  0.4468  0.1345  0.2087
   8023SM   H2S10583   2.261   0.760  13.810  0.4225 -0.6908  1.0907
   8023SM   C3S10584   2.086   0.630  13.803  0.2428 -0.0958 -0.0194
   8023SM   H3S10585   1.978   0.633  13.828  0.5486  0.2535  1.3318
   8023SM    O310586   2.130   0.539  13.897  0.1622  0.2642  0.0476
   8023SM   HO310587   2.153   0.599  13.968 -0.7509 -0.6708  1.1732
   8023SM   C4S10588   2.108   0.579  13.661  0.0120 -0.1559  0.2432
   8023SM   H4S10589   2.217   0.579  13.644  0.0858 -0.0782  0.7050
   8023SM   C5S10590   2.005   0.528  13.590 -0.7679  0.0313  0.1644
   8023SM   H5S10591   1.914   0.505  13.647 -1.8513  0.5762 -1.3179
   8023SM   C6S10592   2.011   0.466  13.454 -0.5541 -0.4836 -0.7838
   8023SM   H6S10593   1.948   0.375  13.443  0.2299 -1.1301 -0.0838
   8023SM   H6T10594   2.104   0.414  13.427 -0.4491 -1.0971  0.6591
   8023SM   C7S10595   1.978   0.557  13.337 -0.5153 -0.5120  0.3302
   8023SM   H7S10596   2.053   0.639  13.334 -1.2190  0.3611  3.1566
   8023SM   H7T10597   1.879   0.600  13.366 -2.2035 -2.6862 -1.7937
   8023SM   C8S10598   1.955   0.484  13.205 -0.1779 -0.9156  0.0205
   8023SM   H8S10599   1.889   0.558  13.154  0.7881  1.5665  2.1340
   8023SM   H8T10600   1.890   0.399  13.233  0.0718 -0.5682  1.7660
   8023SM   C9S10601   2.079   0.441  13.128  0.2179 -0.3327  0.2686
   8023SM   H9S10602   2.118   0.356  13.188 -2.9565  0.0487  3.1987
   8023SM   H9T10603   2.147   0.528  13.121 -1.3344  0.8552 -0.7467
   8023SM  C10S10604   2.051   0.400  12.982  0.0440 -0.0451  0.0599
   8023SM  H10S10605   2.149   0.366  12.942  1.0504  0.7505  1.7514
   8023SM  H10T10606   2.007   0.482  12.921  0.0332 -0.3323 -0.3237
   8023SM  C11S10607   1.969   0.279  12.953 -0.0726  0.5077  0.5031
   8023SM  H11S10608   1.872   0.292  13.005  0.6859  2.5034  1.4965
   8023SM  H11T10609   2.023   0.190  12.995  1.8402  1.2056 -0.3748
   8023SM  C12S10610   1.947   0.254  12.805 -0.3917  0.2999  0.0961
   8023SM  H12S10611   2.049   0.246  12.763  0.2170  2.7041  0.9974
   8023SM  H12T10612   1.893   0.336  12.753 -1.4264 -0.6417 -0.3847
   8023SM  C13S10613   1.897   0.110  12.765 -0.2640  0.3409  0.7977
   8023SM  H13S10614   1.786   0.113  12.768 -0.2401  0.2700  2.4188
   8023SM  H13T10615   1.945   0.033  12.828  1.1221  0.2864 -0.2750
   8023SM  C14S10616   1.929   0.075  12.614 -0.2009  0.7397 -0.5155
   8023SM  H14S10617   2.040   0.071  12.614 -0.1325  2.0430  0.5400
   8023SM  H14T10618   1.894   0.158  12.549 -1.2431  1.6345  1.1245
   8023SM  C15S10619   1.854  -0.048  12.561 -0.8310 -0.3773  0.1720
   8023SM  H15S10620   1.746  -0.028  12.545 -1.5307 -3.4004  0.4169
   8023SM  H15T10621   1.869  -0.128  12.637  0.6362  1.1156  1.5389
   8023SM  C16S10622   1.907  -0.098  12.420 -0.2930 -0.2003  0.3320
   8023SM  H16S10623   2.017  -0.113  12.426 -0.2448  0.1379  0.3424
   8023SM  H16T10624   1.893  -0.009  12.355  2.0477  0.8124  1.1016
   8023SM  C17S10625   1.838  -0.223  12.367 -0.0723 -0.3909 -0.2968
   8023SM  H17S10626   1.731  -0.194  12.355  0.5076  1.2288 -2.1147
   8023SM  H17T10627   1.838  -0.305  12.442 -1.2178 -0.3141 -0.2004
   8023SM  C18S10628   1.899  -0.276  12.240 -0.2317 -0.1903  0.5266
   8023SM  H18S10629   1.998  -0.321  12.262 -0.0735  0.5421  1.3983
   8023SM  H18T10630   1.913  -0.199  12.161 -3.3075 -0.5622 -0.4996
   8023SM  H18U10631   1.847  -0.352  12.178  1.5105  0.9721 -2.5671
   8023SM   C1F10632   2.172   0.993  13.704  0.1970  0.2192 -0.1347
   8023SM    OF10633   2.282   1.019  13.750 -0.3485  0.9573  0.3739
   8023SM   C2F10634   2.099   1.099  13.618  0.2606 -0.0253 -0.2576
   8023SM   H2F10635   2.121   1.196  13.668 -0.1720 -0.4239  0.7392
   8023SM   H2G10636   1.992   1.068  13.620  0.5735 -1.2665 -1.5948
   8023SM   C3F10637   2.164   1.103  13.473  0.5691 -0.3868  0.0666
   8023SM   H3F10638   2.272   1.125  13.460  0.3761  0.0095 -0.9095
   8023SM   H3G10639   2.114   1.187  13.420  0.3077 -1.0229 -0.7181
   8023SM   C4F10640   2.138   0.978  13.393  0.2149 -0.2980  0.1142
   8023SM   H4F10641   2.056   0.907  13.417 -0.1240 -0.3542 -1.1651
   8023SM   H4G10642   2.229   0.917  13.413  0.5345  0.0972 -0.1301
   8023SM   C5F10643   2.124   1.015  13.243  0.4389  0.6533 -0.5226
   8023SM   H5F10644   2.212   1.070  13.205  2.7162 -1.7222  1.0261
   8023SM   H5G10645   2.036   1.080  13.224  0.5523  0.5258 -1.5791
   8023SM   C6F10646   2.108   0.887  13.158 -0.3789 -0.6684 -0.0047
   8023SM   H6F10647   2.034   0.812  13.196 -2.2239  2.2072  2.4998
   8023SM   H6G10648   2.199   0.827  13.182 -0.1927 -0.7903 -0.9724
   8023SM   C7F10649   2.095   0.924  13.016  0.3238  0.5715 -0.3200
   8023SM   H7F10650   2.169   1.005  12.999  0.1247  0.2329 -3.2594
   8023SM   H7G10651   1.998   0.969  12.988 -0.0467 -0.7826 -1.3048
   8023SM   C8F10652   2.118   0.801  12.912 -0.6122 -0.1111  0.1720
   8023SM   H8F10653   2.060   0.714  12.952  1.1255 -0.8933  1.1453
   8023SM   H8G10654   2.226   0.777  12.919 -0.6813 -0.1827  1.1074
   8023SM   C9F10655   2.084   0.828  12.771 -0.2439 -0.1117  0.9345
   8023SM   H9F10656   2.139   0.915  12.730 -0.9005 -0.3908 -0.6354
   8023SM   H9G10657   1.979   0.857  12.748  0.4886  0.2384 -2.6532
   8023SM  C10F10658   2.107   0.697  12.690 -0.6713  0.2828 -0.6262
   8023SM  H10F10659   2.024   0.628  12.716 -0.9834  0.9426  0.1784
   8023SM  H10G10660   2.192   0.641  12.736  0.4505  2.7976  0.5537
   8023SM  C11F10661   2.106   0.715  12.536  0.5238 -0.0903 -0.0939
   8023SM  H11F10662   2.178   0.790  12.497  0.3359  0.1954  0.1107
   8023SM  H11G10663   2.002   0.750  12.520 -0.0908 -1.6822  0.2448
   8023SM  C12F10664   2.125   0.588  12.455  0.1287  0.8988  0.4168
   8023SM  H12F10665   2.053   0.514  12.496  0.6593 -0.1481 -0.4818
   8023SM  H12G10666   2.228   0.546  12.463  0.2815  0.5327 -2.2941
   8023SM  C13F10667   2.094   0.612  12.309 -0.0931 -0.2202  0.2639
   8023SM  H13F10668   2.173   0.671  12.258 -0.7778  0.3690 -0.1503
   8023SM  H13G10669   2.004   0.678  12.308 -0.4348 -0.6830 -0.3865
   8023SM  C14F10670   2.056   0.488  12.226 -0.4131 -0.2448 -0.0518
   8023SM  H14F10671   1.963   0.436  12.255 -1.7712  1.7164 -0.7072
   8023SM  H14G10672   2.135   0.410  12.238  0.0633  0.3245  0.6497
   8023SM  C15F10673   2.055   0.516  12.076 -0.4763  0.1359  0.3277
   8023SM  H15F10674   2.047   0.420  12.020  2.2667  0.2320 -0.4033
   8023SM  H15G10675   2.157   0.560  12.064 -0.1405 -0.2879  1.4880
   8023SM  C16F10676   1.944   0.619  12.041  0.2153  0.4206  0.1443
   8023SM  H16F10677   1.981   0.716  12.081  0.3444  0.6982 -0.6333
   8023SM  H16G10678   1.850   0.587  12.091  0.2202 -1.3975 -0.8936
   8023SM  C17F10679   1.919   0.641  11.896  0.1017  0.4798  0.0112
   8023SM  H17F10680   2.011   0.616  11.838  0.0237 -0.3569  0.2339
   8023SM  H17G10681   1.896   0.745  11.864  2.5893  0.5333 -1.9361
   8023SM  C18F10682   1.799   0.562  11.840 -0.6560 -0.6516  0.4839
   8023SM  H18F10683   1.711   0.603  11.893  0.9649  1.7128  1.5118
   8023SM  H18G10684   1.825   0.455  11.860  1.0352 -0.9444 -2.7315
   8023SM  C19F10685   1.772   0.571  11.684 -0.2769  1.0475  0.3692
   8023SM  H19F10686   1.687   0.502  11.664  2.5678 -2.4545 -0.5593
   8023SM  H19G10687   1.858   0.531  11.627 -0.2640 -0.5894  1.4721
   8023SM  C20F10688   1.744   0.713  11.631  0.3096 -1.0251 -0.1293
   8023SM  H20F10689   1.826   0.784  11.653 -0.3632 -1.0080  2.6970
   8023SM  H20G10690   1.664   0.758  11.693  0.1500  1.6830 -2.1328
   8023SM  C21F10691   1.694   0.713  11.486 -0.3099 -0.1796 -1.0481
   8023SM  H21F10692   1.737   0.628  11.430 -1.2985  0.7123 -3.2879
   8023SM  H21G10693   1.732   0.809  11.444  1.6317 -0.5100 -0.1421
   8023SM  C22F10694   1.542   0.711  11.482 -0.2889 -1.0600 -0.2586
   8023SM  H22F10695   1.510   0.806  11.530 -1.3154 -2.0230  1.0013
   8023SM  H22G10696   1.513   0.631  11.553  0.0896 -0.5354  0.4908
   8023SM  C23F10697   1.479   0.680  11.347 -0.1032  0.3571 -0.2365
   8023SM  H23F10698   1.515   0.579  11.319 -0.7026 -0.1810  0.8783
   8023SM  H23G10699   1.517   0.746  11.266 -1.2093  1.3086 -0.0133
   8023SM  H23H10700   1.368   0.675  11.350 -0.2328  1.8106 -1.5289
   8123SM     N10701   5.457   3.455   9.991 -0.5476 -0.3638 -0.1055
   8123SM   C1510702   5.308   3.430  10.017  0.0315  0.5637  0.1090
   8123SM  H15A10703   5.261   3.526  10.033  0.7136  1.0905 -0.9121
   8123SM  H15B10704   5.292   3.358  10.095  1.4101  0.4657  0.3193
   8123SM  H15C10705   5.264   3.394   9.924 -0.2238  0.3974  0.2915
   8123SM   C1410706   5.510   3.319   9.952 -0.1701  0.2593 -0.4114
   8123SM  H14A10707   5.484   3.252  10.032  3.8541 -0.1519  0.7697
   8123SM  H14B10708   5.617   3.326   9.937 -0.2157  1.2708 -0.3336
   8123SM  H14C10709   5.469   3.283   9.859 -1.4796  1.0835 -0.1739
   8123SM   C1310710   5.477   3.552   9.874 -0.1679 -0.7025 -0.8224
   8123SM  H13A10711   5.422   3.520   9.787  2.0299 -0.4756 -2.3692
   8123SM  H13B10712   5.580   3.553   9.842  0.0596 -1.1327 -0.1250
   8123SM  H13C10713   5.444   3.651   9.900 -0.5227 -0.8174 -0.8269
   8123SM   C1210714   5.520   3.500  10.124 -0.7624 -0.1448  0.1354
   8123SM  H12A10715   5.618   3.541  10.104 -0.6514 -0.7262 -0.5570
   8123SM  H12B10716   5.538   3.409  10.181 -1.8353 -0.8287 -0.5833
   8123SM   C1110717   5.462   3.611  10.211  0.0262  0.8162  0.2882
   8123SM  H11A10718   5.444   3.691  10.136  2.7693  1.6434  0.4131
   8123SM  H11B10719   5.531   3.656  10.285  1.9588 -3.5078  1.4434
   8123SM     P10720   5.350   3.487  10.402 -0.1096  0.1211 -0.5939
   8123SM   O1310721   5.219   3.482  10.465  0.1670 -0.2908  0.4055
   8123SM   O1410722   5.419   3.360  10.379  0.3821  0.2668 -0.3106
   8123SM   O1110723   5.443   3.574  10.488 -0.3518 -0.4330  0.3680
   8123SM   O1210724   5.341   3.569  10.268  0.2598  0.6788 -0.1213
   8123SM   C1S10725   5.438   3.715  10.524  0.3022 -0.1409 -0.0265
   8123SM   H1S10726   5.391   3.778  10.445  2.7798  1.3389 -0.4236
   8123SM   H1T10727   5.537   3.764  10.529  0.6015 -0.6716 -0.6717
   8123SM    NF10728   5.331   3.886  10.674  0.1572 -0.6164  0.3929
   8123SM   HNF10729   5.394   3.946  10.723 -0.3431  0.9482 -0.8061
   8123SM   C2S10730   5.367   3.745  10.660 -0.1904 -0.1379 -0.5308
   8123SM   H2S10731   5.276   3.681  10.658 -0.0336 -0.4460  0.7360
   8123SM   C3S10732   5.457   3.696  10.777  0.5155 -0.0367  0.1185
   8123SM   H3S10733   5.556   3.746  10.777  0.2833  0.4485 -0.8473
   8123SM    O310734   5.496   3.558  10.762  0.1889  0.3126 -0.2765
   8123SM   HO310735   5.451   3.523  10.685  2.5837 -2.9407 -0.4045
   8123SM   C4S10736   5.392   3.720  10.910 -0.5901  0.8860 -0.7955
   8123SM   H4S10737   5.434   3.814  10.947  1.4750 -0.3779  0.2533
   8123SM   C5S10738   5.298   3.649  10.974  0.0536  0.1723 -0.3825
   8123SM   H5S10739   5.250   3.555  10.942  1.0945 -0.6648  0.4381
   8123SM   C6S10740   5.238   3.690  11.106 -0.3928  0.1474 -0.4166
   8123SM   H6S10741   5.276   3.626  11.188 -0.8411  0.0806 -0.2553
   8123SM   H6T10742   5.128   3.674  11.095 -0.0198 -2.9310 -0.4706
   8123SM   C7S10743   5.260   3.837  11.151 -0.5220 -0.0563  0.0479
   8123SM   H7S10744   5.250   3.911  11.069 -2.7176 -0.0539  0.2595
   8123SM   H7T10745   5.364   3.841  11.193 -0.5459  1.5143  0.0035
   8123SM   C8S10746   5.177   3.880  11.271 -0.2963 -0.1162 -0.0347
   8123SM   H8S10747   5.071   3.859  11.243 -0.5439  1.4594 -0.3631
   8123SM   H8T10748   5.197   3.988  11.286 -0.2202  0.0752 -1.3345
   8123SM   C9S10749   5.221   3.807  11.398  0.0522  0.5755  1.2867
   8123SM   H9S10750   5.329   3.824  11.415 -0.0961  0.9926  1.8772
   8123SM   H9T10751   5.197   3.699  11.394 -1.3455  0.8909  0.3630
   8123SM  C10S10752   5.139   3.865  11.517 -0.6380 -0.3744 -0.3580
   8123SM  H10S10753   5.031   3.851  11.494 -1.0495  0.4157  0.9556
   8123SM  H10T10754   5.155   3.973  11.536  1.2071 -0.9953  2.2235
   8123SM  C11S10755   5.166   3.775  11.646 -0.7159 -0.5724 -0.7179
   8123SM  H11S10756   5.269   3.797  11.682 -1.9825  1.5447  1.9476
   8123SM  H11T10757   5.163   3.667  11.621  1.8619 -0.9492  0.3576
   8123SM  C12S10758   5.074   3.810  11.765 -0.1903 -0.1155  0.5784
   8123SM  H12S10759   4.973   3.794  11.721 -0.0088 -2.1688  0.7868
   8123SM  H12T10760   5.091   3.913  11.800  0.8094 -0.0302 -0.1194
   8123SM  C13S10761   5.098   3.720  11.881 -0.1533  0.5429 -0.3501
   8123SM  H13S10762   5.207   3.703  11.894 -0.5551 -1.3258  1.0311
   8123SM  H13T10763   5.055   3.620  11.858 -2.1796  1.1452  0.5933
   8123SM  C14S10764   5.040   3.787  12.003 -0.2865 -0.1636 -0.2632
   8123SM  H14S10765   4.937   3.816  11.974 -0.0465  0.5304 -0.4446
   8123SM  H14T10766   5.099   3.877  12.032  0.6634 -0.9469  0.2754
   8123SM  C15S10767   5.027   3.696  12.122 -0.9475  0.3229  0.3669
   8123SM  H15S10768   4.956   3.611  12.108 -1.4154  0.6127  0.9600
   8123SM  H15T10769   4.978   3.755  12.203 -0.1330  1.1511  0.2697
   8123SM  C16S10770   5.156   3.637  12.180 -0.1011  0.0068  0.0322
   8123SM  H16S10771   5.243   3.707  12.179 -1.5031  1.8384  0.8100
   8123SM  H16T10772   5.187   3.558  12.108  1.0612 -0.4211  0.9674
   8123SM  C17S10773   5.141   3.565  12.318 -0.7467 -0.5451 -0.1397
   8123SM  H17S10774   5.034   3.535  12.317 -1.1088  0.6945 -1.4040
   8123SM  H17T10775   5.155   3.641  12.397 -1.3980 -0.8044  0.2337
   8123SM  C18S10776   5.227   3.440  12.357 -0.4042 -0.7712  0.5216
   8123SM  H18S10777   5.337   3.455  12.356 -0.4541 -0.2866  1.2316
   8123SM  H18T10778   5.196   3.360  12.286 -1.4468 -1.4271  1.6682
   8123SM  H18U10779   5.201   3.406  12.460  2.0718  0.7268  1.7210
   8123SM   C1F10780   5.241   3.947  10.592  0.1375 -0.0635  0.3018
   8123SM    OF10781   5.176   3.878  10.509  0.2442  0.2112  0.0465
   8123SM   C2F10782   5.227   4.092  10.587  0.6890 -0.4045  0.3391
   8123SM   H2F10783   5.204   4.125  10.483  1.9481  0.0137  0.1786
   8123SM   H2G10784   5.319   4.151  10.608 -0.0915  1.7105 -1.6465
   8123SM   C3F10785   5.112   4.137  10.682  0.4070 -0.4550 -1.1871
   8123SM   H3F10786   5.021   4.082  10.649  0.8022 -1.0894 -1.2143
   8123SM   H3G10787   5.101   4.246  10.659  2.1956 -0.0995 -0.5225
   8123SM   C4F10788   5.126   4.113  10.828  0.3266  0.2755 -0.9430
   8123SM   H4F10789   5.221   4.162  10.856 -0.8798  2.1139  0.1446
   8123SM   H4G10790   5.136   4.004  10.851  0.8418  0.5939  0.4475
   8123SM   C5F10791   5.008   4.166  10.905  0.3102  0.0173 -0.8461
   8123SM   H5F10792   4.909   4.139  10.860 -0.6205 -1.4135  1.8524
   8123SM   H5G10793   5.018   4.276  10.910 -1.0960  0.0923  1.2201
   8123SM   C6F10794   5.004   4.114  11.052  0.0430  0.2692  0.2865
   8123SM   H6F10795   5.098   4.148  11.101  0.7981  0.8839 -1.5367
   8123SM   H6G10796   4.999   4.003  11.060  2.3666  0.1871  1.1930
   8123SM   C7F10797   4.875   4.172  11.123 -0.0178 -0.4844  1.3822
   8123SM   H7F10798   4.786   4.136  11.069  0.4791  1.3487 -0.8158
   8123SM   H7G10799   4.870   4.283  11.118  0.4588 -0.3423  3.1938
   8123SM   C8F10800   4.851   4.128  11.270  0.0332 -0.0789 -0.6421
   8123SM   H8F10801   4.862   4.018  11.283 -1.9043 -0.1664  0.7072
   8123SM   H8G10802   4.747   4.161  11.294  0.9558  1.6824  1.2940
   8123SM   C9F10803   4.953   4.198  11.356  0.3137 -0.3030 -0.4895
   8123SM   H9F10804   4.957   4.307  11.336  0.7609 -0.4565 -1.2754
   8123SM   H9G10805   5.052   4.161  11.322  0.5337 -0.5710  0.4105
   8123SM  C10F10806   4.954   4.161  11.506 -0.7996 -0.5362  0.6258
   8123SM  H10F10807   5.054   4.167  11.555  0.5417  0.0928 -1.9797
   8123SM  H10G10808   4.933   4.052  11.505  0.7278 -0.8566  0.5980
   8123SM  C11F10809   4.852   4.246  11.585  0.2116  0.6256  0.1409
   8123SM  H11F10810   4.754   4.246  11.533 -0.7738 -2.0222  1.7918
   8123SM  H11G10811   4.887   4.351  11.590  2.2177  0.1136 -1.6129
   8123SM  C12F10812   4.837   4.180  11.716  0.6880 -0.1504 -0.8004
   8123SM  H12F10813   4.938   4.155  11.755  0.6131  0.9035  0.1242
   8123SM  H12G10814   4.780   4.091  11.681  0.5208  0.2398 -1.5363
   8123SM  C13F10815   4.745   4.259  11.813  0.4386 -0.6733 -0.4145
   8123SM  H13F10816   4.638   4.252  11.785  0.0049  0.8780  0.6842
   8123SM  H13G10817   4.767   4.368  11.807 -1.2172 -0.3923 -3.8693
   8123SM  C14F10818   4.741   4.220  11.957  0.2223  0.4315 -0.2666
   8123SM  H14F10819   4.715   4.113  11.966  0.1827  0.3925 -0.8331
   8123SM  H14G10820   4.657   4.279  12.001 -0.7879  0.9461 -2.7167
   8123SM  C15F10821   4.862   4.254  12.049  0.3607  0.6646  0.2026
   8123SM  H15F10822   4.904   4.356  12.035  0.2010  0.8568  1.0561
   8123SM  H15G10823   4.934   4.175  12.020  0.4740 -0.6350  3.5201
   8123SM  C16F10824   4.830   4.226  12.194 -0.4922  0.2898  0.0881
   8123SM  H16F10825   4.736   4.271  12.232  0.0070  1.6666 -0.2421
   8123SM  H16G10826   4.919   4.278  12.237  0.2101  0.1204 -1.0962
   8123SM  C17F10827   4.849   4.076  12.235 -0.0570 -0.1764  0.3344
   8123SM  H17F10828   4.952   4.041  12.211 -0.8283 -2.8043  0.4876
   8123SM  H17G10829   4.770   4.011  12.191  0.0068 -0.2532  0.3318
   8123SM  C18F10830   4.848   4.069  12.388  0.1226  0.0182 -0.0402
   8123SM  H18F10831   4.769   4.138  12.423 -0.9046 -1.1247 -0.0755
   8123SM  H18G10832   4.947   4.111  12.417 -0.4444  0.2818  1.5919
   8123SM  C19F10833   4.831   3.933  12.451  0.4213  0.7334  0.1405
   8123SM  H19F10834   4.893   3.851  12.409  1.8402  2.1252 -0.6032
   8123SM  H19G10835   4.725   3.899  12.445 -0.0383  2.2341 -0.7973
   8123SM  C20F10836   4.844   3.930  12.607  0.1817 -0.4556  0.0205
   8123SM  H20F10837   4.764   3.999  12.642 -0.8661 -2.2281  1.2932
   8123SM  H20G10838   4.941   3.973  12.641 -1.1534  2.4251  0.4942
   8123SM  C21F10839   4.846   3.786  12.673  0.5052 -0.1509 -0.1549
   8123SM  H21F10840   4.750   3.743  12.637  1.3858 -0.6833 -1.9888
   8123SM  H21G10841   4.858   3.806  12.781  1.9431  0.3456 -0.3837
   8123SM  C22F10842   4.962   3.696  12.635 -0.0617 -0.4066  0.4800
   8123SM  H22F10843   5.051   3.761  12.617 -0.9744  0.7300 -0.0899
   8123SM  H22G10844   4.924   3.661  12.536 -3.5677  0.9025  1.2266
   8123SM  C23F10845   4.987   3.591  12.743  0.2312  0.5138  0.1100
   8123SM  H23F10846   4.901   3.520  12.733 -0.7946  1.4108  2.0307
   8123SM  H23G10847   4.982   3.634  12.845  0.1716 -2.2099  1.3599
   8123SM  H23H10848   5.083   3.538  12.726  0.7805  1.4372  0.2807
   8223SM     N10849   4.882   4.218   9.593  0.0155 -0.4724  0.4500
   8223SM   C1510850   4.954   4.093   9.631  0.0365  0.2330 -0.5158
   8223SM  H15A10851   4.903   4.035   9.707  3.0627 -1.2338  0.5812
   8223SM  H15B10852   5.053   4.125   9.663 -0.4158  1.0158  0.1412
   8223SM  H15C10853   4.983   4.030   9.549  3.3144  0.9147 -0.0574
   8223SM   C1410854   4.932   4.294   9.477  0.3246  0.3401 -0.0701
   8223SM  H14A10855   5.027   4.338   9.504  0.9657 -2.0965  2.0130
   8223SM  H14B10856   4.874   4.380   9.445  1.0165  1.5096  1.6496
   8223SM  H14C10857   4.959   4.220   9.403  0.3338 -0.4413  0.6967
   8223SM   C1310858   4.748   4.169   9.545 -0.3434  0.1083  0.4997
   8223SM  H13A10859   4.700   4.122   9.630  1.6074  1.5568  2.4830
   8223SM  H13B10860   4.755   4.101   9.461  1.4712  0.4764  0.3295
   8223SM  H13C10861   4.680   4.250   9.522  1.2805  1.5602  0.6606
   8223SM   C1210862   4.875   4.318   9.704  0.2518  0.3036 -0.2176
   8223SM  H12A10863   4.824   4.408   9.672  0.8632  0.4341 -0.8576
   8223SM  H12B10864   4.976   4.341   9.733  0.5812 -2.3279  1.0811
   8223SM   C1110865   4.798   4.276   9.837  0.3999  0.0013 -0.3467
   8223SM  H11A10866   4.701   4.230   9.809 -0.2469  1.2633 -0.2437
   8223SM  H11B10867   4.790   4.373   9.890 -0.6533  0.8810 -2.0502
   8223SM     P10868   5.018   4.226   9.968 -0.2884  0.1427  0.0424
   8223SM   O1310869   5.063   4.125  10.068 -0.7106  0.2169  0.0742
   8223SM   O1410870   5.107   4.248   9.858  0.2421 -0.0585 -0.2455
   8223SM   O1110871   5.005   4.366  10.045 -0.0596 -1.2022  0.0937
   8223SM   O1210872   4.879   4.180   9.917  0.5895 -0.2151  0.5302
   8223SM   C1S10873   4.937   4.374  10.171  0.1367 -0.1554 -0.2480
   8223SM   H1S10874   4.852   4.303  10.180  0.3784 -0.6058 -1.3044
   8223SM   H1T10875   4.891   4.474  10.181 -0.0555 -0.4031  1.5756
   8223SM    NF10876   4.958   4.370  10.414  0.1589  0.1956  0.0890
   8223SM   HNF10877   4.990   4.446  10.470  4.9203 -0.2147 -1.6622
   8223SM   C2S10878   5.033   4.368  10.292  0.5171  0.6605 -0.5810
   8223SM   H2S10879   5.089   4.273  10.282  2.1764  1.4883  0.3890
   8223SM   C3S10880   5.147   4.477  10.293  0.0052  0.3600 -0.0977
   8223SM   H3S10881   5.090   4.571  10.302 -2.3969 -1.1280  1.3114
   8223SM    O310882   5.216   4.499  10.167  0.0445  0.3057  0.2790
   8223SM   HO310883   5.153   4.471  10.100  1.6511 -3.1720 -0.0541
   8223SM   C4S10884   5.243   4.468  10.409  0.1548  0.1417 -0.4337
   8223SM   H4S10885   5.201   4.501  10.505  0.3984  0.7247 -0.5244
   8223SM   C5S10886   5.367   4.413  10.407 -0.0064 -0.1000 -0.9112
   8223SM   H5S10887   5.409   4.379  10.311 -1.2033  0.3094 -1.5959
   8223SM   C6S10888   5.461   4.412  10.526  0.2121 -0.0646  0.2253
   8223SM   H6S10889   5.563   4.412  10.481  0.2670 -3.9415  0.0530
   8223SM   H6T10890   5.454   4.323  10.592  1.6293  0.6439  1.3927
   8223SM   C7S10891   5.449   4.532  10.626  0.1277 -0.1039  0.2175
   8223SM   H7S10892   5.343   4.545  10.653 -0.5537 -0.2690 -2.1218
   8223SM   H7T10893   5.490   4.625  10.581  1.1858 -0.4476  0.4319
   8223SM   C8S10894   5.528   4.500  10.761  0.1017  0.8594  0.5704
   8223SM   H8S10895   5.627   4.457  10.736  0.1547  0.6884  1.0652
   8223SM   H8T10896   5.471   4.417  10.809 -1.9148  2.1161  0.4747
   8223SM   C9S10897   5.530   4.613  10.866  0.4730 -1.0953  0.2580
   8223SM   H9S10898   5.425   4.646  10.880  0.7407  0.9303 -1.9024
   8223SM   H9T10899   5.584   4.701  10.825 -0.9785 -0.4817 -0.4309
   8223SM  C10S10900   5.589   4.566  10.999 -0.2378 -0.3052  0.0370
   8223SM  H10S10901   5.699   4.566  10.987 -0.2361  1.5587 -0.2612
   8223SM  H10T10902   5.538   4.469  11.017 -2.7895  0.6583 -1.4571
   8223SM  C11S10903   5.543   4.657  11.109  0.7216 -0.3070 -0.3332
   8223SM  H11S10904   5.432   4.662  11.115  0.6291 -2.2025  0.4606
   8223SM  H11T10905   5.588   4.757  11.093  0.3860 -0.2959 -1.2854
   8223SM  C12S10906   5.618   4.623  11.240 -0.4557 -0.9098  0.7642
   8223SM  H12S10907   5.720   4.667  11.236  0.1812 -2.4368 -1.3372
   8223SM  H12T10908   5.631   4.513  11.246  0.2723 -1.0419 -1.9713
   8223SM  C13S10909   5.547   4.681  11.366 -0.0613 -0.0753  0.3760
   8223SM  H13S10910   5.450   4.631  11.385 -0.3332 -0.2118 -1.2087
   8223SM  H13T10911   5.537   4.791  11.349  1.6187  0.2542  1.2398
   8223SM  C14S10912   5.629   4.663  11.495 -0.0573 -0.1369 -0.5984
   8223SM  H14S10913   5.735   4.685  11.474 -0.2325  0.3538 -0.9839
   8223SM  H14T10914   5.621   4.556  11.523  2.4137 -0.5008 -1.1142
   8223SM  C15S10915   5.597   4.757  11.612 -0.2177  0.1197  0.4302
   8223SM  H15S10916   5.603   4.860  11.569 -0.3730 -0.0266  0.0609
   8223SM  H15T10917   5.673   4.752  11.693 -0.3795 -1.8605  0.4941
   8223SM  C16S10918   5.466   4.738  11.682  0.6476 -0.4828  0.6307
   8223SM  H16S10919   5.476   4.669  11.768  2.3408  0.0575  0.9157
   8223SM  H16T10920   5.397   4.683  11.615  1.1926  2.1703 -2.3447
   8223SM  C17S10921   5.402   4.868  11.724 -0.0182  0.1805  0.1911
   8223SM  H17S10922   5.302   4.844  11.765  1.3274 -2.8047  2.0797
   8223SM  H17T10923   5.390   4.934  11.636 -1.7204  1.2964  1.1920
   8223SM  C18S10924   5.479   4.941  11.840  0.1860 -0.1042  0.2505
   8223SM  H18S10925   5.589   4.949  11.829  0.1224  0.1389 -0.2468
   8223SM  H18T10926   5.458   4.889  11.936  2.3587 -1.8200 -0.1173
   8223SM  H18U10927   5.453   5.049  11.840  1.7203  0.2848  0.3725
   8223SM   C1F10928   4.860   4.279  10.451  0.0246 -0.6290  0.3654
   8223SM    OF10929   4.839   4.182  10.384 -0.2809  0.1424  0.2399
   8223SM   C2F10930   4.769   4.319  10.558  0.1985 -0.2464 -0.0555
   8223SM   H2F10931   4.687   4.381  10.515 -0.0945  0.2993  1.2397
   8223SM   H2G10932   4.806   4.394  10.632 -1.2308  0.8134 -0.3694
   8223SM   C3F10933   4.700   4.195  10.622 -0.1060  0.2631 -0.4883
   8223SM   H3F10934   4.772   4.112  10.640 -1.0446 -0.2705  1.0241
   8223SM   H3G10935   4.613   4.170  10.558  0.7359  0.2292 -1.6442
   8223SM   C4F10936   4.646   4.217  10.772  0.0629  0.2524  0.4834
   8223SM   H4F10937   4.556   4.282  10.788 -0.2604 -0.0168 -0.2215
   8223SM   H4G10938   4.725   4.264  10.834 -0.8850  4.0693 -0.9066
   8223SM   C5F10939   4.618   4.078  10.837  0.9805 -0.5702 -0.7802
   8223SM   H5F10940   4.611   4.103  10.945  2.8340  1.3021 -1.0313
   8223SM   H5G10941   4.708   4.013  10.834  0.4085 -1.5096  0.9177
   8223SM   C6F10942   4.503   4.000  10.769  0.4931 -0.3569 -0.0743
   8223SM   H6F10943   4.527   3.955  10.671  2.2349 -2.0739  1.0468
   8223SM   H6G10944   4.408   4.056  10.758  0.5125 -0.2379  0.3221
   8223SM   C7F10945   4.457   3.877  10.845 -0.1840  0.3638 -0.3217
   8223SM   H7F10946   4.542   3.805  10.842 -1.1741 -0.8033 -2.0578
   8223SM   H7G10947   4.379   3.824  10.786 -1.1510  2.1055 -0.6787
   8223SM   C8F10948   4.404   3.906  10.983  0.6236 -0.1413  0.0439
   8223SM   H8F10949   4.329   3.987  10.969  0.3979 -0.3070  0.2906
   8223SM   H8G10950   4.485   3.949  11.047  0.2917 -0.5826  0.7749
   8223SM   C9F10951   4.324   3.785  11.031  0.2304  0.6667  0.1212
   8223SM   H9F10952   4.394   3.704  11.060  0.7016 -0.2695 -3.1853
   8223SM   H9G10953   4.252   3.754  10.953  0.4159  1.0294 -0.2012
   8223SM  C10F10954   4.243   3.801  11.160  0.2621  0.3331 -0.0222
   8223SM  H10F10955   4.187   3.709  11.189  0.6806 -0.1529 -0.7284
   8223SM  H10G10956   4.155   3.864  11.137 -0.5559  0.6398  3.3558
   8223SM  C11F10957   4.320   3.870  11.272  0.0848  0.0032 -0.3705
   8223SM  H11F10958   4.352   3.973  11.245  0.2308  0.2308  0.6296
   8223SM  H11G10959   4.414   3.815  11.293  1.1300  1.8707  0.1107
   8223SM  C12F10960   4.235   3.882  11.400 -0.8173 -0.5946 -0.6590
   8223SM  H12F10961   4.223   3.777  11.433  0.2332 -0.4563  0.2292
   8223SM  H12G10962   4.133   3.911  11.367 -0.7072  0.0624 -0.4276
   8223SM  C13F10963   4.271   3.976  11.515 -0.0569 -0.6348  0.8922
   8223SM  H13F10964   4.245   4.082  11.492 -0.3710 -0.6064  1.3500
   8223SM  H13G10965   4.381   3.972  11.521 -0.0733 -2.3728  0.5079
   8223SM  C14F10966   4.205   3.939  11.641 -0.2609 -0.2449  0.5825
   8223SM  H14F10967   4.223   3.831  11.662 -2.7962 -0.4788  1.9442
   8223SM  H14G10968   4.097   3.962  11.653 -0.0368 -0.1632  2.8250
   8223SM  C15F10969   4.259   4.026  11.755 -0.3596 -0.2632  0.1890
   8223SM  H15F10970   4.238   4.135  11.750  1.8887  0.2233  0.1891
   8223SM  H15G10971   4.370   4.024  11.749 -0.3934 -0.2080 -0.5681
   8223SM  C16F10972   4.215   3.982  11.896 -0.0229  0.2232  0.5688
   8223SM  H16F10973   4.266   3.885  11.912 -0.7478 -0.2155  0.2790
   8223SM  H16G10974   4.106   3.963  11.909  0.0717 -0.1537  0.8490
   8223SM  C17F10975   4.277   4.070  12.003 -0.2702  0.1698 -0.1162
   8223SM  H17F10976   4.255   4.174  11.970  0.8804 -0.0365 -1.6661
   8223SM  H17G10977   4.387   4.059  12.011 -0.4732 -1.6121  0.7357
   8223SM  C18F10978   4.212   4.048  12.145 -0.0976  0.2530 -0.4257
   8223SM  H18F10979   4.261   3.956  12.185 -1.4357 -0.9566 -1.4524
   8223SM  H18G10980   4.104   4.024  12.135 -0.1674  0.0280  0.7949
   8223SM  C19F10981   4.235   4.158  12.240  0.0333  0.0312 -0.4289
   8223SM  H19F10982   4.201   4.131  12.342  0.6196  1.5174  0.1951
   8223SM  H19G10983   4.174   4.244  12.206 -0.0542 -0.3806 -1.3445
   8223SM  C20F10984   4.384   4.191  12.260 -0.4941 -0.1153  0.1800
   8223SM  H20F10985   4.424   4.237  12.167  0.3163 -0.3748  0.3841
   8223SM  H20G10986   4.431   4.090  12.266 -1.6611 -0.8677 -2.0067
   8223SM  C21F10987   4.420   4.278  12.382 -0.1005  0.7297  0.0353
   8223SM  H21F10988   4.530   4.278  12.400 -0.1137  2.2153  0.1624
   8223SM  H21G10989   4.361   4.241  12.469  1.2535  1.0415  1.1342
   8223SM  C22F10990   4.393   4.430  12.359  0.4184  0.3721  0.6227
   8223SM  H22F10991   4.282   4.434  12.362  0.4629  1.2344  2.3888
   8223SM  H22G10992   4.418   4.457  12.254 -0.1533 -4.3319 -0.9921
   8223SM  C23F10993   4.440   4.522  12.469  0.2352  0.5686 -0.1698
   8223SM  H23F10994   4.549   4.507  12.483  0.7127  2.0864 -1.8120
   8223SM  H23G10995   4.390   4.497  12.565 -0.7560  2.5842 -0.1112
   8223SM  H23H10996   4.426   4.631  12.451  2.4985  1.2624  1.7927
   8323SM     N10997   5.969   4.180  10.279 -0.0496 -0.7767 -0.5928
   8323SM   C1510998   6.079   4.240  10.193  0.1575  0.0830  0.0758
   8323SM  H15A10999   6.116   4.181  10.111  1.3717  0.6508  0.1859
   8323SM  H15B11000   6.165   4.259  10.255 -1.2139 -0.1663  2.1823
   8323SM  H15C11001   6.050   4.336  10.152  2.8340  0.1722 -1.8316
   8323SM   C1411002   5.841   4.178  10.207  0.3536  0.4051  0.3361
   8323SM  H14A11003   5.770   4.139  10.278 -0.2785  0.2866 -0.3461
   8323SM  H14B11004   5.849   4.100  10.132  0.4759  1.0391 -0.3228
   8323SM  H14C11005   5.815   4.267  10.151 -0.3887 -2.3000 -4.1993
   8323SM   C1311006   6.008   4.047  10.324 -0.4479 -0.3619 -0.3712
   8323SM  H13A11007   6.114   4.037  10.340 -0.9382 -1.1982  3.3432
   8323SM  H13B11008   5.984   3.983  10.241  0.8950  0.6027 -1.5329
   8323SM  H13C11009   5.962   4.016  10.417 -0.4998  2.1149  0.5016
   8323SM   C1211010   5.960   4.268  10.406 -0.4790 -0.2332  0.9486
   8323SM  H12A11011   5.949   4.367  10.363  2.4313 -0.7985 -1.4341
   8323SM  H12B11012   6.051   4.266  10.465 -0.1551 -0.7525  0.4393
   8323SM   C1111013   5.851   4.236  10.506  0.5191 -0.0441  0.2822
   8323SM  H11A11014   5.755   4.238  10.449  0.1574 -1.7558  0.7839
   8323SM  H11B11015   5.851   4.307  10.591 -0.3038  0.2281  0.0725
   8323SM     P11016   5.756   4.017  10.606 -0.2184  0.3953  0.1195
   8323SM   O1311017   5.658   4.015  10.491  0.2216 -0.3087  0.4486
   8323SM   O1411018   5.819   3.885  10.637 -0.6488  0.2362  0.0625
   8323SM   O1111019   5.697   4.083  10.731 -0.5959 -0.3894 -0.0764
   8323SM   O1211020   5.870   4.116  10.569 -0.1812 -0.0626 -0.3487
   8323SM   C1S11021   5.781   4.107  10.845 -0.3636  0.0252  0.3049
   8323SM   H1S11022   5.866   4.169  10.809  0.0912 -1.1689 -0.7141
   8323SM   H1T11023   5.820   4.011  10.886 -0.5326 -0.8015 -1.4144
   8323SM    NF11024   5.778   4.180  11.075  0.0315 -0.1310  0.2311
   8323SM   HNF11025   5.792   4.104  11.137  0.8067 -1.2655 -1.2742
   8323SM   C2S11026   5.695   4.165  10.959  0.7388 -0.1393  0.2047
   8323SM   H2S11027   5.649   4.262  10.930 -1.0709 -1.0216 -0.0324
   8323SM   C3S11028   5.575   4.063  10.984  0.4974 -0.2152  0.1012
   8323SM   H3S11029   5.617   3.964  11.013  0.1096 -0.4770 -0.1999
   8323SM    O311030   5.487   4.037  10.872 -0.5396  0.2580 -0.0983
   8323SM   HO311031   5.537   4.070  10.796  0.7848 -0.3215  0.4826
   8323SM   C4S11032   5.501   4.131  11.102 -0.9177  0.9282 -0.0144
   8323SM   H4S11033   5.532   4.089  11.199  1.6675  0.4782 -0.9333
   8323SM   C5S11034   5.416   4.239  11.092 -0.6259 -0.4016 -0.4021
   8323SM   H5S11035   5.395   4.286  10.994 -0.6673 -1.6028 -0.9849
   8323SM   C6S11036   5.348   4.308  11.201  0.4024 -0.5249 -0.0432
   8323SM   H6S11037   5.239   4.303  11.183 -0.0329 -0.9966  2.3250
   8323SM   H6T11038   5.369   4.417  11.201  3.7923 -1.0543 -1.1158
   8323SM   C7S11039   5.388   4.254  11.339 -0.1920 -0.1923 -0.4701
   8323SM   H7S11040   5.498   4.262  11.358 -0.3571 -0.1160  0.4765
   8323SM   H7T11041   5.362   4.146  11.342 -1.4895  0.0669 -1.4614
   8323SM   C8S11042   5.312   4.318  11.457 -0.2996  0.5594  0.5743
   8323SM   H8S11043   5.204   4.309  11.433 -0.1193 -2.5903  0.4925
   8323SM   H8T11044   5.319   4.429  11.448  1.9122  0.2989 -2.5447
   8323SM   C9S11045   5.347   4.243  11.581 -0.0159 -0.6304 -0.0577
   8323SM   H9S11046   5.458   4.235  11.590  0.0295 -1.8040 -1.2397
   8323SM   H9T11047   5.310   4.139  11.572 -1.3140 -0.1343 -0.6601
   8323SM  C10S11048   5.282   4.293  11.708  0.2408  0.2630 -0.4637
   8323SM  H10S11049   5.174   4.300  11.681  0.0977 -1.3873 -0.4155
   8323SM  H10T11050   5.315   4.396  11.736 -1.7257  0.3552  1.9306
   8323SM  C11S11051   5.305   4.193  11.825  0.1801  0.2793 -0.8265
   8323SM  H11S11052   5.414   4.200  11.847  0.3334 -2.7178 -0.2613
   8323SM  H11T11053   5.286   4.091  11.784  2.7555 -1.3197  1.5836
   8323SM  C12S11054   5.230   4.208  11.963  0.7629 -1.0280  0.8435
   8323SM  H12S11055   5.132   4.159  11.944 -0.3477  1.2247  0.4455
   8323SM  H12T11056   5.219   4.316  11.985 -0.1947 -0.7484 -0.8374
   8323SM  C13S11057   5.296   4.131  12.073 -0.1926  0.7769  0.7784
   8323SM  H13S11058   5.404   4.157  12.068  0.1000  0.0609  2.5986
   8323SM  H13T11059   5.287   4.023  12.049 -0.0588  1.0643 -0.6213
   8323SM  C14S11060   5.255   4.166  12.217  0.2888  0.4812 -0.1960
   8323SM  H14S11061   5.150   4.155  12.251  0.2759 -0.8763 -0.6160
   8323SM  H14T11062   5.273   4.273  12.243 -2.9502  0.7093  1.7023
   8323SM  C15S11063   5.333   4.088  12.327 -0.0146 -0.6127  0.6426
   8323SM  H15S11064   5.441   4.110  12.313  0.6489 -3.2469  1.1992
   8323SM  H15T11065   5.309   3.981  12.308  1.1854 -1.1507  1.9763
   8323SM  C16S11066   5.279   4.115  12.470 -0.5158 -0.2652 -0.0956
   8323SM  H16S11067   5.171   4.091  12.484 -0.8055  1.2839  0.5472
   8323SM  H16T11068   5.290   4.223  12.491 -3.9136  0.1525  0.0980
   8323SM  C17S11069   5.360   4.029  12.571 -0.2208 -0.3497 -0.9933
   8323SM  H17S11070   5.468   4.055  12.582 -0.7575  1.7796 -0.4189
   8323SM  H17T11071   5.353   3.921  12.544 -1.1568 -1.4735  3.0061
   8323SM  C18S11072   5.303   4.035  12.716 -0.1649  0.5690  0.3850
   8323SM  H18S11073   5.327   4.133  12.761  1.2928 -0.0557  1.0320
   8323SM  H18T11074   5.352   3.954  12.774 -0.8895 -0.5643 -0.5165
   8323SM  H18U11075   5.195   4.014  12.735  0.0137 -0.0910  0.7159
   8323SM   C1F11076   5.856   4.288  11.090  0.0175 -0.5949  0.1863
   8323SM    OF11077   5.857   4.386  11.013  0.3045 -0.5259  0.2932
   8323SM   C2F11078   5.947   4.291  11.212  0.0302  0.4054 -0.4194
   8323SM   H2F11079   6.049   4.260  11.179  0.9998  1.5637  1.2892
   8323SM   H2G11080   5.908   4.216  11.284 -0.3934  1.2537  0.2705
   8323SM   C3F11081   5.942   4.430  11.288  0.5131 -0.2645 -0.4573
   8323SM   H3F11082   5.838   4.461  11.311  0.3634 -2.3212  2.0892
   8323SM   H3G11083   5.984   4.503  11.215 -0.3121 -1.1456 -1.8489
   8323SM   C4F11084   6.035   4.443  11.407 -0.5078 -0.9586  0.1260
   8323SM   H4F11085   6.046   4.549  11.436  2.3182 -1.6353  1.9041
   8323SM   H4G11086   6.134   4.400  11.381 -0.0131  0.9125 -1.2887
   8323SM   C5F11087   5.982   4.368  11.529  0.2297 -0.2675 -0.0439
   8323SM   H5F11088   6.046   4.382  11.619  0.1900 -1.1772  0.1374
   8323SM   H5G11089   5.976   4.257  11.519  2.8869 -0.4946  0.0135
   8323SM   C6F11090   5.840   4.416  11.572 -1.0705  0.3596 -0.2225
   8323SM   H6F11091   5.762   4.379  11.501 -1.0451 -0.7981  0.3212
   8323SM   H6G11092   5.835   4.526  11.582  1.8217  0.4277  1.9984
   8323SM   C7F11093   5.802   4.371  11.719 -0.5827  0.1281  0.2749
   8323SM   H7F11094   5.894   4.381  11.781 -0.5869  0.4466  0.2299
   8323SM   H7G11095   5.783   4.262  11.716 -1.0095  0.0523  3.0326
   8323SM   C8F11096   5.679   4.437  11.782  0.0536 -0.0423  0.2343
   8323SM   H8F11097   5.585   4.406  11.731 -1.0826  3.4856 -0.0799
   8323SM   H8G11098   5.684   4.545  11.760  2.0938 -0.1551 -0.0836
   8323SM   C9F11099   5.662   4.413  11.929 -0.3853  0.4323 -0.0751
   8323SM   H9F11100   5.752   4.450  11.981 -0.4703 -1.1783  1.3072
   8323SM   H9G11101   5.638   4.306  11.947 -0.9987  0.8124  1.5722
   8323SM  C10F11102   5.549   4.488  11.991 -0.0677 -0.8059  0.1871
   8323SM  H10F11103   5.452   4.458  11.945  0.2514 -0.6878 -0.5811
   8323SM  H10G11104   5.559   4.596  11.965  0.9308 -0.8512  0.3442
   8323SM  C11F11105   5.538   4.477  12.141  0.6486 -0.1993 -0.5319
   8323SM  H11F11106   5.634   4.503  12.191  0.0992 -1.9254  1.5807
   8323SM  H11G11107   5.509   4.372  12.164  0.2651  0.0613  0.1900
   8323SM  C12F11108   5.430   4.572  12.197  0.2159  0.2880  0.2228
   8323SM  H12F11109   5.463   4.677  12.180 -0.5383  0.3191 -1.1956
   8323SM  H12G11110   5.433   4.552  12.306  0.8103 -1.4398 -0.0871
   8323SM  C13F11111   5.289   4.563  12.145  0.6782  0.5812 -0.3097
   8323SM  H13F11112   5.259   4.458  12.164  1.9064  0.7239  3.2123
   8323SM  H13G11113   5.287   4.577  12.035 -0.1427 -0.5924 -0.4569
   8323SM  C14F11114   5.188   4.652  12.210 -0.4316 -0.0861 -0.1739
   8323SM  H14F11115   5.200   4.759  12.184 -1.2325  0.1015  0.2026
   8323SM  H14G11116   5.203   4.641  12.320  2.0673  0.2137 -0.4124
   8323SM  C15F11117   5.035   4.613  12.198  0.2106  0.5207  0.3519
   8323SM  H15F11118   5.037   4.502  12.207  0.0137  0.6835  3.2540
   8323SM  H15G11119   4.995   4.640  12.098  1.5630 -1.1766 -0.7048
   8323SM  C16F11120   4.931   4.665  12.303  0.4974  0.4332  0.2105
   8323SM  H16F11121   4.931   4.776  12.297  0.5387  0.4493  0.5079
   8323SM  H16G11122   4.971   4.644  12.404  0.4373  2.9442  0.8167
   8323SM  C17F11123   4.795   4.603  12.276  0.0475  0.2243 -0.3180
   8323SM  H17F11124   4.747   4.597  12.376 -0.4293  0.9096 -0.4961
   8323SM  H17G11125   4.798   4.504  12.225 -2.7966 -0.0452 -0.1070
   8323SM  C18F11126   4.694   4.692  12.197 -0.5887 -0.6547  0.7369
   8323SM  H18F11127   4.609   4.629  12.165 -0.0696 -0.9285 -0.1460
   8323SM  H18G11128   4.753   4.721  12.108 -0.9014  0.1952  0.8017
   8323SM  C19F11129   4.663   4.822  12.268  0.0708 -0.2562 -0.0227
   8323SM  H19F11130   4.753   4.886  12.277 -1.3680  1.5719  3.1389
   8323SM  H19G11131   4.617   4.800  12.367 -0.5337 -1.2983 -0.5117
   8323SM  C20F11132   4.555   4.900  12.178  0.1620  0.2807  0.4801
   8323SM  H20F11133   4.467   4.834  12.162 -0.6475  1.2439  0.8453
   8323SM  H20G11134   4.603   4.915  12.079  2.3650 -0.7620  1.3342
   8323SM  C21F11135   4.501   5.019  12.245 -0.9106 -0.3353 -0.1546
   8323SM  H21F11136   4.572   5.062  12.319 -0.8210  0.1470 -0.5117
   8323SM  H21G11137   4.404   5.009  12.298 -1.5832  2.0257 -0.7819
   8323SM  C22F11138   4.480   5.127  12.138  0.1637 -0.2480 -0.5488
   8323SM  H22F11139   4.403   5.084  12.071 -0.5989  0.7041 -0.3034
   8323SM  H22G11140   4.574   5.135  12.078  0.5585 -1.7749 -0.1841
   8323SM  C23F11141   4.458   5.274  12.187  0.0648 -0.6442 -0.1771
   8323SM  H23F11142   4.372   5.289  12.256  1.8197  1.3550  1.6752
   8323SM  H23G11143   4.449   5.349  12.106 -1.3556  0.2030  0.7145
   8323SM  H23H11144   4.542   5.309  12.250 -0.5754 -0.2506  0.4822
   8423SM     N11145   5.690   1.805   9.627  0.5330  0.6544 -0.3114
   8423SM   C1511146   5.797   1.706   9.609  0.0289 -0.7503  0.6340
   8423SM  H15A11147   5.809   1.638   9.692  1.5799  0.0764  1.1234
   8423SM  H15B11148   5.890   1.756   9.589  0.2614 -0.6025  2.0298
   8423SM  H15C11149   5.770   1.642   9.526  1.4062 -0.3211 -0.1696
   8423SM   C1411150   5.733   1.897   9.736  0.0779  0.3935  0.5687
   8423SM  H14A11151   5.815   1.960   9.703 -1.5372  2.1099 -0.3642
   8423SM  H14B11152   5.747   1.839   9.826 -1.9993  0.2858  0.8694
   8423SM  H14C11153   5.653   1.964   9.764 -1.9469 -2.1097  1.1579
   8423SM   C1311154   5.665   1.893   9.500 -0.3873  0.0066 -0.0470
   8423SM  H13A11155   5.625   1.831   9.421 -0.0942 -0.1321 -0.0875
   8423SM  H13B11156   5.762   1.932   9.474  1.8093 -3.0185  2.7681
   8423SM  H13C11157   5.587   1.966   9.519 -1.2715 -0.3300 -2.1114
   8423SM   C1211158   5.559   1.740   9.667 -0.1099  0.7618 -0.1085
   8423SM  H12A11159   5.485   1.819   9.660 -0.4414  0.5567  0.9769
   8423SM  H12B11160   5.558   1.718   9.773 -1.0298  4.0040  0.6896
   8423SM   C1111161   5.485   1.635   9.577 -0.0788 -0.3756 -0.8282
   8423SM  H11A11162   5.396   1.593   9.629 -0.9051  0.4666 -1.5236
   8423SM  H11B11163   5.544   1.545   9.551  1.1048  0.1853 -0.1875
   8423SM     P11164   5.297   1.764   9.438 -0.1552 -0.0867 -0.3801
   8423SM   O1311165   5.309   1.887   9.363  0.0066 -0.1168 -0.2138
   8423SM   O1411166   5.208   1.661   9.379  0.4981 -0.3092 -0.5453
   8423SM   O1111167   5.263   1.788   9.590  0.2820 -0.3249 -0.1205
   8423SM   O1211168   5.445   1.698   9.452 -0.0473  0.1017 -0.1833
   8423SM   C1S11169   5.152   1.735   9.662 -0.3909  0.8612 -0.3456
   8423SM   H1S11170   5.171   1.628   9.687 -3.7101  0.3598  0.4939
   8423SM   H1T11171   5.058   1.751   9.605 -0.4050  0.8640 -0.3214
   8423SM    NF11172   5.020   1.751   9.872 -0.2122 -0.3713  0.2105
   8423SM   HNF11173   4.947   1.819   9.876 -0.4298 -0.6422  1.1469
   8423SM   C2S11174   5.130   1.799   9.799 -1.3184 -0.0182 -0.4132
   8423SM   H2S11175   5.222   1.783   9.860 -1.5279  0.6525  0.0872
   8423SM   C3S11176   5.118   1.952   9.779 -0.7746 -0.2799  1.0567
   8423SM   H3S11177   5.033   1.970   9.710  0.8611 -0.4496 -1.1173
   8423SM    O311178   5.233   2.008   9.713  0.2016 -0.1688 -0.3602
   8423SM   HO311179   5.263   1.926   9.673  1.0569 -0.7845  1.4317
   8423SM   C4S11180   5.108   2.027   9.907 -1.0247 -0.2870 -0.0233
   8423SM   H4S11181   5.199   2.029   9.969 -0.0818 -1.9483 -1.2714
   8423SM   C5S11182   5.007   2.109   9.927  0.6265  0.0019  0.1882
   8423SM   H5S11183   4.924   2.115   9.854  0.5317 -0.6367  0.2364
   8423SM   C6S11184   5.005   2.212  10.038  0.3800 -0.1336  0.5696
   8423SM   H6S11185   4.948   2.298   9.996 -0.8046 -2.4786 -3.1301
   8423SM   H6T11186   5.107   2.250  10.063  1.0856 -1.6919  0.1593
   8423SM   C7S11187   4.953   2.157  10.169 -0.5234 -0.0123  0.1913
   8423SM   H7S11188   5.027   2.093  10.222 -0.1223  0.1556 -0.1580
   8423SM   H7T11189   4.865   2.096  10.140 -1.6507  2.5054 -2.1248
   8423SM   C8S11190   4.912   2.256  10.279  0.1180  0.2207 -0.4486
   8423SM   H8S11191   5.007   2.296  10.320 -0.2909  0.2486  0.4851
   8423SM   H8T11192   4.865   2.209  10.368  1.5771 -0.0448  0.2113
   8423SM   C9S11193   4.832   2.384  10.248  0.3380 -0.1683  0.7445
   8423SM   H9S11194   4.728   2.354  10.221  0.8936 -1.4523 -0.0692
   8423SM   H9T11195   4.875   2.426  10.155  1.5671 -0.3058  1.2322
   8423SM  C10S11196   4.841   2.497  10.354 -0.6367 -0.1214  0.6732
   8423SM  H10S11197   4.754   2.561  10.327 -0.3077  0.4085  0.8622
   8423SM  H10T11198   4.938   2.551  10.347 -0.8762  0.3341  0.8207
   8423SM  C11S11199   4.821   2.442  10.493  0.3359  0.2207  0.5139
   8423SM  H11S11200   4.902   2.375  10.529 -2.2941 -3.7703 -0.3709
   8423SM  H11T11201   4.734   2.373  10.482 -0.2869  1.0349  0.2052
   8423SM  C12S11202   4.793   2.547  10.598  0.6527  0.8118 -0.0324
   8423SM  H12S11203   4.709   2.614  10.570  0.4747  0.3698 -0.5774
   8423SM  H12T11204   4.887   2.605  10.616  2.4160 -2.2189  1.3272
   8423SM  C13S11205   4.751   2.492  10.738 -0.1784  0.4026 -0.9876
   8423SM  H13S11206   4.799   2.392  10.752 -0.9351  0.4173  3.1427
   8423SM  H13T11207   4.641   2.475  10.739 -0.3744  1.1581  2.2626
   8423SM  C14S11208   4.794   2.585  10.848  0.5806  0.0413 -0.2636
   8423SM  H14S11209   4.735   2.677  10.826  3.0330  1.4802 -1.2316
   8423SM  H14T11210   4.902   2.605  10.836  0.9588 -1.2752  0.6410
   8423SM  C15S11211   4.754   2.537  10.983 -0.6057 -0.6503  0.1783
   8423SM  H15S11212   4.803   2.441  11.006 -0.8887 -1.0352 -0.7673
   8423SM  H15T11213   4.643   2.527  10.975 -0.6502  0.9426 -3.0768
   8423SM  C16S11214   4.772   2.639  11.104 -0.3302 -0.2493  0.3118
   8423SM  H16S11215   4.718   2.728  11.067  0.2213  0.4223  1.0905
   8423SM  H16T11216   4.881   2.660  11.113 -0.3938 -0.2586  1.1889
   8423SM  C17S11217   4.729   2.601  11.243  0.5861 -0.0475 -0.3156
   8423SM  H17S11218   4.619   2.608  11.257  0.5835 -0.3186 -0.1958
   8423SM  H17T11219   4.784   2.668  11.312  0.0531 -0.8152  0.8869
   8423SM  C18S11220   4.777   2.462  11.283 -0.3158 -0.5827 -0.2467
   8423SM  H18S11221   4.863   2.476  11.353 -0.7046  0.8814 -0.0152
   8423SM  H18T11222   4.816   2.400  11.200 -2.5908 -2.7360  0.1818
   8423SM  H18U11223   4.699   2.408  11.341  0.4361 -1.1603  0.2471
   8423SM   C1F11224   5.009   1.631   9.926 -0.3329 -0.9506 -0.6842
   8423SM    OF11225   5.101   1.547   9.918  0.3943  0.9278  0.4904
   8423SM   C2F11226   4.880   1.602   9.992 -0.4558  0.3128  0.5271
   8423SM   H2F11227   4.855   1.495   9.973  1.7888 -0.1035 -0.2931
   8423SM   H2G11228   4.806   1.664   9.937 -0.4308 -1.6523 -1.9150
   8423SM   C3F11229   4.895   1.633  10.143  0.2487  0.1467 -0.1843
   8423SM   H3F11230   4.978   1.570  10.181 -1.4506 -1.2409  1.4900
   8423SM   H3G11231   4.808   1.580  10.188  2.1311 -1.1938  2.1045
   8423SM   C4F11232   4.908   1.777  10.188  0.2810 -0.1663 -0.0771
   8423SM   H4F11233   4.849   1.836  10.114  1.1161 -1.2561 -1.6779
   8423SM   H4G11234   5.015   1.801  10.171  0.3284 -1.2979 -1.5779
   8423SM   C5F11235   4.860   1.800  10.327  0.1122  0.1924 -0.5009
   8423SM   H5F11236   4.749   1.795  10.330  0.0584 -2.8332  4.6108
   8423SM   H5G11237   4.893   1.901  10.360 -0.0842 -0.5456  2.1521
   8423SM   C6F11238   4.914   1.693  10.421 -0.5123  0.2941  0.4857
   8423SM   H6F11239   5.017   1.662  10.393 -0.8401 -3.5336  2.8245
   8423SM   H6G11240   4.849   1.604  10.404 -1.3058  1.2861 -2.3689
   8423SM   C7F11241   4.924   1.737  10.563  0.9527 -0.3500  0.1517
   8423SM   H7F11242   4.860   1.828  10.573  0.3088 -0.5754 -1.4732
   8423SM   H7G11243   5.027   1.773  10.582  0.6585  1.6171 -1.5389
   8423SM   C8F11244   4.889   1.628  10.666 -0.4210 -0.1278  0.1169
   8423SM   H8F11245   4.970   1.552  10.669 -2.1468 -2.0423  0.6752
   8423SM   H8G11246   4.795   1.569  10.652 -0.0635 -0.4880 -0.8589
   8423SM   C9F11247   4.884   1.696  10.801  0.0553  0.4856 -0.2434
   8423SM   H9F11248   4.791   1.757  10.807 -1.3967 -1.6642  0.0846
   8423SM   H9G11249   4.974   1.761  10.813  0.7321 -0.4372 -0.2569
   8423SM  C10F11250   4.884   1.591  10.916 -0.2203 -0.2553  0.4704
   8423SM  H10F11251   4.977   1.534  10.898 -0.5537 -1.0645  1.2303
   8423SM  H10G11252   4.795   1.524  10.913  0.7782 -1.6455  1.1487
   8423SM  C11F11253   4.880   1.661  11.055  0.4359  0.4133 -0.1927
   8423SM  H11F11254   4.777   1.701  11.066  0.8260  1.4682 -0.2870
   8423SM  H11G11255   4.951   1.747  11.057 -0.4884  1.1880  0.0674
   8423SM  C12F11256   4.911   1.563  11.170  0.2697  0.1278  0.3310
   8423SM  H12F11257   4.983   1.482  11.145 -1.7725 -1.8090  0.5319
   8423SM  H12G11258   4.820   1.510  11.202  0.3989 -0.9455 -0.9862
   8423SM  C13F11259   4.965   1.621  11.296 -0.6029 -0.8443 -0.4513
   8423SM  H13F11260   5.064   1.671  11.287 -0.6198 -0.5223  0.9498
   8423SM  H13G11261   4.988   1.534  11.361  0.5903 -0.0353  0.2455
   8423SM  C14F11262   4.862   1.714  11.374 -0.1967 -0.2385 -0.6379
   8423SM  H14F11263   4.764   1.662  11.383  1.0044 -2.3433  1.3538
   8423SM  H14G11264   4.843   1.811  11.324 -1.9250  1.0323  2.2452
   8423SM  C15F11265   4.913   1.731  11.519  0.5998  0.1000 -0.2963
   8423SM  H15F11266   4.853   1.813  11.565  0.3782 -1.2203  1.9465
   8423SM  H15G11267   5.017   1.769  11.518  0.5238  0.3084 -0.2974
   8423SM  C16F11268   4.906   1.616  11.616  0.5800  0.2801 -0.2131
   8423SM  H16F11269   4.976   1.630  11.701  1.1954 -2.9723 -0.0900
   8423SM  H16G11270   4.952   1.526  11.570  0.7263  1.1948 -1.9646
   8423SM  C17F11271   4.764   1.578  11.666 -0.1704  0.8648  0.5079
   8423SM  H17F11272   4.702   1.541  11.582 -1.7861 -2.2346  2.8699
   8423SM  H17G11273   4.732   1.673  11.715 -2.7465 -0.4764  1.6082
   8423SM  C18F11274   4.774   1.472  11.782 -0.9479 -0.2059 -0.3215
   8423SM  H18F11275   4.686   1.483  11.849  0.6734  0.5471  1.7685
   8423SM  H18G11276   4.853   1.499  11.855 -1.8292 -0.9394  0.9368
   8423SM  C19F11277   4.784   1.325  11.738 -0.6621 -0.0022 -0.2730
   8423SM  H19F11278   4.880   1.287  11.695 -2.3640 -1.0071 -3.5497
   8423SM  H19G11279   4.709   1.307  11.658  0.5668  1.5259 -1.8406
   8423SM  C20F11280   4.752   1.228  11.853 -0.5410 -0.8431 -0.1237
   8423SM  H20F11281   4.664   1.264  11.912  0.9761  0.3521  1.5128
   8423SM  H20G11282   4.839   1.231  11.922  1.1380  1.9550 -2.1548
   8423SM  C21F11283   4.724   1.081  11.824 -0.8102 -0.0514  0.6098
   8423SM  H21F11284   4.812   1.038  11.770 -0.9232  1.4761 -0.8824
   8423SM  H21G11285   4.640   1.073  11.751  0.0855 -0.3741 -0.4288
   8423SM  C22F11286   4.695   1.001  11.959 -0.7012  0.6021 -0.2407
   8423SM  H22F11287   4.612   1.051  12.014 -1.4496  0.7690 -1.4735
   8423SM  H22G11288   4.781   1.013  12.029  0.2813  1.2610 -1.5264
   8423SM  C23F11289   4.667   0.857  11.929 -0.5999  0.5378  0.4469
   8423SM  H23F11290   4.648   0.794  12.020 -0.8395  1.3293  0.9541
   8423SM  H23G11291   4.765   0.821  11.890 -0.9489  0.0104  0.0426
   8423SM  H23H11292   4.589   0.835  11.853 -0.3430 -0.3612  0.4293
   8523SM     N11293   6.020   3.205  10.215 -0.3417  0.0527 -0.0563
   8523SM   C1511294   6.124   3.148  10.119  0.8714  0.3985 -0.6727
   8523SM  H15A11295   6.074   3.129  10.026 -2.0545 -0.2911  0.9336
   8523SM  H15B11296   6.159   3.054  10.159 -0.2362 -0.2185 -1.1315
   8523SM  H15C11297   6.209   3.213  10.101  0.6115  1.2304  0.9106
   8523SM   C1411298   5.960   3.338  10.164 -0.0932  0.4777 -0.0026
   8523SM  H14A11299   5.918   3.331  10.064  0.6276  1.0616 -0.3575
   8523SM  H14B11300   6.032   3.419  10.161 -0.1570  0.6254  1.5963
   8523SM  H14C11301   5.887   3.377  10.232 -0.2732 -0.1971  0.1975
   8523SM   C1311302   5.908   3.107  10.213 -0.1992  0.2965 -0.3360
   8523SM  H13A11303   5.864   3.102  10.115 -0.7641  0.6263 -0.1077
   8523SM  H13B11304   5.827   3.145  10.274 -0.2182  0.3438 -0.3909
   8523SM  H13C11305   5.934   3.006  10.241  0.5645  0.4309 -0.5304
   8523SM   C1211306   6.089   3.228  10.351 -0.7119  0.0869  0.1353
   8523SM  H12A11307   6.141   3.140  10.386  2.1860  1.8423  0.5561
   8523SM  H12B11308   6.006   3.249  10.417 -0.4643 -0.8993  0.7826
   8523SM   C1111309   6.200   3.335  10.367 -0.2964  0.4342  0.0867
   8523SM  H11A11310   6.211   3.368  10.472 -0.4068  0.1805  0.1791
   8523SM  H11B11311   6.178   3.421  10.301  1.1816  0.2130 -0.7399
   8523SM     P11312   6.446   3.221  10.400  0.0581 -0.3196  0.1265
   8523SM   O1311313   6.440   3.079  10.387  0.6720 -0.5004  0.1690
   8523SM   O1411314   6.577   3.280  10.372 -0.6221 -0.1189  0.2762
   8523SM   O1111315   6.416   3.259  10.551 -0.0682 -0.2797 -0.2458
   8523SM   O1211316   6.325   3.289  10.317 -0.3218 -0.3206  0.0625
   8523SM   C1S11317   6.515   3.207  10.642  0.0220  0.1896  0.2310
   8523SM   H1S11318   6.600   3.278  10.648  0.9900 -1.0334  2.2401
   8523SM   H1T11319   6.541   3.100  10.624  1.3059  0.4233  0.5708
   8523SM    NF11320   6.545   3.192  10.898  0.3330 -0.5067 -0.4012
   8523SM   HNF11321   6.546   3.100  10.936 -2.7494  0.5579  2.8843
   8523SM   C2S11322   6.451   3.207  10.786  0.5058  0.4810 -0.0997
   8523SM   H2S11323   6.411   3.311  10.790  0.0510  0.3352 -0.7071
   8523SM   C3S11324   6.325   3.107  10.784 -0.5730 -0.1793 -0.0858
   8523SM   H3S11325   6.367   3.005  10.770 -2.2568 -0.7366 -1.4042
   8523SM    O311326   6.227   3.129  10.684 -0.1598  0.5333  0.1277
   8523SM   HO311327   6.263   3.195  10.623 -1.7565  2.4703  1.1397
   8523SM   C4S11328   6.239   3.100  10.907 -0.4527 -0.0005 -0.2480
   8523SM   H4S11329   6.179   3.190  10.929 -0.3772  0.0442 -0.2238
   8523SM   C5S11330   6.221   2.987  10.983 -0.1122 -0.0304  0.2889
   8523SM   H5S11331   6.267   2.892  10.952  0.2733  0.2427  0.0266
   8523SM   C6S11332   6.133   2.959  11.110  0.5471 -0.1608  0.5222
   8523SM   H6S11333   6.026   2.947  11.081  0.9066  0.8800 -1.3861
   8523SM   H6T11334   6.130   3.053  11.168  1.2868  0.0069  0.2987
   8523SM   C7S11335   6.184   2.834  11.187 -0.6005  0.6338  0.0787
   8523SM   H7S11336   6.285   2.850  11.232 -0.4587 -1.3284  0.5613
   8523SM   H7T11337   6.202   2.744  11.125  1.8600 -0.2760  1.9230
   8523SM   C8S11338   6.097   2.801  11.308  0.0319 -0.2503 -0.0871
   8523SM   H8S11339   6.136   2.705  11.347 -2.5128 -1.4913 -0.4078
   8523SM   H8T11340   5.992   2.782  11.279  0.2682 -1.3068 -0.2834
   8523SM   C9S11341   6.108   2.903  11.423 -0.6093 -0.5397  0.0252
   8523SM   H9S11342   6.058   2.997  11.392  2.1937  0.1080 -3.2370
   8523SM   H9T11343   6.217   2.921  11.438 -0.8057  0.0278  0.8384
   8523SM  C10S11344   6.061   2.854  11.557  0.2884  0.5041 -0.2385
   8523SM  H10S11345   6.132   2.777  11.593 -1.2157 -0.8989 -0.1987
   8523SM  H10T11346   5.958   2.814  11.552 -1.0143  3.2885  1.5096
   8523SM  C11S11347   6.056   2.962  11.655 -0.4135 -0.6388 -0.3847
   8523SM  H11S11348   6.005   3.048  11.608  0.3872  0.3950  0.5854
   8523SM  H11T11349   6.157   2.997  11.685 -1.4057 -0.3619  3.1671
   8523SM  C12S11350   5.988   2.926  11.792  0.2673 -1.5135  0.0591
   8523SM  H12S11351   6.051   2.846  11.836  0.6835 -0.8168  0.7556
   8523SM  H12T11352   5.892   2.871  11.778  0.3533 -1.7246  0.2849
   8523SM  C13S11353   5.970   3.047  11.882 -0.1360  0.5391  0.1900
   8523SM  H13S11354   5.902   3.109  11.820  0.8927 -0.0119 -1.5726
   8523SM  H13T11355   6.069   3.097  11.892  0.3275  0.0534 -1.5710
   8523SM  C14S11356   5.896   3.021  12.010  0.6352  0.2832  0.0094
   8523SM  H14S11357   5.954   2.946  12.068  2.3391  0.7019 -1.0947
   8523SM  H14T11358   5.802   2.976  11.973  0.1620  0.5864  0.7995
   8523SM  C15S11359   5.863   3.146  12.094  0.1002 -0.0690  0.2550
   8523SM  H15S11360   5.812   3.110  12.186  2.0122  1.3982  1.9860
   8523SM  H15T11361   5.801   3.218  12.037  0.1318  1.6356  2.2614
   8523SM  C16S11362   5.992   3.213  12.137 -0.3365  0.3696  0.5951
   8523SM  H16S11363   6.049   3.254  12.051 -1.2602 -0.6385 -0.5458
   8523SM  H16T11364   6.058   3.131  12.173 -2.3955 -2.3818 -1.4406
   8523SM  C17S11365   5.980   3.315  12.238 -0.2926 -0.5740 -0.2091
   8523SM  H17S11366   6.077   3.312  12.291 -0.2371 -2.0529 -0.3648
   8523SM  H17T11367   5.898   3.299  12.311 -0.5235  1.5670  0.0550
   8523SM  C18S11368   5.967   3.449  12.174  0.2722 -0.8232 -0.1274
   8523SM  H18S11369   6.064   3.469  12.122  0.6050 -0.0428  0.7625
   8523SM  H18T11370   5.947   3.531  12.247  0.1919  0.1650 -1.2140
   8523SM  H18U11371   5.881   3.448  12.103 -0.2239  0.6590  0.3987
   8523SM   C1F11372   6.626   3.293  10.940 -0.2537  0.2802  0.1047
   8523SM    OF11373   6.629   3.406  10.886  0.6706 -0.6092 -0.2803
   8523SM   C2F11374   6.715   3.244  11.052  0.7130 -0.1509 -0.4662
   8523SM   H2F11375   6.786   3.175  11.002  2.1137  0.7526  0.2316
   8523SM   H2G11376   6.650   3.195  11.127 -1.4246  2.1991 -0.6303
   8523SM   C3F11377   6.813   3.352  11.112  0.0653  0.1529 -0.1247
   8523SM   H3F11378   6.744   3.419  11.168 -0.0346 -0.7646  0.8662
   8523SM   H3G11379   6.872   3.414  11.040  1.6728 -2.7986 -1.5364
   8523SM   C4F11380   6.917   3.287  11.206 -0.2222  0.1607 -0.0403
   8523SM   H4F11381   7.002   3.244  11.149  0.3373  1.1968 -0.0258
   8523SM   H4G11382   6.867   3.211  11.270 -2.5280  2.5408  1.2118
   8523SM   C5F11383   6.974   3.385  11.302 -0.6300  0.7133  0.1880
   8523SM   H5F11384   6.900   3.423  11.375  1.0927  0.2169  2.3052
   8523SM   H5G11385   7.015   3.470  11.242  1.3168 -0.0809  0.3118
   8523SM   C6F11386   7.097   3.334  11.382  0.7221  0.1465 -0.0360
   8523SM   H6F11387   7.182   3.321  11.312 -0.8610 -1.6129 -1.7199
   8523SM   H6G11388   7.079   3.234  11.426 -2.3505  1.3225  1.7218
   8523SM   C7F11389   7.136   3.433  11.491  0.1939 -0.1768  0.5590
   8523SM   H7F11390   7.057   3.432  11.569 -0.3548  2.4071  0.1356
   8523SM   H7G11391   7.141   3.534  11.446  0.8880 -0.4430  0.0210
   8523SM   C8F11392   7.270   3.418  11.559 -0.1149 -0.1908 -0.1630
   8523SM   H8F11393   7.349   3.428  11.483  0.0166 -0.9198 -0.1318
   8523SM   H8G11394   7.278   3.314  11.597  2.9525  0.5404  1.5184
   8523SM   C9F11395   7.297   3.517  11.668  0.0313  0.0031  0.8299
   8523SM   H9F11396   7.289   3.619  11.625 -1.2590 -0.2641  0.3822
   8523SM   H9G11397   7.405   3.522  11.694 -0.3516  1.8571  2.2593
   8523SM  C10F11398   7.209   3.492  11.789  0.3294  0.0338 -0.0737
   8523SM  H10F11399   7.222   3.382  11.796 -0.2440 -0.5629 -4.9247
   8523SM  H10G11400   7.102   3.512  11.765  1.3204  2.4941 -3.1004
   8523SM  C11F11401   7.260   3.571  11.905  0.0847 -0.3750 -1.1762
   8523SM  H11F11402   7.220   3.672  11.885 -0.2603 -0.1173  0.6144
   8523SM  H11G11403   7.369   3.551  11.910 -0.3549 -2.7862  2.1623
   8523SM  C12F11404   7.224   3.529  12.049 -0.9481  0.7889  0.5750
   8523SM  H12F11405   7.246   3.422  12.066  1.9883  1.6125  2.7349
   8523SM  H12G11406   7.117   3.554  12.070 -1.0299 -0.1561  1.3277
   8523SM  C13F11407   7.312   3.606  12.152 -0.1646 -0.1234 -0.6528
   8523SM  H13F11408   7.316   3.715  12.128 -0.0407 -0.3232 -1.5623
   8523SM  H13G11409   7.416   3.570  12.141  0.0951  0.8111 -1.3632
   8523SM  C14F11410   7.280   3.580  12.303 -0.3987  0.2311  0.3689
   8523SM  H14F11411   7.277   3.472  12.329 -0.2653 -0.1279 -1.0314
   8523SM  H14G11412   7.174   3.615  12.306 -1.1124 -1.5168 -1.8212
   8523SM  C15F11413   7.362   3.662  12.409  0.3179 -0.3476  0.3014
   8523SM  H15F11414   7.353   3.771  12.393  1.6072 -0.0211  1.6469
   8523SM  H15G11415   7.470   3.638  12.401  0.7318  1.4303  0.1389
   8523SM  C16F11416   7.315   3.647  12.550 -0.9048 -0.5563  0.2537
   8523SM  H16F11417   7.379   3.693  12.628 -1.7251  0.2506  0.4758
   8523SM  H16G11418   7.302   3.538  12.565  0.6422 -0.8897 -0.6445
   8523SM  C17F11419   7.171   3.680  12.590  0.3040  0.0637  1.0175
   8523SM  H17F11420   7.160   3.649  12.697 -0.7677 -0.0146  0.8948
   8523SM  H17G11421   7.095   3.635  12.522 -0.3443  3.2422 -0.5452
   8523SM  C18F11422   7.144   3.827  12.596  0.2490  0.0062  0.9020
   8523SM  H18F11423   7.148   3.890  12.505  3.4118  1.8781  2.1634
   8523SM  H18G11424   7.222   3.877  12.658 -0.0102  0.7531  0.6448
   8523SM  C19F11425   7.014   3.860  12.668  0.0169 -1.7875  0.1237
   8523SM  H19F11426   7.004   3.792  12.755  0.4842 -0.3995  1.2961
   8523SM  H19G11427   6.923   3.847  12.606 -0.2653 -0.0279  0.1227
   8523SM  C20F11428   7.009   4.011  12.716  0.1371 -0.2863 -0.2848
   8523SM  H20F11429   7.050   4.078  12.637  0.9017 -1.5450 -0.9930
   8523SM  H20G11430   7.077   4.014  12.804 -0.6658  0.1201  0.3269
   8523SM  C21F11431   6.866   4.063  12.750  0.2174  0.0365  0.0239
   8523SM  H21F11432   6.802   4.061  12.660  1.0715 -1.2814 -0.5986
   8523SM  H21G11433   6.873   4.164  12.795  0.1140 -0.0557  0.2496
   8523SM  C22F11434   6.795   3.979  12.859  0.6220  0.1623 -0.7817
   8523SM  H22F11435   6.865   3.982  12.945 -1.3758  1.7973  0.8641
   8523SM  H22G11436   6.774   3.879  12.815 -3.6012 -0.0629  1.3040
   8523SM  C23F11437   6.661   4.034  12.902  0.0527  0.1227  0.0441
   8523SM  H23F11438   6.701   4.108  12.975  1.9814 -1.5732  0.8104
   8523SM  H23G11439   6.595   3.965  12.957 -0.7406 -0.3429 -1.4469
   8523SM  H23H11440   6.603   4.085  12.822 -1.7520  1.3517  2.0398
   8623SM     N11441   4.831   0.687   9.029  0.6876 -0.0878  0.5286
   8623SM   C1511442   4.875   0.826   9.035 -0.0410  0.1942  0.0880
   8623SM  H15A11443   4.965   0.852   9.090 -1.5017  0.3744  2.5463
   8623SM  H15B11444   4.808   0.880   9.100  0.2470 -1.0619  1.4683
   8623SM  H15C11445   4.871   0.875   8.939  0.4374  1.0067  0.4684
   8623SM   C1411446   4.699   0.701   8.952 -0.2565 -0.3382 -0.6849
   8623SM  H14A11447   4.710   0.757   8.860 -0.5238  0.4010 -0.2772
   8623SM  H14B11448   4.626   0.752   9.013 -0.0313  0.1169 -0.7889
   8623SM  H14C11449   4.661   0.603   8.929  0.3546 -0.4837 -1.1088
   8623SM   C1311450   4.926   0.607   8.942  0.2466  0.2579 -0.2859
   8623SM  H13A11451   5.020   0.607   8.995  0.9397 -0.3419 -1.4872
   8623SM  H13B11452   4.950   0.660   8.851 -1.9876  0.7973 -0.6084
   8623SM  H13C11453   4.897   0.504   8.933  0.2305  0.2531 -0.1830
   8623SM   C1211454   4.809   0.614   9.160  1.0802  0.2589 -0.1193
   8623SM  H12A11455   4.771   0.516   9.138  3.0583 -0.5491 -0.1464
   8623SM  H12B11456   4.740   0.671   9.221 -0.5679 -1.5285 -0.2281
   8623SM   C1111457   4.935   0.600   9.249  0.1965  0.1718  0.0129
   8623SM  H11A11458   5.025   0.574   9.188 -0.4329 -0.6330 -0.5857
   8623SM  H11B11459   4.915   0.517   9.320 -0.1492 -1.2032 -1.6373
   8623SM     P11460   4.873   0.769   9.448  0.1998  0.4935 -0.1064
   8623SM   O1311461   4.954   0.875   9.513 -0.2219  0.1006  0.1596
   8623SM   O1411462   4.733   0.803   9.407 -0.4877 -0.5028  0.0444
   8623SM   O1111463   4.853   0.635   9.539 -0.2101  0.0325 -0.2599
   8623SM   O1211464   4.949   0.723   9.314 -0.1207  0.0510 -0.4142
   8623SM   C1S11465   4.973   0.568   9.586  0.7340  0.3775  0.4217
   8623SM   H1S11466   5.055   0.579   9.512  0.8119 -0.2784  0.4048
   8623SM   H1T11467   4.944   0.461   9.584  2.2291 -0.0360 -0.4676
   8623SM    NF11468   5.141   0.555   9.766  0.4720  0.1956  0.1226
   8623SM   HNF11469   5.142   0.488   9.839 -0.0180 -1.4942 -1.3374
   8623SM   C2S11470   5.011   0.609   9.732  0.7355  0.6452  0.7063
   8623SM   H2S11471   5.019   0.719   9.736  3.6565  0.4558  2.4297
   8623SM   C3S11472   4.895   0.570   9.833  0.1149 -0.5577  0.1738
   8623SM   H3S11473   4.875   0.461   9.824 -1.7589 -0.1389 -1.1920
   8623SM    O311474   4.768   0.624   9.799 -0.0228  0.0572  0.6328
   8623SM   HO311475   4.770   0.646   9.706 -1.2852  1.3262  0.8656
   8623SM   C4S11476   4.926   0.608   9.975  0.1809 -0.3268 -0.0983
   8623SM   H4S11477   4.964   0.709   9.995  0.0031 -0.1765 -0.5101
   8623SM   C5S11478   4.915   0.513  10.073 -0.3327 -0.4561  0.8147
   8623SM   H5S11479   4.857   0.426  10.041 -0.2562 -0.5840  1.0211
   8623SM   C6S11480   4.935   0.540  10.216 -0.0637 -0.1941 -0.2885
   8623SM   H6S11481   4.979   0.449  10.264 -1.7012 -0.4254  0.8708
   8623SM   H6T11482   4.840   0.561  10.270  0.3190 -0.0097  0.3334
   8623SM   C7S11483   5.011   0.668  10.250 -0.0029 -0.1265  0.6330
   8623SM   H7S11484   4.945   0.753  10.221  1.1450  0.3465 -0.7174
   8623SM   H7T11485   5.098   0.669  10.180  0.1100  2.0314  0.7317
   8623SM   C8S11486   5.060   0.678  10.397  0.6771  0.0284  0.0158
   8623SM   H8S11487   5.081   0.786  10.414  3.2675 -0.2248 -1.0974
   8623SM   H8T11488   5.154   0.618  10.396  0.7876  0.1982 -1.4299
   8623SM   C9S11489   4.964   0.622  10.504  0.2276  1.3101  0.6009
   8623SM   H9S11490   4.943   0.513  10.495 -1.7162  1.7809 -1.6940
   8623SM   H9T11491   4.867   0.672  10.484 -0.6822 -0.4042  0.5446
   8623SM  C10S11492   5.017   0.660  10.636 -0.8782  0.5015 -0.0186
   8623SM  H10S11493   5.028   0.770  10.633 -1.0799  0.5619  0.8979
   8623SM  H10T11494   5.117   0.617  10.659 -1.5991 -1.7135 -0.7533
   8623SM  C11S11495   4.924   0.630  10.759  0.0943  0.4014  0.7647
   8623SM  H11S11496   4.913   0.521  10.777 -1.7585  0.6845  1.5991
   8623SM  H11T11497   4.825   0.676  10.736  0.8846  0.2400 -3.8968
   8623SM  C12S11498   4.985   0.675  10.886 -0.1543 -0.1073 -0.6250
   8623SM  H12S11499   4.988   0.785  10.899 -3.7236 -0.0115  0.4661
   8623SM  H12T11500   5.090   0.639  10.897  0.3678  1.1867 -1.1443
   8623SM  C13S11501   4.902   0.620  11.009 -0.0252  0.2084  0.6812
   8623SM  H13S11502   4.885   0.510  11.001 -0.1982  0.0497  2.6474
   8623SM  H13T11503   4.806   0.676  11.006 -0.4818 -0.5925 -0.8540
   8623SM  C14S11504   4.954   0.656  11.146 -0.2613  0.1705  0.3773
   8623SM  H14S11505   4.983   0.763  11.144  3.7060 -0.7418 -1.9378
   8623SM  H14T11506   5.053   0.610  11.166 -0.8876 -1.2629  0.2454
   8623SM  C15S11507   4.852   0.631  11.255 -0.3940  0.5659  0.2838
   8623SM  H15S11508   4.849   0.521  11.266  3.6211  0.5202  3.2235
   8623SM  H15T11509   4.759   0.678  11.215 -0.8869  0.4005  1.2128
   8623SM  C16S11510   4.906   0.694  11.385 -0.1759 -0.0367 -0.3410
   8623SM  H16S11511   4.916   0.803  11.366  0.7864 -0.3524 -1.8071
   8623SM  H16T11512   5.009   0.656  11.405 -0.3762  0.0557  0.9366
   8623SM  C17S11513   4.805   0.664  11.494 -0.1215  0.1418 -0.0035
   8623SM  H17S11514   4.785   0.556  11.476  0.0812  0.2869 -1.2108
   8623SM  H17T11515   4.711   0.716  11.465 -0.5453 -0.2205  0.7053
   8623SM  C18S11516   4.857   0.692  11.633  0.0697  0.3551  0.3716
   8623SM  H18S11517   4.924   0.780  11.638  0.7726 -0.2195  1.8359
   8623SM  H18T11518   4.906   0.601  11.675  0.3965  0.4133  0.1164
   8623SM  H18U11519   4.771   0.711  11.701 -0.5459 -0.1718 -0.2359
   8623SM   C1F11520   5.256   0.596   9.716 -0.4067  0.2277 -0.6732
   8623SM    OF11521   5.268   0.689   9.638 -0.3610 -0.3760 -0.4388
   8623SM   C2F11522   5.377   0.513   9.755 -0.1703 -0.3992 -0.1212
   8623SM   H2F11523   5.430   0.491   9.660 -0.2477  0.1046 -0.2837
   8623SM   H2G11524   5.345   0.418   9.804  0.3587 -1.2325 -1.3555
   8623SM   C3F11525   5.481   0.587   9.854  0.1420 -0.0191  0.2549
   8623SM   H3F11526   5.487   0.692   9.819 -0.3486  0.1369  0.6349
   8623SM   H3G11527   5.584   0.546   9.846  0.3335  0.3882  0.6018
   8623SM   C4F11528   5.444   0.582  10.006  0.7016  0.0105  0.2167
   8623SM   H4F11529   5.528   0.532  10.059 -0.5256  0.1711  2.4188
   8623SM   H4G11530   5.352   0.520  10.007  0.8189 -0.2428 -1.3189
   8623SM   C5F11531   5.410   0.727  10.065 -0.2499 -0.0717  0.6372
   8623SM   H5F11532   5.312   0.759  10.023  0.7118  0.9692 -0.8872
   8623SM   H5G11533   5.485   0.793  10.017 -1.2787 -0.0275 -0.9903
   8623SM   C6F11534   5.431   0.730  10.216  0.2716  0.3303 -0.3326
   8623SM   H6F11535   5.541   0.731  10.232  0.4959 -0.9207 -1.6064
   8623SM   H6G11536   5.397   0.630  10.252 -2.3567  1.7693  1.6212
   8623SM   C7F11537   5.362   0.854  10.274 -0.2114  0.1021  0.1892
   8623SM   H7F11538   5.263   0.809  10.297  0.6669 -3.0715 -1.6210
   8623SM   H7G11539   5.356   0.926  10.190  0.2511 -0.0824 -0.0034
   8623SM   C8F11540   5.415   0.908  10.404 -0.0284 -0.1955 -0.0279
   8623SM   H8F11541   5.379   1.012  10.416  2.9076  0.7359  2.1553
   8623SM   H8G11542   5.525   0.922  10.390 -0.0714  0.2640  0.0888
   8623SM   C9F11543   5.381   0.824  10.527  0.0346 -0.0906  0.1867
   8623SM   H9F11544   5.431   0.725  10.518 -1.2131 -0.7189 -0.0580
   8623SM   H9G11545   5.271   0.812  10.522 -0.1039  1.5587 -1.9084
   8623SM  C10F11546   5.422   0.898  10.663 -0.0101  0.4760  0.0947
   8623SM  H10F11547   5.385   1.003  10.667 -1.7162  0.0789 -2.3965
   8623SM  H10G11548   5.532   0.892  10.669 -0.0468 -1.0119 -0.2577
   8623SM  C11F11549   5.357   0.829  10.783 -0.2187  0.2199 -0.1485
   8623SM  H11F11550   5.405   0.729  10.795 -2.6048 -0.8193  1.4572
   8623SM  H11G11551   5.248   0.811  10.772 -0.0666 -0.4494 -0.5684
   8623SM  C12F11552   5.397   0.903  10.912 -0.4187  0.7781  0.5978
   8623SM  H12F11553   5.404   1.011  10.885 -3.0213  0.7473 -0.4777
   8623SM  H12G11554   5.498   0.877  10.950 -0.3190 -0.8999 -0.7112
   8623SM  C13F11555   5.290   0.891  11.027 -0.1383  0.5397 -0.2299
   8623SM  H13F11556   5.256   0.786  11.030  1.7512 -0.1719 -1.6524
   8623SM  H13G11557   5.200   0.945  10.989 -0.6894  0.3599  0.7919
   8623SM  C14F11558   5.322   0.965  11.159  0.4971  0.5162  0.3298
   8623SM  H14F11559   5.290   1.070  11.140  2.2277  0.9203 -0.5769
   8623SM  H14G11560   5.430   0.965  11.185  1.0659 -0.7089 -1.7982
   8623SM  C15F11561   5.244   0.908  11.272  0.1868  0.6235 -0.0842
   8623SM  H15F11562   5.271   0.800  11.268  0.4045  0.6712  0.0682
   8623SM  H15G11563   5.134   0.909  11.255 -0.1055 -2.1698  1.0234
   8623SM  C16F11564   5.266   0.974  11.407 -1.0590  0.0283  0.2648
   8623SM  H16F11565   5.238   1.081  11.408  1.1432  0.6604 -0.3550
   8623SM  H16G11566   5.377   0.975  11.419 -1.1924 -0.8818  1.8251
   8623SM  C17F11567   5.189   0.906  11.523  0.2695  0.1182 -0.1037
   8623SM  H17F11568   5.177   0.798  11.503  0.3256  0.1045 -0.0646
   8623SM  H17G11569   5.086   0.945  11.533 -1.0472 -2.9895 -0.4426
   8623SM  C18F11570   5.254   0.925  11.654  0.3974 -0.0627  0.0935
   8623SM  H18F11571   5.267   1.033  11.674  1.1548 -0.3829  1.5651
   8623SM  H18G11572   5.355   0.878  11.658  1.3786  1.9745  0.9319
   8623SM  C19F11573   5.171   0.861  11.768 -0.3325 -0.0401 -0.1995
   8623SM  H19F11574   5.151   0.753  11.749 -0.2995 -0.2397  0.8255
   8623SM  H19G11575   5.070   0.906  11.759  0.2126  0.9937 -1.3572
   8623SM  C20F11576   5.230   0.886  11.911  0.3930 -0.1509 -0.4074
   8623SM  H20F11577   5.326   0.832  11.923 -0.9016 -2.6284 -0.6309
   8623SM  H20G11578   5.168   0.838  11.990  2.0555  1.3766  1.9697
   8623SM  C21F11579   5.248   1.035  11.944 -0.1445  0.0962  0.3242
   8623SM  H21F11580   5.302   1.089  11.864 -0.8752  0.0780 -0.1901
   8623SM  H21G11581   5.309   1.044  12.036 -0.7705  2.3011  0.5602
   8623SM  C22F11582   5.120   1.111  11.981  0.7742 -0.0047 -0.3882
   8623SM  H22F11583   5.048   1.106  11.897  1.1209  1.6801 -0.8349
   8623SM  H22G11584   5.152   1.218  11.990  2.0918 -0.4413  0.5081
   8623SM  C23F11585   5.051   1.065  12.109  0.1445 -0.2251  0.3359
   8623SM  H23F11586   5.013   0.961  12.103  0.5785 -0.4238  0.9410
   8623SM  H23G11587   4.967   1.136  12.128  0.3952  0.7725 -1.8584
   8623SM  H23H11588   5.128   1.063  12.188 -0.3746  0.5517  0.8755
   8723SM     N11589   6.410   1.431   9.860  0.3383  0.0073 -0.3589
   8723SM   C1511590   6.409   1.420  10.010  0.4672  0.0442 -0.4545
   8723SM  H15A11591   6.351   1.503  10.045 -0.0650  0.1707 -1.5672
   8723SM  H15B11592   6.507   1.417  10.056  0.5782  1.9702 -0.4790
   8723SM  H15C11593   6.353   1.334  10.045  0.1017  0.0437 -1.0163
   8723SM   C1411594   6.497   1.549   9.827 -0.1346 -0.3879  1.1619
   8723SM  H14A11595   6.455   1.593   9.738 -2.0065 -0.1365  2.1241
   8723SM  H14B11596   6.602   1.526   9.821  0.2402  1.4970 -0.8897
   8723SM  H14C11597   6.486   1.626   9.902 -0.1356  0.4804  0.2906
   8723SM   C1311598   6.471   1.307   9.805  0.0566  0.0094 -0.7061
   8723SM  H13A11599   6.496   1.317   9.700  2.5821  1.2919 -0.0418
   8723SM  H13B11600   6.395   1.230   9.804  0.6534 -0.5908 -1.1558
   8723SM  H13C11601   6.557   1.279   9.863 -0.6000  0.6509  0.6023
   8723SM   C1211602   6.269   1.445   9.809 -0.5749 -0.3957 -0.1208
   8723SM  H12A11603   6.227   1.346   9.814  2.1793 -1.6197  0.9069
   8723SM  H12B11604   6.284   1.486   9.710  2.2699 -0.3945  0.2365
   8723SM   C1111605   6.156   1.525   9.874 -0.7428 -0.1425  0.5488
   8723SM  H11A11606   6.194   1.629   9.864 -0.3615 -0.4056 -1.0707
   8723SM  H11B11607   6.147   1.505   9.983  0.8865 -3.4334  0.2129
   8723SM     P11608   5.933   1.398   9.830  0.4592  0.1624  0.2977
   8723SM   O1311609   5.816   1.387   9.736  0.0075 -0.4004  0.5558
   8723SM   O1411610   6.011   1.274   9.864  0.0470  0.1873 -0.4376
   8723SM   O1111611   5.880   1.445   9.965  0.0225 -0.4113 -0.2466
   8723SM   O1211612   6.033   1.517   9.807  0.0723 -0.2880  0.2449
   8723SM   C1S11613   5.842   1.585   9.989  0.3903 -0.2226  0.9291
   8723SM   H1S11614   5.775   1.619   9.907  1.0666  1.9251  1.2207
   8723SM   H1T11615   5.931   1.651   9.996  1.8973 -2.1623  0.7858
   8723SM    NF11616   5.729   1.750  10.124 -0.8537 -0.3134 -0.3186
   8723SM   HNF11617   5.786   1.810  10.180  2.8695 -2.0773 -1.9204
   8723SM   C2S11618   5.771   1.608  10.124 -0.6122  0.0143 -0.6885
   8723SM   H2S11619   5.683   1.542  10.136 -0.2127 -0.3770  0.1987
   8723SM   C3S11620   5.868   1.572  10.243  0.2758  0.2293  0.0106
   8723SM   H3S11621   5.967   1.617  10.222  0.5964  0.2673  1.5371
   8723SM    O311622   5.913   1.439  10.253 -0.0339  0.1769  0.2360
   8723SM   HO311623   5.912   1.414  10.160  1.9726  1.1418 -0.0839
   8723SM   C4S11624   5.824   1.626  10.380 -1.3376  0.1291 -0.1308
   8723SM   H4S11625   5.871   1.723  10.403 -2.7395  0.3060  2.2767
   8723SM   C5S11626   5.747   1.567  10.471  0.5561 -0.2508  0.4940
   8723SM   H5S11627   5.709   1.472  10.431  0.2491  0.3703 -0.7292
   8723SM   C6S11628   5.700   1.615  10.608 -0.3028 -0.0946  0.8553
   8723SM   H6S11629   5.620   1.552  10.654  0.1501  0.9387  3.2333
   8723SM   H6T11630   5.647   1.712  10.605 -0.1084 -0.0106 -0.8810
   8723SM   C7S11631   5.806   1.633  10.723 -0.1349  0.2052  0.1909
   8723SM   H7S11632   5.876   1.716  10.699  0.2879 -0.2455 -0.1674
   8723SM   H7T11633   5.867   1.540  10.721  2.9044  2.0581 -1.2754
   8723SM   C8S11634   5.743   1.655  10.859 -0.2046  0.0694  0.3088
   8723SM   H8S11635   5.688   1.560  10.876  0.9795 -0.8865 -0.8901
   8723SM   H8T11636   5.670   1.736  10.840 -0.0295  0.1841  0.1177
   8723SM   C9S11637   5.840   1.676  10.974  0.2838  0.2997  1.0681
   8723SM   H9S11638   5.906   1.759  10.942 -0.6955 -0.2336 -3.0082
   8723SM   H9T11639   5.911   1.592  10.990 -0.4653 -0.0743  2.6312
   8723SM  C10S11640   5.750   1.695  11.101 -0.0687  0.5509 -0.3318
   8723SM  H10S11641   5.683   1.607  11.106 -0.7699  1.1390  0.8377
   8723SM  H10T11642   5.686   1.785  11.092  0.2760  1.4910  4.2937
   8723SM  C11S11643   5.827   1.695  11.232 -0.5178  0.3940 -0.9701
   8723SM  H11S11644   5.893   1.784  11.240  1.7695 -0.9189 -3.5714
   8723SM  H11T11645   5.897   1.608  11.230 -2.3237 -1.1286 -0.6582
   8723SM  C12S11646   5.736   1.698  11.351  0.0893  0.6104 -0.4367
   8723SM  H12S11647   5.642   1.640  11.334  0.6271  0.2846 -2.5314
   8723SM  H12T11648   5.706   1.804  11.368 -0.3551  0.7061 -1.6961
   8723SM  C13S11649   5.810   1.641  11.473  0.0549 -0.3491 -0.2896
   8723SM  H13S11650   5.902   1.700  11.491 -0.3525  0.3340 -0.3892
   8723SM  H13T11651   5.840   1.537  11.450  1.3197 -0.3263  1.1061
   8723SM  C14S11652   5.716   1.652  11.596 -0.0380 -0.6086  0.0284
   8723SM  H14S11653   5.627   1.587  11.589  0.1916 -0.8950 -0.3235
   8723SM  H14T11654   5.669   1.752  11.603  0.7348 -0.2216 -0.0936
   8723SM  C15S11655   5.783   1.628  11.732  0.3921 -0.2302  0.5149
   8723SM  H15S11656   5.885   1.672  11.733  1.4088 -2.4203  1.3701
   8723SM  H15T11657   5.811   1.520  11.724 -0.1249 -0.2843 -1.0116
   8723SM  C16S11658   5.703   1.669  11.849  0.8811 -0.0317  0.3837
   8723SM  H16S11659   5.622   1.595  11.868  1.0274  0.1630  1.9263
   8723SM  H16T11660   5.661   1.771  11.841  0.4566 -0.0843  1.6462
   8723SM  C17S11661   5.782   1.667  11.981 -1.2998  0.1735 -0.2797
   8723SM  H17S11662   5.855   1.750  11.975 -1.6624  0.6576  1.4226
   8723SM  H17T11663   5.840   1.573  11.998  1.8777  2.0457 -0.0259
   8723SM  C18S11664   5.695   1.688  12.104  0.2364 -0.5845 -0.1780
   8723SM  H18S11665   5.624   1.773  12.104 -0.6603 -1.1980  3.1444
   8723SM  H18T11666   5.749   1.694  12.201 -1.8359 -2.8967  1.2273
   8723SM  H18U11667   5.632   1.597  12.112 -1.5558  0.5670 -0.8056
   8723SM   C1F11668   5.625   1.794  10.052  0.6131  0.3073 -0.0697
   8723SM    OF11669   5.550   1.715   9.989 -0.5783 -0.5109  0.5933
   8723SM   C2F11670   5.594   1.942  10.045 -1.0948  0.3449 -0.1200
   8723SM   H2F11671   5.621   1.973   9.942  1.0127  0.4566  0.4167
   8723SM   H2G11672   5.667   1.989  10.115 -1.3292 -0.7095  0.8743
   8723SM   C3F11673   5.456   1.981  10.082  0.9317  0.2736  0.3570
   8723SM   H3F11674   5.389   1.936  10.005  0.2388 -1.9498  2.1519
   8723SM   H3G11675   5.451   2.092  10.085 -1.2069  0.1878  2.1091
   8723SM   C4F11676   5.402   1.947  10.219 -1.3390 -0.7912  0.1400
   8723SM   H4F11677   5.481   1.983  10.289  0.5915 -2.0078 -1.2870
   8723SM   H4G11678   5.410   1.836  10.224  1.0128 -0.7765 -1.3349
   8723SM   C5F11679   5.271   2.004  10.267  0.5377 -0.1803  0.1775
   8723SM   H5F11680   5.187   1.939  10.234 -1.6830  2.2254  0.7644
   8723SM   H5G11681   5.254   2.111  10.241 -1.9805 -0.8739 -1.4387
   8723SM   C6F11682   5.267   1.998  10.416 -0.6745  0.7816 -0.2814
   8723SM   H6F11683   5.351   2.059  10.455  0.5183 -2.0239  1.9365
   8723SM   H6G11684   5.290   1.894  10.447  1.6357  1.0669 -0.9018
   8723SM   C7F11685   5.146   2.058  10.487 -0.3034 -0.2502  0.5900
   8723SM   H7F11686   5.059   2.000  10.451  0.3041  0.0005 -1.4143
   8723SM   H7G11687   5.129   2.163  10.457 -2.2913 -0.5266  0.6613
   8723SM   C8F11688   5.156   2.050  10.641  0.0807 -0.5466 -0.4119
   8723SM   H8F11689   5.243   2.099  10.689 -1.2873 -0.4917  2.1291
   8723SM   H8G11690   5.163   1.945  10.676  0.5172 -0.0441  1.0929
   8723SM   C9F11691   5.035   2.119  10.706  0.0563 -0.4969 -0.4684
   8723SM   H9F11692   4.944   2.094  10.646  0.8395 -0.6953 -1.6221
   8723SM   H9G11693   5.045   2.229  10.698  1.7098 -0.7179 -2.6770
   8723SM  C10F11694   5.022   2.064  10.848  0.3482  0.1915 -0.1808
   8723SM  H10F11695   5.121   2.068  10.898  0.2399 -0.7187  0.1296
   8723SM  H10G11696   4.993   1.957  10.838  2.6206 -0.5524  0.6340
   8723SM  C11F11697   4.918   2.135  10.932  0.0562 -0.3277  0.4640
   8723SM  H11F11698   4.820   2.162  10.888  0.0166 -1.3110 -0.0710
   8723SM  H11G11699   4.954   2.236  10.962 -2.1092  0.1431  1.6983
   8723SM  C12F11700   4.889   2.051  11.056 -0.0103 -0.5119 -0.4494
   8723SM  H12F11701   4.864   1.948  11.021 -1.3897 -0.7640  1.1715
   8723SM  H12G11702   4.803   2.085  11.117  0.6154 -0.5604  0.4734
   8723SM  C13F11703   5.004   2.040  11.161  0.0314  0.2719 -0.1899
   8723SM  H13F11704   5.086   1.977  11.120  1.2207 -0.9883  3.7021
   8723SM  H13G11705   4.961   1.984  11.246 -0.9867 -0.4300 -1.1327
   8723SM  C14F11706   5.049   2.178  11.219  0.6111  0.2036  0.7093
   8723SM  H14F11707   4.965   2.247  11.241  0.7770  0.3205  0.9710
   8723SM  H14G11708   5.108   2.238  11.146  1.4717 -1.2558  0.1469
   8723SM  C15F11709   5.118   2.167  11.355 -0.1887 -0.6869  0.2280
   8723SM  H15F11710   5.217   2.117  11.341  0.8416  1.2924  0.1524
   8723SM  H15G11711   5.061   2.112  11.432  1.2875  0.1045  1.9608
   8723SM  C16F11712   5.154   2.303  11.408 -0.7828  0.0912 -0.1375
   8723SM  H16F11713   5.061   2.361  11.425 -0.5480 -0.1095  2.0575
   8723SM  H16G11714   5.207   2.365  11.333  0.8709 -1.6874 -0.5279
   8723SM  C17F11715   5.250   2.295  11.531  0.0193  0.2310  0.4507
   8723SM  H17F11716   5.325   2.213  11.521  0.6853  1.0474 -1.7953
   8723SM  H17G11717   5.191   2.267  11.621 -0.8242  2.8073  0.7679
   8723SM  C18F11718   5.312   2.427  11.560  0.0606 -0.4756  0.3367
   8723SM  H18F11719   5.231   2.502  11.573  0.7709  0.2750  0.5130
   8723SM  H18G11720   5.366   2.459  11.468 -1.8669  0.3178 -0.5739
   8723SM  C19F11721   5.394   2.434  11.685 -0.5656 -0.2949 -0.6207
   8723SM  H19F11722   5.470   2.352  11.689 -0.1222  0.1314  3.0318
   8723SM  H19G11723   5.326   2.448  11.771  1.8773  2.0138  1.0718
   8723SM  C20F11724   5.490   2.563  11.693 -0.6504 -0.7634 -0.4149
   8723SM  H20F11725   5.437   2.660  11.681 -0.3811 -0.3441  1.5492
   8723SM  H20G11726   5.556   2.549  11.605  0.9536 -0.2731  0.6732
   8723SM  C21F11727   5.562   2.561  11.827  0.5511 -0.5487  0.2935
   8723SM  H21F11728   5.625   2.652  11.843 -2.1215  1.4021  0.4184
   8723SM  H21G11729   5.622   2.468  11.840  0.7965 -0.4208  0.0704
   8723SM  C22F11730   5.462   2.562  11.951  0.0656  0.5123 -0.0869
   8723SM  H22F11731   5.421   2.459  11.956  0.3816  0.4178  1.0375
   8723SM  H22G11732   5.381   2.628  11.915  0.2760  2.3855  2.5159
   8723SM  C23F11733   5.505   2.619  12.088  0.5950  0.1418  0.0186
   8723SM  H23F11734   5.561   2.714  12.076 -0.3932  1.2818  3.3856
   8723SM  H23G11735   5.556   2.535  12.140 -3.0048 -0.4749  3.0253
   8723SM  H23H11736   5.414   2.644  12.148  1.7111  2.9693  0.6590
   8823SM     N11737   2.727   2.514   9.617  0.2529 -0.6892 -0.3159
   8823SM   C1511738   2.850   2.475   9.556  0.5371 -0.5867  0.2406
   8823SM  H15A11739   2.835   2.481   9.449 -0.9890  1.6192  0.5028
   8823SM  H15B11740   2.887   2.379   9.587  1.6589  0.0410  0.9200
   8823SM  H15C11741   2.936   2.542   9.562  0.7411 -0.8656  0.4371
   8823SM   C1411742   2.695   2.659   9.582 -0.3235 -0.6982 -0.6595
   8823SM  H14A11743   2.658   2.658   9.481 -0.9802 -0.3518 -0.4274
   8823SM  H14B11744   2.778   2.727   9.583 -1.7028  1.0507 -0.9230
   8823SM  H14C11745   2.616   2.693   9.648  1.1617  0.2224  0.7287
   8823SM   C1311746   2.612   2.440   9.569  0.5727  0.2260  0.5909
   8823SM  H13A11747   2.604   2.448   9.462 -1.7868  1.1234  0.7704
   8823SM  H13B11748   2.524   2.478   9.620 -0.0767  1.4887 -1.3711
   8823SM  H13C11749   2.615   2.336   9.596  3.5142 -0.7251 -2.6944
   8823SM   C1211750   2.745   2.504   9.767  0.5664 -0.3495  0.5298
   8823SM  H12A11751   2.669   2.559   9.820  0.5081  0.3231 -0.2420
   8823SM  H12B11752   2.835   2.562   9.781  0.8217 -0.5899 -0.0727
   8823SM   C1111753   2.757   2.357   9.831 -0.0598  0.8067  0.0730
   8823SM  H11A11754   2.668   2.294   9.814  0.5023  0.4955 -1.9210
   8823SM  H11B11755   2.755   2.377   9.940  1.1230  2.3340 -0.1491
   8823SM     P11756   3.012   2.312   9.860  0.2143 -0.1600 -0.2993
   8823SM   O1311757   3.105   2.209   9.828  0.1641  0.9440 -0.3168
   8823SM   O1411758   3.057   2.449   9.856 -1.1366 -0.2089  0.6413
   8823SM   O1111759   2.976   2.307  10.015 -0.4249 -0.0297 -0.0980
   8823SM   O1211760   2.870   2.292   9.792  0.1049  0.6863  0.1461
   8823SM   C1S11761   2.930   2.185  10.081  0.0118 -0.2090  0.2550
   8823SM   H1S11762   2.924   2.098  10.012  0.4722  1.0957 -1.4822
   8823SM   H1T11763   2.821   2.186  10.106  0.1170  0.4571  0.7019
   8823SM    NF11764   3.009   2.016  10.246  0.3580  0.3280  0.1158
   8823SM   HNF11765   2.947   1.997  10.322  1.0326  0.2002  0.6475
   8823SM   C2S11766   3.017   2.154  10.200 -0.1898 -0.4130 -0.4313
   8823SM   H2S11767   3.119   2.167  10.158  0.1898 -0.2190  0.5231
   8823SM   C3S11768   3.000   2.265  10.299  0.2963 -0.5165 -0.1917
   8823SM   H3S11769   2.904   2.240  10.349  0.1075 -1.0374 -0.7936
   8823SM    O311770   2.965   2.398  10.258  0.6086 -0.3972 -0.1609
   8823SM   HO311771   2.990   2.381  10.167  1.4859 -0.9069  0.1594
   8823SM   C4S11772   3.109   2.252  10.407  0.2142 -0.5431  0.1297
   8823SM   H4S11773   3.069   2.206  10.499 -0.1555  0.7821  0.6630
   8823SM   C5S11774   3.225   2.317  10.415  0.0078 -0.0775 -0.4222
   8823SM   H5S11775   3.243   2.399  10.343 -1.5539 -0.5431 -1.3795
   8823SM   C6S11776   3.314   2.323  10.533  1.0481 -0.7345  0.1522
   8823SM   H6S11777   3.331   2.431  10.553  2.3090 -0.5376 -1.7808
   8823SM   H6T11778   3.410   2.293  10.486  1.8494  0.4216  0.9859
   8823SM   C7S11779   3.287   2.254  10.672  0.0709  0.1074 -0.1526
   8823SM   H7S11780   3.289   2.143  10.666 -1.8658 -0.2458  3.3718
   8823SM   H7T11781   3.182   2.278  10.700  1.2745  1.7822  3.5458
   8823SM   C8S11782   3.377   2.298  10.779 -0.2134 -0.1023  0.3257
   8823SM   H8S11783   3.378   2.408  10.791  4.0921  0.0388  0.3278
   8823SM   H8T11784   3.482   2.265  10.764 -0.3438  0.1190 -1.2132
   8823SM   C9S11785   3.327   2.238  10.912  0.5142  0.0740 -0.1908
   8823SM   H9S11786   3.333   2.127  10.898 -0.8133 -0.2460  1.4923
   8823SM   H9T11787   3.219   2.259  10.925  0.6336 -0.2596  1.5774
   8823SM  C10S11788   3.406   2.288  11.033 -0.9051 -0.3911  0.0567
   8823SM  H10S11789   3.413   2.397  11.012  1.8165 -0.3047  0.9898
   8823SM  H10T11790   3.510   2.251  11.019 -0.7007  0.0316  0.4542
   8823SM  C11S11791   3.343   2.230  11.159 -0.7060  0.0541 -0.2083
   8823SM  H11S11792   3.353   2.119  11.152 -1.0585 -0.0764  1.1125
   8823SM  H11T11793   3.233   2.246  11.150 -1.3050 -2.6767  1.1392
   8823SM  C12S11794   3.393   2.275  11.295  0.5973  0.3268  0.3736
   8823SM  H12S11795   3.396   2.386  11.297 -1.1553  0.4168 -0.4828
   8823SM  H12T11796   3.483   2.217  11.325 -0.5830 -2.2901 -0.8615
   8823SM  C13S11797   3.299   2.236  11.410  0.6889 -0.0459  0.2781
   8823SM  H13S11798   3.278   2.127  11.414 -0.7788  0.1991 -0.2061
   8823SM  H13T11799   3.211   2.304  11.398  1.3308  0.5052 -1.6165
   8823SM  C14S11800   3.354   2.276  11.551  0.0519 -0.9572 -0.6787
   8823SM  H14S11801   3.270   2.254  11.621  0.3448 -0.0535 -0.0210
   8823SM  H14T11802   3.380   2.384  11.556  0.1748 -1.0093 -0.1039
   8823SM  C15S11803   3.477   2.202  11.588  0.1692  0.4407  0.0674
   8823SM  H15S11804   3.565   2.214  11.521 -0.0578  0.1029 -0.2939
   8823SM  H15T11805   3.451   2.094  11.581  0.5172  0.2774  1.2189
   8823SM  C16S11806   3.534   2.228  11.732  0.3915 -0.0170  0.5380
   8823SM  H16S11807   3.584   2.327  11.736 -0.4654  0.5217 -1.0045
   8823SM  H16T11808   3.628   2.169  11.731  1.5199  1.6372 -2.1421
   8823SM  C17S11809   3.442   2.216  11.843  0.8330  0.0533 -0.2946
   8823SM  H17S11810   3.390   2.118  11.839 -1.2238  1.1465 -2.4571
   8823SM  H17T11811   3.350   2.277  11.837  1.3546  0.8368 -0.5980
   8823SM  C18S11812   3.516   2.226  11.977  0.2623  0.1898 -0.2648
   8823SM  H18S11813   3.440   2.221  12.058 -0.8610 -2.2088 -1.4012
   8823SM  H18T11814   3.584   2.315  11.977  2.8178 -1.6467 -0.5754
   8823SM  H18U11815   3.583   2.138  11.976  0.9785  0.7203 -1.3168
   8823SM   C1F11816   3.067   1.905  10.188  0.1344 -0.9864  0.1304
   8823SM    OF11817   3.108   1.909  10.072  0.8106  0.1070 -0.4686
   8823SM   C2F11818   3.075   1.781  10.270 -0.2492  0.6505  0.2899
   8823SM   H2F11819   3.006   1.791  10.357  0.7907 -1.3325  1.3906
   8823SM   H2G11820   3.179   1.775  10.309 -0.4080  1.5602  0.8948
   8823SM   C3F11821   3.026   1.655  10.198  0.5930 -0.1315  0.6071
   8823SM   H3F11822   3.103   1.596  10.143 -0.0577 -0.2726 -0.1698
   8823SM   H3G11823   2.952   1.675  10.118  1.1141 -2.9996 -0.7192
   8823SM   C4F11824   2.961   1.551  10.292  0.9186  1.0711 -0.4521
   8823SM   H4F11825   2.930   1.460  10.236 -0.3313  2.1575 -1.5853
   8823SM   H4G11826   2.880   1.606  10.343  0.3439 -1.4875  1.6148
   8823SM   C5F11827   3.064   1.503  10.391 -0.4957  0.1885 -0.1714
   8823SM   H5F11828   3.107   1.587  10.449  0.6421 -0.8877  0.6169
   8823SM   H5G11829   3.150   1.470  10.328  0.8995  0.7561  1.3578
   8823SM   C6F11830   3.010   1.386  10.472  0.4205  0.3595  0.3224
   8823SM   H6F11831   3.096   1.345  10.530  0.6476 -0.3913 -0.5261
   8823SM   H6G11832   2.977   1.306  10.403  0.4834 -0.1935  0.9161
   8823SM   C7F11833   2.898   1.416  10.574 -0.4997 -0.0023 -0.0712
   8823SM   H7F11834   2.851   1.325  10.616  0.3142  0.4328  1.8897
   8823SM   H7G11835   2.823   1.477  10.518  0.4635  1.4853  0.1914
   8823SM   C8F11836   2.944   1.500  10.696 -0.0843 -0.4937 -0.3015
   8823SM   H8F11837   2.861   1.569  10.724 -0.2413 -0.9403  0.3548
   8823SM   H8G11838   3.030   1.562  10.663  0.1400 -1.4456 -1.5959
   8823SM   C9F11839   2.993   1.418  10.818 -0.0331 -0.2387  0.1022
   8823SM   H9F11840   3.074   1.351  10.783  0.2653 -1.3288  2.6452
   8823SM   H9G11841   2.903   1.357  10.844 -0.2478 -0.5098 -1.2188
   8823SM  C10F11842   3.050   1.510  10.924  0.8889  0.0181 -0.2163
   8823SM  H10F11843   2.975   1.581  10.965  2.5184  2.3949 -1.1534
   8823SM  H10G11844   3.129   1.568  10.872 -0.8071  1.7518 -0.9695
   8823SM  C11F11845   3.120   1.435  11.038  0.1717  0.0186  0.0236
   8823SM  H11F11846   3.225   1.413  11.008  0.0327 -0.9598  0.2391
   8823SM  H11G11847   3.070   1.338  11.052 -1.4873  0.8179 -0.1142
   8823SM  C12F11848   3.137   1.513  11.170 -0.4540 -0.2259 -0.7138
   8823SM  H12F11849   3.038   1.527  11.219  1.1403  0.4778  2.6084
   8823SM  H12G11850   3.177   1.616  11.156 -1.2174  0.0338 -1.0120
   8823SM  C13F11851   3.247   1.447  11.267  0.5196  0.2120 -0.5784
   8823SM  H13F11852   3.341   1.478  11.216  0.5702 -2.4652 -2.3387
   8823SM  H13G11853   3.246   1.336  11.265 -0.2475  0.1627  0.8816
   8823SM  C14F11854   3.251   1.500  11.410  0.0843 -0.3942  0.3669
   8823SM  H14F11855   3.202   1.600  11.409 -0.8401 -0.8466 -0.1322
   8823SM  H14G11856   3.354   1.523  11.446 -0.2848 -2.2162  2.8519
   8823SM  C15F11857   3.175   1.409  11.512 -0.1267 -0.2747 -0.0896
   8823SM  H15F11858   3.223   1.309  11.524  2.2299  0.7621 -0.4070
   8823SM  H15G11859   3.073   1.404  11.467 -0.3611 -0.3099  0.4359
   8823SM  C16F11860   3.167   1.469  11.646  0.5680  0.3849 -0.1606
   8823SM  H16F11861   3.114   1.567  11.650  0.3333  0.2229  1.7080
   8823SM  H16G11862   3.265   1.478  11.698  0.5886  1.7088 -0.3882
   8823SM  C17F11863   3.088   1.378  11.747 -0.7329 -0.5013  0.1203
   8823SM  H17F11864   3.159   1.293  11.762  1.8654  1.2930 -1.2953
   8823SM  H17G11865   2.993   1.333  11.712 -0.2392 -3.0692  1.7703
   8823SM  C18F11866   3.052   1.442  11.877 -0.0543 -0.1492  0.5280
   8823SM  H18F11867   3.129   1.518  11.904 -0.8266  0.9124 -0.1525
   8823SM  H18G11868   3.059   1.359  11.950 -0.2968 -0.4441  0.2187
   8823SM  C19F11869   2.919   1.511  11.873  0.3527 -0.1042 -0.8315
   8823SM  H19F11870   2.836   1.437  11.861  1.8529 -2.0444  0.1840
   8823SM  H19G11871   2.918   1.582  11.788 -1.4411  0.8792 -0.0630
   8823SM  C20F11872   2.892   1.599  11.997  0.0851  0.0830  0.2436
   8823SM  H20F11873   2.795   1.652  12.004 -0.2210 -0.6217  1.6297
   8823SM  H20G11874   2.974   1.674  11.993 -1.0661  1.4289  0.7903
   8823SM  C21F11875   2.895   1.528  12.134  0.3315  0.7674  0.7463
   8823SM  H21F11876   3.005   1.520  12.147  0.3895  1.4746  0.7591
   8823SM  H21G11877   2.847   1.429  12.123  3.1291 -0.8427  1.7858
   8823SM  C22F11878   2.823   1.625  12.234 -0.6624  0.4628  0.3027
   8823SM  H22F11879   2.716   1.625  12.206 -0.5314  1.0834 -0.2226
   8823SM  H22G11880   2.868   1.726  12.234  1.2722 -0.2946 -2.3042
   8823SM  C23F11881   2.836   1.578  12.376  0.1097 -0.7145 -0.7958
   8823SM  H23F11882   2.801   1.473  12.391 -1.0627 -0.1876  0.3600
   8823SM  H23G11883   2.788   1.646  12.449  1.8648 -0.9947  0.7007
   8823SM  H23H11884   2.945   1.581  12.400  0.0305  1.6025 -0.5119
   8923SM     N11885   0.039   1.883   9.747  0.7755  0.2700 -0.5401
   8923SM   C1511886   0.161   1.804   9.711 -0.0223 -0.5857  0.1642
   8923SM  H15A11887   0.155   1.696   9.706  1.6421 -0.6647 -2.5568
   8923SM  H15B11888   0.237   1.819   9.787  1.0629 -0.5518 -0.8958
   8923SM  H15C11889   0.209   1.830   9.618 -2.4897 -0.4130 -1.1403
   8923SM   C1411890   0.072   2.031   9.755 -0.0788  0.3263 -0.4697
   8923SM  H14A11891  -0.016   2.093   9.753 -0.9265 -0.8187 -0.0333
   8923SM  H14B11892   0.146   2.055   9.681  0.4763  1.6126  0.4502
   8923SM  H14C11893   0.124   2.045   9.849 -0.0069 -0.2399 -0.4200
   8923SM   C1311894  -0.060   1.863   9.633  0.5595 -1.5968  0.3768
   8923SM  H13A11895  -0.081   1.761   9.603  0.8970 -0.9111 -2.4212
   8923SM  H13B11896  -0.009   1.906   9.549  0.3365 -0.0429  1.0119
   8923SM  H13C11897  -0.153   1.909   9.662 -0.2159 -1.9741 -1.3869
   8923SM   C1211898  -0.021   1.833   9.882 -0.6791 -0.4228  0.5036
   8923SM  H12A11899  -0.032   1.728   9.863  1.3583 -0.9619  1.9504
   8923SM  H12B11900  -0.120   1.876   9.895  0.1751  1.6946  0.4461
   8923SM   C1111901   0.062   1.840  10.015 -0.2176  0.0225  0.1737
   8923SM  H11A11902   0.159   1.788  10.000  0.2267  1.1605 -1.1024
   8923SM  H11B11903   0.011   1.786  10.098 -1.2750  3.1892  1.7871
   8923SM     P11904  -0.039   2.070  10.086  0.0259 -0.1645 -0.4773
   8923SM   O1311905   0.009   2.210  10.068  0.0052  0.6695 -0.0483
   8923SM   O1411906  -0.168   2.028  10.031 -0.3006  0.1582  0.3368
   8923SM   O1111907  -0.052   2.039  10.240 -0.0824  0.0833 -0.5638
   8923SM   O1211908   0.084   1.977  10.054 -0.6892 -0.2496  0.6957
   8923SM   C1S11909   0.049   1.961  10.314 -0.0730  0.4198 -0.4764
   8923SM   H1S11910   0.153   1.979  10.281  0.7057  1.5912  2.3250
   8923SM   H1T11911   0.036   1.852  10.301  0.7220  0.1402  0.8909
   8923SM    NF11912   0.130   1.902  10.545 -0.3341  0.4302  0.1008
   8923SM   HNF11913   0.102   1.848  10.623 -2.1576  1.4929  0.2386
   8923SM   C2S11914   0.032   1.981  10.471  0.6448 -0.1382 -0.5447
   8923SM   H2S11915   0.054   2.088  10.490 -2.3356  0.7557 -1.5792
   8923SM   C3S11916  -0.112   1.959  10.523 -0.2893 -0.2737 -1.0302
   8923SM   H3S11917  -0.139   1.855  10.493  0.7065 -0.7695 -0.2643
   8923SM    O311918  -0.205   2.044  10.457  0.0958 -0.2888  0.2531
   8923SM   HO311919  -0.161   2.058  10.373 -1.9819  0.4435 -0.7764
   8923SM   C4S11920  -0.127   1.972  10.671  0.5329  0.4067  0.0502
   8923SM   H4S11921  -0.093   2.070  10.709 -2.8168  1.2797  1.0764
   8923SM   C5S11922  -0.183   1.883  10.756 -0.5308 -0.5413 -0.0961
   8923SM   H5S11923  -0.213   1.785  10.715 -1.3933  1.2745 -4.3673
   8923SM   C6S11924  -0.186   1.919  10.903 -0.8600 -0.2550  0.5546
   8923SM   H6S11925  -0.265   1.862  10.955 -1.5426  0.6244  0.5128
   8923SM   H6T11926  -0.214   2.025  10.922 -1.7035 -0.3985  0.1452
   8923SM   C7S11927  -0.049   1.889  10.975 -0.0761  0.7536 -0.1589
   8923SM   H7S11928   0.030   1.946  10.921 -1.1216  0.2163 -2.3586
   8923SM   H7T11929  -0.028   1.780  10.968  0.2457  0.8215 -0.2927
   8923SM   C8S11930  -0.051   1.920  11.128  0.7832  0.0041  0.0688
   8923SM   H8S11931  -0.075   2.025  11.156 -1.1644 -0.0477 -1.2073
   8923SM   H8T11932   0.053   1.913  11.167  0.6644  1.6213  0.7795
   8923SM   C9S11933  -0.133   1.811  11.213 -0.4806 -0.0977 -0.9937
   8923SM   H9S11934  -0.093   1.712  11.182  0.7684  0.2390 -0.5466
   8923SM   H9T11935  -0.241   1.826  11.193 -1.2219  1.7256  3.2168
   8923SM  C10S11936  -0.101   1.835  11.369 -0.4259  0.0462  0.4994
   8923SM  H10S11937  -0.128   1.940  11.394  1.2847  0.4516  0.7783
   8923SM  H10T11938   0.009   1.831  11.382 -0.4540 -0.4717  0.5869
   8923SM  C11S11939  -0.149   1.724  11.471 -1.0253 -0.0300 -0.1223
   8923SM  H11S11940  -0.108   1.626  11.440  0.7229  0.3248  0.9589
   8923SM  H11T11941  -0.259   1.723  11.457 -1.2075 -0.2291  1.1887
   8923SM  C12S11942  -0.113   1.748  11.613  0.4654  0.6095 -0.1905
   8923SM  H12S11943  -0.137   1.852  11.642  0.9476  0.7248 -0.1895
   8923SM  H12T11944  -0.004   1.739  11.630  0.1128  1.0139  2.7459
   8923SM  C13S11945  -0.177   1.649  11.717 -0.0881 -0.1256  0.3796
   8923SM  H13S11946  -0.144   1.546  11.689  0.7722  0.8432 -2.5545
   8923SM  H13T11947  -0.284   1.672  11.696  0.6358  2.8738 -0.5543
   8923SM  C14S11948  -0.123   1.693  11.854 -0.2042 -0.5026 -0.2781
   8923SM  H14S11949  -0.153   1.797  11.880 -2.6272 -1.4320  0.9896
   8923SM  H14T11950  -0.012   1.693  11.854 -0.1751  0.0918  1.5729
   8923SM  C15S11951  -0.166   1.611  11.975  0.9687  0.2385  0.2177
   8923SM  H15S11952  -0.127   1.509  11.957 -2.4463 -1.1024 -0.3257
   8923SM  H15T11953  -0.276   1.599  11.966  0.9146  0.5379  0.4624
   8923SM  C16S11954  -0.133   1.650  12.116  0.3409 -0.2113  0.5660
   8923SM  H16S11955  -0.165   1.754  12.139  0.0411 -0.8086  3.1671
   8923SM  H16T11956  -0.025   1.652  12.140  0.5093  0.5796 -0.2103
   8923SM  C17S11957  -0.184   1.554  12.224  0.1906 -0.5924  0.0038
   8923SM  H17S11958  -0.134   1.458  12.199  2.2955  0.7181 -1.0712
   8923SM  H17T11959  -0.294   1.544  12.210  0.3889 -2.0330 -0.6866
   8923SM  C18S11960  -0.142   1.588  12.365  0.5498  0.0384 -0.2895
   8923SM  H18S11961  -0.036   1.619  12.379  0.2898  0.4872  0.7462
   8923SM  H18T11962  -0.166   1.509  12.439  0.6025 -1.2199 -1.5633
   8923SM  H18U11963  -0.201   1.680  12.385  0.2100 -0.0402 -0.9025
   8923SM   C1F11964   0.261   1.911  10.534 -0.7541  0.2643  1.3582
   8923SM    OF11965   0.316   1.997  10.463  0.1773 -0.1964 -0.1742
   8923SM   C2F11966   0.347   1.829  10.623 -0.1450  0.6336  0.3196
   8923SM   H2F11967   0.427   1.888  10.673 -0.4310  0.3140  1.1859
   8923SM   H2G11968   0.387   1.745  10.562 -0.7140  1.6866 -1.5853
   8923SM   C3F11969   0.262   1.766  10.743  0.3198  0.4473  1.0668
   8923SM   H3F11970   0.185   1.698  10.700  1.3341 -0.5875  0.8319
   8923SM   H3G11971   0.205   1.844  10.800 -0.9722 -0.8555  1.6253
   8923SM   C4F11972   0.350   1.683  10.835  0.1610  0.8471  0.0193
   8923SM   H4F11973   0.401   1.602  10.778 -0.4659  0.1202  0.4721
   8923SM   H4G11974   0.294   1.625  10.911 -0.0754  1.0256 -0.0175
   8923SM   C5F11975   0.446   1.767  10.918  0.0216 -0.0504 -0.2078
   8923SM   H5F11976   0.391   1.836  10.985  1.9225  1.4391 -0.0891
   8923SM   H5G11977   0.514   1.822  10.848  0.4895 -2.9044 -2.1577
   8923SM   C6F11978   0.524   1.681  11.020 -0.0074 -0.3107 -0.0808
   8923SM   H6F11979   0.627   1.666  10.983  0.5249  0.6620  0.9580
   8923SM   H6G11980   0.482   1.579  11.034  1.2088 -0.9636 -0.9839
   8923SM   C7F11981   0.521   1.743  11.163  0.5454 -0.1389  0.7063
   8923SM   H7F11982   0.414   1.753  11.193  0.3838 -2.3780  1.0863
   8923SM   H7G11983   0.570   1.842  11.160 -0.1385  0.2047  0.6876
   8923SM   C8F11984   0.565   1.656  11.278  0.3447 -0.6609 -0.6937
   8923SM   H8F11985   0.671   1.634  11.254  0.0511  0.7220 -3.7949
   8923SM   H8G11986   0.490   1.575  11.289 -0.0168  0.0409  3.9102
   8923SM   C9F11987   0.555   1.732  11.411 -0.8714 -0.0282 -0.3248
   8923SM   H9F11988   0.450   1.764  11.428 -1.6722 -1.1098 -2.7875
   8923SM   H9G11989   0.619   1.822  11.412 -0.1593 -0.4761 -2.0463
   8923SM  C10F11990   0.612   1.637  11.520 -0.1023 -0.3169 -0.4921
   8923SM  H10F11991   0.714   1.604  11.490 -0.7444 -0.8764 -2.1497
   8923SM  H10G11992   0.561   1.539  11.523  1.3148 -1.0912 -0.6645
   8923SM  C11F11993   0.627   1.690  11.661 -0.1087 -0.1969 -0.2621
   8923SM  H11F11994   0.535   1.728  11.710  0.4534 -0.7841  1.3268
   8923SM  H11G11995   0.705   1.770  11.659  1.3181 -1.5336 -2.9238
   8923SM  C12F11996   0.689   1.592  11.767 -0.2497  0.0527  0.1997
   8923SM  H12F11997   0.782   1.566  11.712  0.4315 -0.9081  1.7491
   8923SM  H12G11998   0.621   1.504  11.765  0.3881 -0.4355 -0.5497
   8923SM  C13F11999   0.710   1.637  11.909  0.1791 -0.1578  0.2765
   8923SM  H13F12000   0.610   1.665  11.948 -0.3825 -1.6477 -0.0314
   8923SM  H13G12001   0.783   1.720  11.919  0.6667 -0.6115  0.5316
   8923SM  C14F12002   0.769   1.523  11.999  0.3361 -0.8719 -0.1381
   8923SM  H14F12003   0.874   1.498  11.972  0.9652  1.0164  0.3749
   8923SM  H14G12004   0.712   1.431  11.975 -0.5576 -0.4980  0.5120
   8923SM  C15F12005   0.746   1.544  12.152 -0.4662  0.4228  0.0773
   8923SM  H15F12006   0.796   1.456  12.197 -0.6294 -0.5877 -1.6408
   8923SM  H15G12007   0.638   1.534  12.180 -0.2431  2.3485  1.9067
   8923SM  C16F12008   0.813   1.677  12.206  0.8830  0.0773 -0.2481
   8923SM  H16F12009   0.771   1.765  12.152 -2.5685 -0.8855  0.6174
   8923SM  H16G12010   0.923   1.683  12.203  0.9292 -0.5230  0.1537
   8923SM  C17F12011   0.784   1.700  12.356  0.3455  0.7714 -0.2427
   8923SM  H17F12012   0.832   1.610  12.399  1.6774  0.6303 -1.9516
   8923SM  H17G12013   0.674   1.686  12.365  0.7557 -3.2680  0.4609
   8923SM  C18F12014   0.845   1.833  12.414  0.1286 -0.3920  0.7212
   8923SM  H18F12015   0.805   1.927  12.370  0.5733  0.0333  1.2031
   8923SM  H18G12016   0.947   1.816  12.375  0.1023  2.7901 -1.0685
   8923SM  C19F12017   0.832   1.846  12.560 -0.6745 -0.6729 -0.9214
   8923SM  H19F12018   0.870   1.752  12.604  1.1487 -0.3720 -1.7719
   8923SM  H19G12019   0.723   1.850  12.584 -0.0521  0.0549  2.2579
   8923SM  C20F12020   0.908   1.968  12.629 -0.4188  0.0206  0.4790
   8923SM  H20F12021   0.887   2.048  12.555 -1.3487 -1.3589 -0.7969
   8923SM  H20G12022   1.016   1.944  12.630 -0.8112 -1.9638  0.0066
   8923SM  C21F12023   0.845   2.013  12.763  0.7948 -0.5705 -0.2967
   8923SM  H21F12024   0.833   1.920  12.824  0.9225 -2.0769 -2.4673
   8923SM  H21G12025   0.745   2.059  12.749  1.4338  1.7348  1.8709
   8923SM  C22F12026   0.934   2.111  12.840 -0.1433  0.3254 -0.0447
   8923SM  H22F12027   1.005   2.153  12.764  1.1017 -2.3503 -0.4690
   8923SM  H22G12028   0.999   2.049  12.905 -0.0447  1.2454  0.7563
   8923SM  C23F12029   0.852   2.205  12.914  0.2705  0.1721  1.1058
   8923SM  H23F12030   0.907   2.286  12.965 -1.6046  1.8170  0.6346
   8923SM  H23G12031   0.800   2.149  12.995  1.6411  0.9258  2.5674
   8923SM  H23H12032   0.785   2.257  12.842 -0.0313 -1.7716 -0.1138
   9023SM     N12033   6.070   2.472   9.930  0.5214 -0.4908 -0.0399
   9023SM   C1512034   5.987   2.594   9.899 -0.0246 -0.0618 -0.6328
   9023SM  H15A12035   5.954   2.637   9.992 -1.9247 -1.2120 -0.7235
   9023SM  H15B12036   5.896   2.558   9.854  0.0201  0.6418 -1.3023
   9023SM  H15C12037   6.043   2.666   9.841 -0.3364  2.0859  1.5562
   9023SM   C1412038   6.056   2.384   9.813 -0.0427 -0.3717  0.0592
   9023SM  H14A12039   6.117   2.428   9.736 -0.0576  0.2499  0.3948
   9023SM  H14B12040   5.961   2.372   9.763 -0.4479  2.1909  0.0945
   9023SM  H14C12041   6.101   2.288   9.834 -0.0687 -0.3856  0.0519
   9023SM   C1312042   6.208   2.500   9.967  0.2256  0.4112 -0.1084
   9023SM  H13A12043   6.262   2.414  10.002  0.2030  0.1895 -0.6187
   9023SM  H13B12044   6.214   2.573  10.047 -0.3151 -1.6341  1.9069
   9023SM  H13C12045   6.258   2.547   9.884  0.1343  1.8670  0.6249
   9023SM   C1212046   5.989   2.417  10.049 -1.2351  0.0931 -0.0372
   9023SM  H12A12047   5.897   2.379  10.009 -0.5304 -0.6865 -0.9689
   9023SM  H12B12048   5.979   2.503  10.113  2.3809  0.0295  0.8608
   9023SM   C1112049   6.058   2.313  10.140 -1.0261  0.2643  0.4907
   9023SM  H11A12050   5.986   2.278  10.217 -0.1494 -2.4910  0.1526
   9023SM  H11B12051   6.143   2.359  10.194 -0.2797 -0.5921  0.0752
   9023SM     P12052   6.014   2.082  10.027  0.0132  0.1142  0.3233
   9023SM   O1312053   5.890   2.082  10.109 -0.8256 -0.1602 -0.1358
   9023SM   O1412054   6.000   2.052   9.880  0.5226 -0.5117 -0.5420
   9023SM   O1112055   6.099   1.969  10.102 -1.1754 -0.9544  0.1723
   9023SM   O1212056   6.106   2.206  10.053  0.6662 -0.0929  0.0235
   9023SM   C1S12057   6.181   2.006  10.214 -0.1242  0.2728  0.1938
   9023SM   H1S12058   6.141   2.091  10.273  2.4177  1.6448  0.0373
   9023SM   H1T12059   6.278   2.041  10.175  0.9531 -0.0515  2.4427
   9023SM    NF12060   6.235   1.929  10.443  1.1193  0.1188 -0.5164
   9023SM   HNF12061   6.326   1.915  10.481  0.6345 -2.6796 -0.0895
   9023SM   C2S12062   6.195   1.881  10.310  0.1650 -0.3240  0.3173
   9023SM   H2S12063   6.091   1.846  10.328 -0.7845  1.2259 -1.7715
   9023SM   C3S12064   6.290   1.779  10.254  0.3642 -0.3642  0.4953
   9023SM   H3S12065   6.394   1.819  10.254  0.1538  0.1916  0.4934
   9023SM    O312066   6.255   1.744  10.119 -0.0581  0.0244 -0.5985
   9023SM   HO312067   6.177   1.797  10.099 -0.3786 -0.1476  0.1577
   9023SM   C4S12068   6.304   1.661  10.348  0.7397 -0.6308  0.1616
   9023SM   H4S12069   6.374   1.681  10.431 -1.0742 -1.6411  2.0370
   9023SM   C5S12070   6.239   1.545  10.342 -0.3402  0.0784  0.6540
   9023SM   H5S12071   6.180   1.525  10.252  0.3925 -1.5449  0.4946
   9023SM   C6S12072   6.236   1.425  10.440  0.2580  0.0427 -0.1899
   9023SM   H6S12073   6.317   1.361  10.401 -0.1986 -0.6725  0.0205
   9023SM   H6T12074   6.137   1.374  10.435  0.6379 -0.6476 -0.8737
   9023SM   C7S12075   6.259   1.482  10.583  0.5107  0.0992  0.0685
   9023SM   H7S12076   6.362   1.523  10.572  1.0493 -0.4674  2.3789
   9023SM   H7T12077   6.261   1.398  10.656 -3.5599 -0.3650 -0.1465
   9023SM   C8S12078   6.157   1.580  10.635 -0.0872  0.6493  0.7336
   9023SM   H8S12079   6.050   1.549  10.639 -1.3049  2.7699 -5.2645
   9023SM   H8T12080   6.148   1.665  10.565  2.4018  0.1103 -0.3282
   9023SM   C9S12081   6.208   1.622  10.777 -0.7001 -0.4572 -0.4767
   9023SM   H9S12082   6.143   1.708  10.805 -1.1651 -0.7768 -0.5636
   9023SM   H9T12083   6.304   1.676  10.759 -1.6476  1.3600 -0.3249
   9023SM  C10S12084   6.201   1.513  10.892 -0.3878 -0.2963 -0.2359
   9023SM  H10S12085   6.266   1.424  10.881 -0.1431 -0.3431  1.3832
   9023SM  H10T12086   6.094   1.482  10.886 -0.4754 -0.1134  0.3103
   9023SM  C11S12087   6.224   1.572  11.034  0.4148 -0.1808  0.3557
   9023SM  H11S12088   6.146   1.650  11.048 -0.4339 -0.8540 -0.4544
   9023SM  H11T12089   6.324   1.609  11.065  1.3959 -1.8838 -0.6102
   9023SM  C12S12090   6.196   1.470  11.145 -0.4857 -1.1131 -0.6756
   9023SM  H12S12091   6.273   1.390  11.142  0.4877 -0.1854 -0.9278
   9023SM  H12T12092   6.096   1.428  11.122 -0.5033 -2.8904  2.1102
   9023SM  C13S12093   6.186   1.525  11.288 -0.6064  0.5554  0.4259
   9023SM  H13S12094   6.095   1.585  11.309 -0.6507  0.0340  1.8316
   9023SM  H13T12095   6.276   1.586  11.310  0.9864 -1.4860 -0.1182
   9023SM  C14S12096   6.193   1.409  11.387 -0.4707  0.1685  0.5499
   9023SM  H14S12097   6.292   1.360  11.392  0.9660  2.7857 -0.5137
   9023SM  H14T12098   6.125   1.328  11.350  0.4829  0.5014 -2.1454
   9023SM  C15S12099   6.162   1.453  11.524  0.1589  0.1771 -0.3987
   9023SM  H15S12100   6.085   1.533  11.525  2.7406  2.8221 -0.8880
   9023SM  H15T12101   6.246   1.513  11.565 -0.5656  0.9705 -0.0270
   9023SM  C16S12102   6.139   1.343  11.634  0.2559 -0.9280  0.0906
   9023SM  H16S12103   6.212   1.259  11.633  0.1978 -1.0162  1.7084
   9023SM  H16T12104   6.038   1.300  11.620  0.8149 -1.9149 -1.1540
   9023SM  C17S12105   6.154   1.408  11.774  0.0079 -0.4183  0.0459
   9023SM  H17S12106   6.107   1.508  11.763  0.8966 -0.2136 -2.5916
   9023SM  H17T12107   6.259   1.437  11.795 -1.1038  1.3403  4.1309
   9023SM  C18S12108   6.087   1.320  11.880  0.6797  0.7767 -0.5568
   9023SM  H18S12109   6.121   1.215  11.875 -0.2632  0.3893  0.7307
   9023SM  H18T12110   5.977   1.324  11.868  0.5039  1.5567  1.0193
   9023SM  H18U12111   6.107   1.363  11.980  1.8390  0.7191 -0.7460
   9023SM   C1F12112   6.155   2.008  10.514 -0.4583 -0.4263  0.0105
   9023SM    OF12113   6.035   2.024  10.485  0.3211 -0.3257  0.8024
   9023SM   C2F12114   6.209   2.073  10.640  0.0145  0.9450  0.0200
   9023SM   H2F12115   6.214   2.183  10.623  0.3828  1.0766  0.9245
   9023SM   H2G12116   6.317   2.049  10.653 -0.1557  0.2973  0.2571
   9023SM   C3F12117   6.115   2.037  10.754 -0.0040  0.1053 -0.4515
   9023SM   H3F12118   6.111   1.926  10.768 -1.1734  0.1636 -0.1369
   9023SM   H3G12119   6.011   2.065  10.727 -0.0712 -0.2487 -0.5731
   9023SM   C4F12120   6.159   2.121  10.879 -0.9776  0.0921 -0.0033
   9023SM   H4F12121   6.151   2.228  10.849  0.5975 -0.4929 -2.9686
   9023SM   H4G12122   6.262   2.084  10.900 -0.7646  0.5269 -0.2735
   9023SM   C5F12123   6.075   2.098  11.003 -0.7875  0.8631  0.5527
   9023SM   H5F12124   5.966   2.085  10.986 -0.9760  1.3793  1.2948
   9023SM   H5G12125   6.097   2.185  11.068 -0.4818  1.4839 -0.3765
   9023SM   C6F12126   6.132   1.987  11.098  0.9406  0.9107 -0.0986
   9023SM   H6F12127   6.243   1.985  11.095  1.0428 -1.4203  1.9348
   9023SM   H6G12128   6.099   1.886  11.065  2.4558 -0.7794  3.1311
   9023SM   C7F12129   6.103   2.008  11.247  0.0699 -0.3021  0.3381
   9023SM   H7F12130   5.993   2.014  11.260  0.1917 -0.4675  1.5395
   9023SM   H7G12131   6.145   2.104  11.286 -2.1113  0.2373  1.5161
   9023SM   C8F12132   6.156   1.901  11.342  0.2338  0.0839  0.5617
   9023SM   H8F12133   6.267   1.894  11.341  0.1470 -1.9026 -1.1292
   9023SM   H8G12134   6.121   1.800  11.313 -0.2090  0.2185  0.6269
   9023SM   C9F12135   6.115   1.930  11.484 -0.2154  0.3338  0.5265
   9023SM   H9F12136   6.004   1.940  11.487 -0.3117  0.6162 -2.0428
   9023SM   H9G12137   6.162   2.024  11.519  1.7452 -0.3256 -0.2388
   9023SM  C10F12138   6.160   1.839  11.598 -0.2152  0.1234 -0.3427
   9023SM  H10F12139   6.270   1.825  11.603 -0.4549 -1.8294  1.2812
   9023SM  H10G12140   6.111   1.741  11.577  0.4042  0.0518 -1.5094
   9023SM  C11F12141   6.117   1.894  11.735 -0.1157  0.3229 -0.6279
   9023SM  H11F12142   6.011   1.925  11.736 -0.1307  0.2661  0.3242
   9023SM  H11G12143   6.173   1.990  11.738  2.0874 -0.8539 -1.0293
   9023SM  C12F12144   6.141   1.801  11.856  0.3244 -0.3036  0.3034
   9023SM  H12F12145   6.242   1.756  11.847 -0.0486 -1.1606  0.3290
   9023SM  H12G12146   6.054   1.732  11.858 -0.6236  0.8589  1.1624
   9023SM  C13F12147   6.134   1.874  11.987  0.4535 -0.7915  0.3070
   9023SM  H13F12148   6.029   1.910  11.986 -0.6682 -3.8045 -0.5024
   9023SM  H13G12149   6.212   1.954  11.994  1.2435 -1.4594 -0.6115
   9023SM  C14F12150   6.164   1.789  12.110 -0.7729  0.1483 -0.5392
   9023SM  H14F12151   6.265   1.746  12.088  0.6169  1.4439  2.7164
   9023SM  H14G12152   6.089   1.709  12.128 -0.0776 -0.4238 -0.1217
   9023SM  C15F12153   6.177   1.870  12.240 -0.5534  0.3965  0.7941
   9023SM  H15F12154   6.238   1.961  12.227  0.1516 -0.1626  0.0908
   9023SM  H15G12155   6.205   1.811  12.330  1.4617 -0.6727 -0.4668
   9023SM  C16F12156   6.042   1.916  12.283  0.5417  1.1413 -0.1671
   9023SM  H16F12157   5.977   1.829  12.307  0.4428  0.7496 -1.7380
   9023SM  H16G12158   5.995   1.978  12.204 -0.5599  2.0037  1.1229
   9023SM  C17F12159   6.024   1.992  12.417 -0.1543 -0.2658 -0.2318
   9023SM  H17F12160   6.088   2.083  12.419 -3.2894  2.2132  3.5620
   9023SM  H17G12161   6.059   1.928  12.500 -0.7657 -1.2868 -0.7378
   9023SM  C18F12162   5.871   2.033  12.431 -0.6417 -0.3302 -0.4701
   9023SM  H18F12163   5.822   1.948  12.484  1.6283 -0.9683  0.7431
   9023SM  H18G12164   5.829   2.057  12.331 -1.3358  0.2970 -0.0327
   9023SM  C19F12165   5.866   2.158  12.519 -0.3378  0.1331  0.2376
   9023SM  H19F12166   5.939   2.237  12.491  0.0788 -0.4013 -0.1933
   9023SM  H19G12167   5.895   2.130  12.623 -1.4930 -1.7941  0.0881
   9023SM  C20F12168   5.721   2.222  12.524 -0.8018  0.1035 -0.0289
   9023SM  H20F12169   5.649   2.137  12.528 -0.2188 -0.3975 -0.0996
   9023SM  H20G12170   5.709   2.267  12.423  2.0623  0.9920 -0.0438
   9023SM  C21F12171   5.703   2.320  12.637  0.4285  0.0786 -0.3375
   9023SM  H21F12172   5.765   2.408  12.611  0.2611  0.3387  0.1427
   9023SM  H21G12173   5.741   2.275  12.732 -1.0626  3.3276  1.9679
   9023SM  C22F12174   5.561   2.373  12.663 -0.1788  0.4236 -0.7874
   9023SM  H22F12175   5.490   2.293  12.691  1.3622 -0.2393  1.5542
   9023SM  H22G12176   5.524   2.418  12.569 -0.6605  1.5308 -0.0883
   9023SM  C23F12177   5.549   2.478  12.782 -0.1662  0.4366 -0.1082
   9023SM  H23F12178   5.613   2.567  12.760  0.9022 -0.8072 -2.3865
   9023SM  H23G12179   5.574   2.440  12.883  2.5714  0.8451 -0.5393
   9023SM  H23H12180   5.443   2.511  12.785 -0.2024  0.9196 -3.0926
   9123SM     N12181   1.032   3.669   9.618 -0.2580 -0.5971  0.3911
   9123SM   C1512182   0.902   3.662   9.538 -0.1175 -0.1946 -0.5877
   9123SM  H15A12183   0.829   3.690   9.612 -0.0118 -0.1131 -0.5126
   9123SM  H15B12184   0.885   3.562   9.500  2.5097 -1.0982  0.2960
   9123SM  H15C12185   0.898   3.736   9.460 -2.0133  0.5233  0.1505
   9123SM   C1412186   1.034   3.556   9.714  0.4573  0.1889 -0.1183
   9123SM  H14A12187   1.024   3.462   9.664 -0.0075  0.0227  0.2843
   9123SM  H14B12188   0.955   3.561   9.787  0.3085 -0.5356 -0.2271
   9123SM  H14C12189   1.123   3.555   9.776 -0.6406 -1.8973  1.5575
   9123SM   C1312190   1.141   3.667   9.517 -0.3346 -0.3431  0.4261
   9123SM  H13A12191   1.136   3.579   9.455  0.6722 -0.4902  0.5347
   9123SM  H13B12192   1.236   3.661   9.568 -0.4836 -1.1513  0.6258
   9123SM  H13C12193   1.147   3.750   9.448 -0.2865  0.1274  0.9900
   9123SM   C1212194   1.031   3.806   9.694  0.0036 -0.2379 -0.3510
   9123SM  H12A12195   0.990   3.882   9.629  0.4491  0.2129 -0.1156
   9123SM  H12B12196   1.134   3.829   9.716 -0.1878  0.2297  0.0739
   9123SM   C1112197   0.945   3.809   9.821 -0.0756 -0.6718 -0.4041
   9123SM  H11A12198   0.952   3.906   9.875  0.1424  0.0856 -1.7381
   9123SM  H11B12199   0.978   3.721   9.881 -1.7156 -0.7789  0.4014
   9123SM     P12200   0.704   3.717   9.869 -0.0655 -0.0640  0.3947
   9123SM   O1312201   0.570   3.763   9.837 -0.2986  0.1175  0.1619
   9123SM   O1412202   0.735   3.572   9.849  0.1188  0.6933 -0.2004
   9123SM   O1112203   0.748   3.756  10.018  0.1848  0.9668 -0.0210
   9123SM   O1212204   0.812   3.799   9.781 -0.1553  0.1340 -0.1164
   9123SM   C1S12205   0.641   3.737  10.116  0.5056  0.0413  0.7881
   9123SM   H1S12206   0.627   3.631  10.144 -1.8428  0.8007  2.8066
   9123SM   H1T12207   0.542   3.773  10.079 -0.1896 -1.8185  0.7455
   9123SM    NF12208   0.593   3.786  10.361  0.6846  0.1249 -0.2830
   9123SM   HNF12209   0.540   3.859  10.404  0.0364 -0.7980  0.5295
   9123SM   C2S12210   0.674   3.828  10.246 -0.1259  0.5999  0.6370
   9123SM   H2S12211   0.782   3.809  10.267  0.0783  2.0740  1.0109
   9123SM   C3S12212   0.670   3.977  10.208  0.1290  0.1035 -0.1908
   9123SM   H3S12213   0.563   4.002  10.190  0.3933  2.5110  1.2015
   9123SM    O312214   0.744   4.021  10.093  0.9842 -0.2428 -0.8888
   9123SM   HO312215   0.761   3.944  10.037  1.5064  0.3008 -1.4816
   9123SM   C4S12216   0.704   4.066  10.324  1.0097 -0.0469 -0.0780
   9123SM   H4S12217   0.787   4.031  10.387 -0.0590  0.3481  1.6052
   9123SM   C5S12218   0.639   4.175  10.371  0.2234  0.7750  0.7201
   9123SM   H5S12219   0.549   4.205  10.316 -0.4019 -0.5380  0.9813
   9123SM   C6S12220   0.671   4.254  10.493 -0.3383 -0.7755 -0.0570
   9123SM   H6S12221   0.588   4.241  10.567  0.6839  0.9263  1.4861
   9123SM   H6T12222   0.675   4.361  10.464  3.0074 -0.4140  1.3118
   9123SM   C7S12223   0.798   4.236  10.580  0.1042 -0.2092  0.3225
   9123SM   H7S12224   0.890   4.262  10.523 -0.7480  0.2685 -0.8638
   9123SM   H7T12225   0.791   4.133  10.622  0.3910 -1.7005 -2.9352
   9123SM   C8S12226   0.797   4.342  10.697  0.1866  0.1249 -0.4725
   9123SM   H8S12227   0.795   4.448  10.663 -1.2372  0.3271  0.1447
   9123SM   H8T12228   0.897   4.325  10.742  0.7569  0.4414 -1.5799
   9123SM   C9S12229   0.693   4.333  10.812  0.2289 -0.2042 -0.0742
   9123SM   H9S12230   0.707   4.235  10.862  0.6707  0.5849  1.4179
   9123SM   H9T12231   0.588   4.335  10.775  0.1983  2.0051  0.0104
   9123SM  C10S12232   0.714   4.439  10.935  0.7057  0.5069  0.4442
   9123SM  H10S12233   0.622   4.425  10.996  0.7191  1.4869  0.7032
   9123SM  H10T12234   0.716   4.544  10.897 -0.4895  0.1563 -0.6595
   9123SM  C11S12235   0.840   4.404  11.019  0.6659  0.4067 -0.0926
   9123SM  H11S12236   0.894   4.501  11.031 -0.9810  1.5491 -1.4129
   9123SM  H11T12237   0.908   4.332  10.970  1.3549 -0.1016  1.5355
   9123SM  C12S12238   0.811   4.359  11.165  0.0099  0.1853  0.2899
   9123SM  H12S12239   0.902   4.310  11.206 -0.9144 -0.7021  1.3270
   9123SM  H12T12240   0.730   4.283  11.161 -0.2070  0.3741  0.9345
   9123SM  C13S12241   0.762   4.467  11.262 -0.5029 -0.5338  0.2925
   9123SM  H13S12242   0.656   4.497  11.247 -0.3318  1.0516  1.8946
   9123SM  H13T12243   0.830   4.554  11.249  0.0253 -0.8261  1.0118
   9123SM  C14S12244   0.770   4.409  11.407 -0.2648 -0.3818 -0.7525
   9123SM  H14S12245   0.877   4.385  11.422  0.2621  1.2868 -1.6074
   9123SM  H14T12246   0.709   4.316  11.414 -0.0333 -0.4649  0.3973
   9123SM  C15S12247   0.735   4.514  11.520 -0.1662 -0.1931 -0.0025
   9123SM  H15S12248   0.627   4.533  11.501  0.0146 -0.1933 -1.0731
   9123SM  H15T12249   0.796   4.606  11.508 -1.2143  0.8118  1.8697
   9123SM  C16S12250   0.748   4.461  11.667 -0.7724 -0.3744 -0.3343
   9123SM  H16S12251   0.678   4.376  11.680 -1.0223 -0.1216  0.0027
   9123SM  H16T12252   0.701   4.547  11.719 -1.6800 -0.6405 -0.6936
   9123SM  C17S12253   0.892   4.427  11.706  0.0418 -0.0442 -0.1920
   9123SM  H17S12254   0.954   4.516  11.727  1.8570 -1.3955  0.4112
   9123SM  H17T12255   0.934   4.364  11.625 -0.7547 -0.4092 -0.3353
   9123SM  C18S12256   0.903   4.344  11.833 -0.2658  0.3268 -0.5554
   9123SM  H18S12257   0.884   4.406  11.923  1.9645  1.6893 -0.9614
   9123SM  H18T12258   1.007   4.305  11.842  0.3803  1.8581 -1.1061
   9123SM  H18U12259   0.843   4.251  11.847 -1.1795  0.9597 -0.1589
   9123SM   C1F12260   0.600   3.663  10.418  0.2499  0.4166  0.6676
   9123SM    OF12261   0.702   3.599  10.392 -0.0710  0.1271 -0.3606
   9123SM   C2F12262   0.492   3.614  10.508 -0.3959  0.1594 -0.0544
   9123SM   H2F12263   0.526   3.523  10.563 -1.3161  1.7301  3.4423
   9123SM   H2G12264   0.410   3.584  10.440  0.7602  0.4493 -1.6229
   9123SM   C3F12265   0.444   3.723  10.605 -0.2393 -0.5822 -0.5168
   9123SM   H3F12266   0.365   3.670  10.662  0.7770 -2.3959 -0.6938
   9123SM   H3G12267   0.403   3.811  10.551  1.4846  1.7749  1.8213
   9123SM   C4F12268   0.557   3.776  10.698  0.6183 -0.2818 -0.3332
   9123SM   H4F12269   0.638   3.823  10.639  0.5180 -0.4412 -0.5981
   9123SM   H4G12270   0.596   3.695  10.763 -0.2228  0.4802  1.1884
   9123SM   C5F12271   0.510   3.877  10.802  0.5579  0.6330  0.0393
   9123SM   H5F12272   0.428   3.840  10.867  0.1032  2.3525  0.5106
   9123SM   H5G12273   0.466   3.965  10.749  0.3603 -0.0105 -0.8852
   9123SM   C6F12274   0.629   3.924  10.886 -1.4683 -0.4068 -0.7551
   9123SM   H6F12275   0.632   4.034  10.892  2.9733 -0.2771 -2.1307
   9123SM   H6G12276   0.728   3.910  10.839 -0.1176  0.5271  1.6553
   9123SM   C7F12277   0.629   3.862  11.024  0.2272  0.6757  0.3215
   9123SM   H7F12278   0.655   3.755  11.027  1.1224  0.8756  0.0289
   9123SM   H7G12279   0.531   3.887  11.072  0.0180 -0.9798  0.7958
   9123SM   C8F12280   0.728   3.935  11.119 -0.0278 -0.4214 -0.2354
   9123SM   H8F12281   0.681   4.035  11.138 -0.7202 -0.9484  0.9124
   9123SM   H8G12282   0.832   3.950  11.084  0.0257 -0.8178 -0.2427
   9123SM   C9F12283   0.728   3.877  11.267 -0.0099 -0.6637 -0.3932
   9123SM   H9F12284   0.820   3.815  11.275  0.5002 -0.0516 -1.3857
   9123SM   H9G12285   0.645   3.802  11.265  0.4355 -1.2167  0.9710
   9123SM  C10F12286   0.706   3.971  11.376  0.3160 -0.0350  0.0065
   9123SM  H10F12287   0.598   3.995  11.389 -0.0581 -1.1374 -0.8933
   9123SM  H10G12288   0.765   4.062  11.352 -0.9218  0.3756 -1.7076
   9123SM  C11F12289   0.741   3.913  11.516  0.2302  0.4816  0.0417
   9123SM  H11F12290   0.849   3.887  11.512  0.5464  1.2587  2.2169
   9123SM  H11G12291   0.681   3.821  11.531 -0.0528  0.6036 -0.3538
   9123SM  C12F12292   0.727   4.022  11.626 -0.5324 -0.3467  1.0297
   9123SM  H12F12293   0.640   4.087  11.606  1.1935  2.0502  0.8230
   9123SM  H12G12294   0.818   4.087  11.631 -2.1773  2.1955 -0.1152
   9123SM  C13F12295   0.715   3.961  11.762  0.2742 -0.1368  0.3537
   9123SM  H13F12296   0.620   3.904  11.753  0.0127  0.4465 -0.8790
   9123SM  H13G12297   0.692   4.048  11.826  1.3264 -0.0905  0.6953
   9123SM  C14F12298   0.834   3.872  11.805  0.1140 -0.2935 -0.3863
   9123SM  H14F12299   0.873   3.812  11.720  1.5564 -1.7199  1.1842
   9123SM  H14G12300   0.791   3.792  11.868 -1.5825  1.1845  0.4329
   9123SM  C15F12301   0.944   3.951  11.870  1.3580 -0.4826 -0.0828
   9123SM  H15F12302   0.907   4.021  11.948 -0.2618 -0.5400 -0.7539
   9123SM  H15G12303   0.962   4.023  11.787 -2.0069 -0.3006 -0.8010
   9123SM  C16F12304   1.068   3.880  11.920 -0.1648 -0.7734  0.3701
   9123SM  H16F12305   1.141   3.954  11.959  1.2716 -1.2527 -1.3001
   9123SM  H16G12306   1.113   3.829  11.832  1.0087 -0.4118  0.7453
   9123SM  C17F12307   1.034   3.768  12.014  0.1205 -0.1641  0.0876
   9123SM  H17F12308   1.131   3.728  12.051 -0.3212 -2.3976 -1.0311
   9123SM  H17G12309   0.974   3.692  11.960 -1.7883  0.8911  0.6526
   9123SM  C18F12310   0.943   3.821  12.133 -0.4988 -0.2220 -0.0383
   9123SM  H18F12311   0.836   3.814  12.103 -0.5427 -2.7916  0.5158
   9123SM  H18G12312   0.956   3.931  12.142 -0.9423 -0.1156 -0.5647
   9123SM  C19F12313   0.949   3.747  12.268 -0.1148 -0.6159 -0.5605
   9123SM  H19F12314   0.928   3.638  12.264 -1.8717 -0.3186  0.0534
   9123SM  H19G12315   0.867   3.794  12.325  1.4883 -0.4308  1.7732
   9123SM  C20F12316   1.090   3.761  12.336  0.0122  0.2184 -0.4183
   9123SM  H20F12317   1.116   3.868  12.355  0.8847 -0.1881  0.8778
   9123SM  H20G12318   1.157   3.717  12.258  2.1870  0.5584  1.1525
   9123SM  C21F12319   1.104   3.685  12.475 -0.5895 -0.8288  0.7430
   9123SM  H21F12320   1.212   3.700  12.497 -0.9086  0.9940  1.2204
   9123SM  H21G12321   1.096   3.575  12.463 -1.0169 -0.7085 -0.2115
   9123SM  C22F12322   1.026   3.736  12.591  0.0521  0.2721 -0.2768
   9123SM  H22F12323   1.054   3.674  12.679  1.0819 -0.2026 -0.9232
   9123SM  H22G12324   0.921   3.719  12.561 -0.3710  2.9017 -0.4878
   9123SM  C23F12325   1.043   3.885  12.634  0.6716 -0.2386  0.3666
   9123SM  H23F12326   0.978   3.905  12.722  0.4538  0.5685  0.0284
   9123SM  H23G12327   1.016   3.960  12.556  2.1314 -0.7260 -0.6426
   9123SM  H23H12328   1.146   3.908  12.668 -0.1221  1.4349  1.8127
   9223SM     N12329   5.385   1.000   9.527  0.5364  0.5284 -0.2610
   9223SM   C1512330   5.413   1.143   9.533 -0.7614  0.4397  0.0578
   9223SM  H15A12331   5.516   1.161   9.505 -0.6056 -1.1437 -0.4790
   9223SM  H15B12332   5.404   1.178   9.635 -0.1413 -2.5452  1.2235
   9223SM  H15C12333   5.357   1.211   9.469  1.0517  0.8372 -1.2003
   9223SM   C1412334   5.241   0.973   9.570  0.5896 -0.1669 -0.1370
   9223SM  H14A12335   5.234   1.010   9.672  1.2558 -1.9501  0.5918
   9223SM  H14B12336   5.225   0.867   9.568 -0.2840 -0.0304 -1.7005
   9223SM  H14C12337   5.177   1.026   9.501  2.4175  1.4431 -0.6969
   9223SM   C1312338   5.410   0.954   9.392 -0.8272  0.4234 -0.3492
   9223SM  H13A12339   5.513   0.939   9.362 -0.6905 -0.6566  0.5749
   9223SM  H13B12340   5.354   1.019   9.327 -1.1671  1.0488  0.5518
   9223SM  H13C12341   5.367   0.855   9.386 -1.3916  0.5491  1.1356
   9223SM   C1212342   5.481   0.918   9.617  0.4216  0.1747  0.0073
   9223SM  H12A12343   5.444   0.817   9.618  0.6333  0.0678  2.5512
   9223SM  H12B12344   5.473   0.955   9.718 -1.5193 -1.2548  0.4279
   9223SM   C1112345   5.628   0.922   9.588 -0.1517 -0.2057 -0.6984
   9223SM  H11A12346   5.666   1.024   9.564  0.6100 -0.3197 -0.0302
   9223SM  H11B12347   5.640   0.870   9.491 -0.4281 -1.2325 -0.2000
   9223SM     P12348   5.835   0.800   9.672 -0.0596  0.1253 -0.2694
   9223SM   O1312349   5.812   0.655   9.677  0.5079  0.4722 -0.0487
   9223SM   O1412350   5.897   0.854   9.546  0.1181  0.3641 -0.0485
   9223SM   O1112351   5.918   0.841   9.795  0.4254  0.3913  0.2964
   9223SM   O1212352   5.691   0.862   9.698  0.4551 -0.0893 -0.4628
   9223SM   C1S12353   5.868   0.932   9.896 -0.5729  0.3282  0.4977
   9223SM   H1S12354   5.805   1.008   9.845  0.3059 -0.1619 -1.4240
   9223SM   H1T12355   5.952   0.989   9.941 -1.2399  2.6246 -0.9753
   9223SM    NF12356   5.712   0.963  10.088 -0.6480 -0.5440 -0.7283
   9223SM   HNF12357   5.746   0.983  10.180 -6.3646  0.6000  1.6007
   9223SM   C2S12358   5.786   0.866  10.005 -0.0701 -0.0994 -0.4165
   9223SM   H2S12359   5.708   0.799   9.964  0.2803 -0.0939 -1.1126
   9223SM   C3S12360   5.891   0.781  10.088 -0.6771 -0.4693 -0.5009
   9223SM   H3S12361   5.964   0.855  10.127  0.9411 -1.8525 -0.7948
   9223SM    O312362   5.980   0.695  10.019 -0.2510  0.5606  0.3708
   9223SM   HO312363   5.964   0.720   9.928  2.3443  1.2131  0.0163
   9223SM   C4S12364   5.831   0.730  10.212  0.2445  0.6215 -0.0629
   9223SM   H4S12365   5.835   0.796  10.299 -0.3271  0.2412  0.2586
   9223SM   C5S12366   5.787   0.600  10.227  0.2400  0.1950  1.1028
   9223SM   H5S12367   5.788   0.538  10.137 -0.2189  1.6525  0.0583
   9223SM   C6S12368   5.733   0.538  10.354  0.0617  0.1038 -0.3482
   9223SM   H6S12369   5.746   0.428  10.351  1.3964  0.2662 -0.8207
   9223SM   H6T12370   5.622   0.540  10.348  0.0399 -0.8706 -0.3249
   9223SM   C7S12371   5.771   0.612  10.482 -0.1282 -0.2796  0.1852
   9223SM   H7S12372   5.742   0.719  10.473  0.8456 -0.0450 -0.2570
   9223SM   H7T12373   5.881   0.606  10.491 -0.0008  2.2860  1.0613
   9223SM   C8S12374   5.714   0.545  10.612  0.4395  0.7212 -0.2294
   9223SM   H8S12375   5.754   0.442  10.623  3.3471  1.8532  1.0059
   9223SM   H8T12376   5.603   0.547  10.608  0.4730  1.3360 -1.4779
   9223SM   C9S12377   5.746   0.621  10.740  0.0830 -0.5738 -0.4790
   9223SM   H9S12378   5.729   0.723  10.698 -1.0530 -0.8960 -0.8569
   9223SM   H9T12379   5.854   0.605  10.756 -0.0672  0.3939  2.0315
   9223SM  C10S12380   5.675   0.563  10.862  0.0062 -0.6991  0.6098
   9223SM  H10S12381   5.718   0.463  10.881 -0.5334 -1.8654 -3.3578
   9223SM  H10T12382   5.568   0.568  10.832  0.7450  1.8799 -2.2056
   9223SM  C11S12383   5.703   0.650  10.985  0.6294  0.4500  0.1110
   9223SM  H11S12384   5.675   0.757  10.972 -0.8844 -0.0673 -1.2581
   9223SM  H11T12385   5.811   0.638  11.006  0.5697  0.8015  0.6515
   9223SM  C12S12386   5.623   0.590  11.105 -0.0046 -0.1154  0.5204
   9223SM  H12S12387   5.671   0.496  11.139 -0.5830 -0.3678  0.6567
   9223SM  H12T12388   5.521   0.574  11.065  0.1450 -0.2039  0.1743
   9223SM  C13S12389   5.629   0.692  11.218 -0.0139  0.3032 -0.4452
   9223SM  H13S12390   5.606   0.797  11.188  0.6318  1.1511  1.8771
   9223SM  H13T12391   5.731   0.707  11.259 -0.6769  0.8921  1.0391
   9223SM  C14S12392   5.527   0.656  11.333 -0.1417 -0.4517  0.6548
   9223SM  H14S12393   5.438   0.612  11.282  2.0422 -2.9209 -1.3081
   9223SM  H14T12394   5.495   0.756  11.368 -0.6262 -0.3366 -0.0786
   9223SM  C15S12395   5.581   0.565  11.448  0.7568 -0.3511  0.2810
   9223SM  H15S12396   5.605   0.462  11.416  0.5313 -1.3880  3.1512
   9223SM  H15T12397   5.489   0.553  11.509 -0.4658  4.4354 -0.2254
   9223SM  C16S12398   5.694   0.626  11.526  0.1346  0.9320 -0.5664
   9223SM  H16S12399   5.779   0.644  11.456  0.9683  0.2975  0.2613
   9223SM  H16T12400   5.730   0.545  11.593 -0.8610  0.2714 -0.8003
   9223SM  C17S12401   5.652   0.757  11.594  0.5752 -0.8994 -0.3438
   9223SM  H17S12402   5.558   0.743  11.652 -0.5972  1.9149 -1.3307
   9223SM  H17T12403   5.628   0.830  11.513 -1.9242  0.5214  1.5388
   9223SM  C18S12404   5.760   0.809  11.684  0.2868  0.7477 -0.1719
   9223SM  H18S12405   5.792   0.752  11.773  1.0100  1.5939  0.1251
   9223SM  H18T12406   5.744   0.915  11.713 -0.6963  0.5873 -0.1102
   9223SM  H18U12407   5.852   0.809  11.621  1.3802 -2.4327  1.2237
   9223SM   C1F12408   5.628   1.062  10.052  0.2321  0.2380  0.2115
   9223SM    OF12409   5.601   1.083   9.937 -0.0147  0.0420 -0.5430
   9223SM   C2F12410   5.588   1.162  10.166  0.4129  0.3997 -0.2767
   9223SM   H2F12411   5.682   1.205  10.209  0.1810  0.4031  0.2297
   9223SM   H2G12412   5.539   1.105  10.247 -0.4588 -1.6920 -2.1799
   9223SM   C3F12413   5.486   1.274  10.140  0.3424  0.5351  0.0279
   9223SM   H3F12414   5.389   1.227  10.114  1.2918 -0.4457 -1.9088
   9223SM   H3G12415   5.519   1.318  10.043 -0.8983 -0.7340 -1.0146
   9223SM   C4F12416   5.466   1.363  10.259  0.1129  0.0826 -0.4907
   9223SM   H4F12417   5.559   1.423  10.268  0.5322 -0.0137 -3.2993
   9223SM   H4G12418   5.464   1.299  10.350  1.1515 -0.7070 -1.0097
   9223SM   C5F12419   5.343   1.455  10.239 -0.2892  0.2750  0.3266
   9223SM   H5F12420   5.253   1.390  10.243 -0.3757  0.4096  0.6229
   9223SM   H5G12421   5.331   1.493  10.136 -0.3008  1.2779  0.6882
   9223SM   C6F12422   5.324   1.561  10.348 -0.3536 -0.1985 -1.0147
   9223SM   H6F12423   5.222   1.605  10.344 -0.5368 -0.6440 -1.2511
   9223SM   H6G12424   5.400   1.642  10.336 -0.1811 -0.1843  0.1231
   9223SM   C7F12425   5.349   1.512  10.494 -0.4855  0.0261  0.2756
   9223SM   H7F12426   5.457   1.483  10.495 -0.6395 -0.6854 -0.9913
   9223SM   H7G12427   5.293   1.419  10.518  2.2753 -1.7843  0.1913
   9223SM   C8F12428   5.326   1.612  10.605  0.5526 -0.0992 -0.0313
   9223SM   H8F12429   5.222   1.648  10.594 -0.0251 -1.7951 -0.4851
   9223SM   H8G12430   5.386   1.705  10.597 -2.6826  2.0512 -1.4093
   9223SM   C9F12431   5.354   1.562  10.750  0.2099 -0.1127  0.5294
   9223SM   H9F12432   5.463   1.541  10.763  0.8139  0.9107 -2.1597
   9223SM   H9G12433   5.293   1.472  10.773 -1.4458  0.4973 -1.2238
   9223SM  C10F12434   5.308   1.667  10.849 -0.3778  1.1495  0.3735
   9223SM  H10F12435   5.197   1.665  10.850 -0.5222 -0.5568 -3.1891
   9223SM  H10G12436   5.336   1.769  10.816  0.8309  0.8290  0.3477
   9223SM  C11F12437   5.341   1.640  10.993 -0.2076  0.2703 -0.5205
   9223SM  H11F12438   5.449   1.659  11.010 -0.6434  3.2057 -0.4781
   9223SM  H11G12439   5.325   1.535  11.026  1.3221  0.1876  0.0428
   9223SM  C12F12440   5.267   1.729  11.100 -0.0417 -0.3159  0.8910
   9223SM  H12F12441   5.158   1.706  11.098 -0.0624 -0.3266 -1.6486
   9223SM  H12G12442   5.293   1.833  11.072 -1.7177 -0.1541 -0.2078
   9223SM  C13F12443   5.331   1.709  11.235 -0.4154  0.2690  0.9309
   9223SM  H13F12444   5.439   1.711  11.212 -1.0020  2.6350 -2.4039
   9223SM  H13G12445   5.304   1.613  11.285 -0.8283  1.2561  2.7092
   9223SM  C14F12446   5.294   1.822  11.330 -0.3066  0.0233 -0.7365
   9223SM  H14F12447   5.184   1.835  11.332 -0.6162 -2.2638  1.2551
   9223SM  H14G12448   5.347   1.914  11.295 -0.3895  0.7026  0.8363
   9223SM  C15F12449   5.342   1.786  11.468 -0.8052 -0.1131 -0.1187
   9223SM  H15F12450   5.449   1.756  11.464 -1.5104 -2.9055  0.1530
   9223SM  H15G12451   5.292   1.697  11.512 -1.0937 -0.1003 -0.4198
   9223SM  C16F12452   5.321   1.906  11.554  0.8166  0.0412 -0.7185
   9223SM  H16F12453   5.213   1.931  11.545  0.8183 -0.2857 -1.8560
   9223SM  H16G12454   5.380   1.994  11.520  0.0809  1.2835  1.1005
   9223SM  C17F12455   5.338   1.872  11.706 -0.1588  0.7918  0.3908
   9223SM  H17F12456   5.437   1.824  11.720 -0.9995 -1.2133 -0.2020
   9223SM  H17G12457   5.269   1.792  11.741  1.3784 -0.4431  0.6998
   9223SM  C18F12458   5.324   2.000  11.785 -0.5021 -0.4287 -0.2488
   9223SM  H18F12459   5.217   2.029  11.794 -0.6798 -1.6940  3.8749
   9223SM  H18G12460   5.373   2.083  11.731 -2.3151  0.2373 -0.9320
   9223SM  C19F12461   5.385   1.987  11.925 -0.7675  0.0930  0.1927
   9223SM  H19F12462   5.495   1.977  11.912 -1.0620  0.1510 -2.9220
   9223SM  H19G12463   5.347   1.900  11.983 -1.6157  1.1877  1.3670
   9223SM  C20F12464   5.345   2.101  12.014 -0.1584 -0.0670 -0.8444
   9223SM  H20F12465   5.235   2.109  12.026 -0.3892 -0.9885 -2.0916
   9223SM  H20G12466   5.386   2.192  11.965  1.2701  0.0031  0.4147
   9223SM  C21F12467   5.399   2.090  12.156 -0.1773  0.0700  0.0822
   9223SM  H21F12468   5.509   2.104  12.151 -0.2128  0.0536 -0.9622
   9223SM  H21G12469   5.368   1.992  12.198 -2.2904 -0.1359 -1.7842
   9223SM  C22F12470   5.347   2.202  12.249 -0.1044  0.1353  0.1181
   9223SM  H22F12471   5.243   2.221  12.216 -1.1869 -0.7701  2.7418
   9223SM  H22G12472   5.412   2.291  12.235 -0.0316  0.3100  1.4026
   9223SM  C23F12473   5.341   2.163  12.394  0.5590 -0.0713  1.1957
   9223SM  H23F12474   5.265   2.083  12.411  1.4018 -0.7894  1.6589
   9223SM  H23G12475   5.319   2.246  12.464  0.8647  0.5708  0.5453
   9223SM  H23H12476   5.443   2.128  12.418  1.1150  1.8727  1.8268
   9323SM     N12477   0.654   2.740  10.655 -0.0591  0.8740  0.5094
   9323SM   C1512478   0.655   2.725  10.801  0.4841 -0.3713  0.2674
   9323SM  H15A12479   0.692   2.815  10.847  4.0528 -0.6708 -1.5941
   9323SM  H15B12480   0.723   2.647  10.834 -2.3406 -1.5443  3.9970
   9323SM  H15C12481   0.562   2.690  10.843 -0.2816 -1.5525 -2.2105
   9323SM   C1412482   0.608   2.601  10.598 -0.1432  0.4722  0.5653
   9323SM  H14A12483   0.506   2.597  10.634 -0.6540  0.4889 -0.8366
   9323SM  H14B12484   0.672   2.522  10.635 -0.6722 -0.0027  0.4736
   9323SM  H14C12485   0.603   2.608  10.491 -0.2116 -0.6067  0.4846
   9323SM   C1312486   0.564   2.848  10.620 -0.2381  0.2562  0.1374
   9323SM  H13A12487   0.599   2.938  10.668  0.6851  0.8631 -1.5544
   9323SM  H13B12488   0.459   2.828  10.634 -0.6819 -0.9243 -3.6103
   9323SM  H13C12489   0.571   2.871  10.514 -0.9895  3.0138  0.6162
   9323SM   C1212490   0.795   2.774  10.610 -0.1120 -0.4719 -0.6611
   9323SM  H12A12491   0.856   2.695  10.653  1.5460  1.5667  0.9755
   9323SM  H12B12492   0.836   2.864  10.654  1.4077 -1.2871 -0.3227
   9323SM   C1112493   0.816   2.795  10.455  0.3210  0.1724 -0.3921
   9323SM  H11A12494   0.761   2.706  10.416 -1.1253  0.0903  1.6161
   9323SM  H11B12495   0.924   2.796  10.431  0.9635  0.8573  2.1528
   9323SM     P12496   0.827   3.058  10.417 -0.1061 -0.0469 -0.1368
   9323SM   O1312497   0.939   3.046  10.323 -0.4637  0.0550 -0.3868
   9323SM   O1412498   0.723   3.155  10.376  0.3756  0.0391  0.2069
   9323SM   O1112499   0.886   3.075  10.567  0.4900 -0.2442  0.5063
   9323SM   O1212500   0.754   2.914  10.413 -0.5120  0.4821 -0.1014
   9323SM   C1S12501   1.031   3.069  10.575  0.2214 -0.0375 -0.0464
   9323SM   H1S12502   1.074   3.150  10.512  0.8939 -0.6697 -0.4077
   9323SM   H1T12503   1.064   2.969  10.541  1.2082  0.3932 -0.3741
   9323SM    NF12504   1.232   3.085  10.715  0.0747 -0.0016  0.3388
   9323SM   HNF12505   1.267   3.010  10.770 -0.8045 -0.4568  0.3044
   9323SM   C2S12506   1.088   3.098  10.718  0.0070  0.2636 -0.3167
   9323SM   H2S12507   1.063   3.203  10.747 -0.3289  0.6636 -1.9547
   9323SM   C3S12508   1.022   3.007  10.826 -0.2799  0.1485 -0.5354
   9323SM   H3S12509   1.046   2.900  10.810 -0.1392  0.0027  0.5892
   9323SM    O312510   0.874   3.004  10.824 -0.2433  0.0178 -0.4373
   9323SM   HO312511   0.851   3.066  10.755  0.2201  0.2938 -0.3450
   9323SM   C4S12512   1.079   3.047  10.964 -0.1538 -0.5659 -0.4138
   9323SM   H4S12513   1.169   2.989  10.988 -1.4331 -1.5892  2.2455
   9323SM   C5S12514   1.027   3.142  11.042 -0.1343 -0.1234  1.1091
   9323SM   H5S12515   0.932   3.190  11.015 -0.7707 -0.4848  2.5749
   9323SM   C6S12516   1.075   3.197  11.171  0.1065 -0.2561 -0.6456
   9323SM   H6S12517   1.009   3.150  11.247 -0.4491 -0.5245 -1.2802
   9323SM   H6T12518   1.067   3.308  11.178  0.9279 -0.2494  0.3061
   9323SM   C7S12519   1.219   3.161  11.214 -0.6112  0.1815  0.0669
   9323SM   H7S12520   1.294   3.182  11.134 -2.3602  2.2360 -1.1419
   9323SM   H7T12521   1.220   3.054  11.242  3.3638  0.3438  1.0771
   9323SM   C8S12522   1.265   3.245  11.332 -0.0351 -0.6268  0.3364
   9323SM   H8S12523   1.176   3.266  11.396  0.8521  1.5583  0.9571
   9323SM   H8T12524   1.297   3.343  11.289  0.0297  0.0271  1.8309
   9323SM   C9S12525   1.390   3.188  11.403  0.4829 -0.0772 -0.4223
   9323SM   H9S12526   1.478   3.190  11.335 -0.4583  0.8422 -1.6708
   9323SM   H9T12527   1.354   3.085  11.426 -0.9515  0.4648 -0.1511
   9323SM  C10S12528   1.419   3.252  11.539 -0.1664  0.6095  0.1310
   9323SM  H10S12529   1.327   3.246  11.600 -1.1983 -1.3976 -1.4944
   9323SM  H10T12530   1.441   3.359  11.519  1.9731  0.1748 -0.0546
   9323SM  C11S12531   1.545   3.195  11.607  0.0502  0.6100  0.1276
   9323SM  H11S12532   1.640   3.195  11.550  1.9417 -2.4101  2.9379
   9323SM  H11T12533   1.503   3.092  11.617 -0.5042  0.5014 -2.5719
   9323SM  C12S12534   1.579   3.249  11.747  0.0374  0.0612 -0.3523
   9323SM  H12S12535   1.482   3.236  11.800 -1.1311  0.4373 -2.2860
   9323SM  H12T12536   1.600   3.358  11.743 -1.4644  0.4750  1.6135
   9323SM  C13S12537   1.691   3.179  11.818  0.0329  1.1167  0.4085
   9323SM  H13S12538   1.777   3.182  11.749  0.4811  2.0185  0.9769
   9323SM  H13T12539   1.662   3.074  11.838 -1.5985  1.5916  0.7424
   9323SM  C14S12540   1.737   3.247  11.945 -0.8325  0.2229 -0.1548
   9323SM  H14S12541   1.658   3.230  12.022 -2.0751  1.1228 -1.2012
   9323SM  H14T12542   1.726   3.354  11.921 -3.7206 -0.0486 -0.3991
   9323SM  C15S12543   1.874   3.214  12.002 -0.3308  0.2956 -0.3434
   9323SM  H15S12544   1.901   3.108  11.983 -0.2232 -0.2967  2.6936
   9323SM  H15T12545   1.952   3.267  11.944  0.2221 -1.3750 -1.1847
   9323SM  C16S12546   1.894   3.252  12.150 -0.1168 -0.3662 -0.3471
   9323SM  H16S12547   1.812   3.209  12.212  0.9475 -1.4909  0.3469
   9323SM  H16T12548   1.878   3.361  12.146  0.6083 -0.2738 -0.8058
   9323SM  C17S12549   2.029   3.211  12.208 -0.0453  0.1397 -0.6659
   9323SM  H17S12550   2.108   3.240  12.136 -0.5934 -0.5000 -1.5494
   9323SM  H17T12551   2.035   3.101  12.220  2.8263  0.3391  0.4925
   9323SM  C18S12552   2.056   3.277  12.348  0.7340  0.2775  0.3007
   9323SM  H18S12553   2.163   3.277  12.380  1.6431 -0.1454 -2.4161
   9323SM  H18T12554   1.991   3.236  12.428  0.5253 -0.2887 -0.1554
   9323SM  H18U12555   2.026   3.383  12.341  0.2803  0.1674  0.5697
   9323SM   C1F12556   1.317   3.163  10.650 -0.0542  0.0471  0.4419
   9323SM    OF12557   1.283   3.275  10.611  0.4483  0.5223 -0.0355
   9323SM   C2F12558   1.459   3.103  10.621 -0.0556 -0.9609  0.1461
   9323SM   H2F12559   1.486   3.137  10.519  0.7032 -0.0671  0.6367
   9323SM   H2G12560   1.448   2.992  10.630 -0.3071 -0.9272  0.2792
   9323SM   C3F12561   1.571   3.153  10.710 -0.0552 -0.0748 -0.2359
   9323SM   H3F12562   1.581   3.261  10.686  1.6590 -0.1259  0.1195
   9323SM   H3G12563   1.665   3.103  10.678  0.4387  0.4213  0.3910
   9323SM   C4F12564   1.543   3.114  10.860  0.5780 -0.9858  0.2311
   9323SM   H4F12565   1.467   3.033  10.853 -0.6555  0.2423 -1.4639
   9323SM   H4G12566   1.492   3.200  10.908  0.7761 -0.4347 -0.5315
   9323SM   C5F12567   1.665   3.078  10.938  0.1080 -0.2263 -0.1675
   9323SM   H5F12568   1.738   3.162  10.940  1.4628 -1.3585 -0.7020
   9323SM   H5G12569   1.710   2.991  10.886 -0.3966 -2.0909  2.3828
   9323SM   C6F12570   1.645   3.028  11.084 -0.0977 -0.8063  0.1870
   9323SM   H6F12571   1.591   3.104  11.145  0.8846  0.5974 -0.6263
   9323SM   H6G12572   1.746   3.015  11.128  1.4021 -1.7166 -3.1926
   9323SM   C7F12573   1.583   2.892  11.074  0.2246  0.2528 -0.4151
   9323SM   H7F12574   1.665   2.821  11.049 -1.0001 -1.9046  1.2929
   9323SM   H7G12575   1.502   2.875  10.999  0.6355 -1.6919 -0.4817
   9323SM   C8F12576   1.529   2.848  11.205  0.5663  0.4808  0.1547
   9323SM   H8F12577   1.483   2.748  11.194 -0.6288  0.9671  0.5174
   9323SM   H8G12578   1.440   2.910  11.229  1.6243  1.9311  0.4813
   9323SM   C9F12579   1.625   2.859  11.323  0.5139 -0.3172  0.3877
   9323SM   H9F12580   1.637   2.967  11.349 -4.4824 -0.0784  3.0443
   9323SM   H9G12581   1.720   2.813  11.288  1.1162  1.8067 -0.9751
   9323SM  C10F12582   1.573   2.783  11.446  0.0014  0.1887  0.1454
   9323SM  H10F12583   1.542   2.684  11.406 -0.1291  0.5194 -0.5920
   9323SM  H10G12584   1.491   2.845  11.489  2.5846  2.7474  1.7637
   9323SM  C11F12585   1.679   2.771  11.562  0.4778 -0.2312 -0.0385
   9323SM  H11F12586   1.740   2.861  11.585  1.5546 -0.8659 -0.3513
   9323SM  H11G12587   1.749   2.695  11.522 -0.4184  0.2083 -2.6802
   9323SM  C12F12588   1.612   2.709  11.685  1.0149  0.4063  0.1401
   9323SM  H12F12589   1.562   2.613  11.660  1.7542 -0.1361  0.6851
   9323SM  H12G12590   1.539   2.787  11.713  0.4989 -0.0901  0.1935
   9323SM  C13F12591   1.706   2.685  11.812 -1.0346  0.1069  0.0745
   9323SM  H13F12592   1.759   2.780  11.837 -2.2251  0.3608  1.7568
   9323SM  H13G12593   1.777   2.602  11.790  2.1809  1.9520  2.5644
   9323SM  C14F12594   1.631   2.641  11.939 -0.2073 -0.3747  0.4201
   9323SM  H14F12595   1.562   2.556  11.927  0.1875 -0.4484 -1.8732
   9323SM  H14G12596   1.561   2.724  11.961 -0.2761 -0.6802  1.3866
   9323SM  C15F12597   1.728   2.628  12.056 -0.1606 -0.4468 -0.4651
   9323SM  H15F12598   1.798   2.714  12.053  1.7691 -1.9346 -0.4698
   9323SM  H15G12599   1.805   2.552  12.030  0.9038  0.6234 -0.5196
   9323SM  C16F12600   1.686   2.596  12.198 -0.6164  0.6205  0.3015
   9323SM  H16F12601   1.628   2.501  12.192  0.7493 -0.1853 -0.6613
   9323SM  H16G12602   1.629   2.679  12.245  1.3955  1.0950  2.0504
   9323SM  C17F12603   1.811   2.579  12.285 -0.1027 -0.3755  0.2134
   9323SM  H17F12604   1.861   2.678  12.287  1.8121 -1.3160  1.6216
   9323SM  H17G12605   1.882   2.512  12.233  1.0818  0.1803  1.0919
   9323SM  C18F12606   1.778   2.519  12.425 -0.0192 -0.3972  0.2593
   9323SM  H18F12607   1.714   2.580  12.493  0.7892  0.7762  0.0021
   9323SM  H18G12608   1.878   2.527  12.473  1.2004 -2.5102 -1.7193
   9323SM  C19F12609   1.742   2.375  12.445  0.1507  0.2560  0.4862
   9323SM  H19F12610   1.803   2.315  12.374 -0.0093 -0.9624  1.3401
   9323SM  H19G12611   1.639   2.356  12.409  0.4426 -0.3747 -0.0379
   9323SM  C20F12612   1.773   2.316  12.589 -0.3718 -0.4144 -0.1304
   9323SM  H20F12613   1.701   2.363  12.659  0.1144  2.1547 -1.2569
   9323SM  H20G12614   1.875   2.355  12.609  0.4524 -0.8289 -3.1056
   9323SM  C21F12615   1.754   2.165  12.589 -0.1297  0.2169  0.1341
   9323SM  H21F12616   1.800   2.130  12.494 -0.1542  1.3731 -0.3120
   9323SM  H21G12617   1.647   2.141  12.572  0.5363 -1.3644 -2.5192
   9323SM  C22F12618   1.812   2.100  12.713  0.4495  0.7614 -0.3497
   9323SM  H22F12619   1.921   2.119  12.723  1.2303 -1.6671 -2.9936
   9323SM  H22G12620   1.801   1.990  12.700  2.5316  0.5840 -1.0457
   9323SM  C23F12621   1.733   2.134  12.838 -0.0017 -0.6113 -0.1069
   9323SM  H23F12622   1.738   2.244  12.851 -4.3646 -0.3797  1.3131
   9323SM  H23G12623   1.766   2.069  12.922  1.9809  1.3682  0.7669
   9323SM  H23H12624   1.627   2.107  12.818 -0.7151  1.0468  1.2160
   9423SM     N12625   6.145   5.706   9.386  0.2426  0.0767  0.0167
   9423SM   C1512626   6.068   5.714   9.514 -0.5853 -0.1433  0.5815
   9423SM  H15A12627   6.088   5.810   9.560  2.9745 -0.6826  0.4106
   9423SM  H15B12628   6.114   5.646   9.585  1.5792  1.1533  0.5100
   9423SM  H15C12629   5.963   5.691   9.509 -0.2405 -1.4462 -2.4554
   9423SM   C1412630   6.129   5.569   9.325  0.8008  0.4411  0.7096
   9423SM  H14A12631   6.026   5.541   9.307  1.0936 -0.3246  0.1642
   9423SM  H14B12632   6.174   5.484   9.374  2.6080  0.2514 -1.1478
   9423SM  H14C12633   6.180   5.574   9.230 -1.4018 -1.8676 -0.7216
   9423SM   C1312634   6.081   5.800   9.282  0.3682  0.4750  0.1464
   9423SM  H13A12635   6.128   5.787   9.185 -1.5350  1.3946 -0.9388
   9423SM  H13B12636   6.095   5.902   9.315  2.0752  0.0734  0.7981
   9423SM  H13C12637   5.974   5.786   9.278  0.4643 -0.7342  1.2347
   9423SM   C1212638   6.295   5.733   9.406 -0.0629  0.0178 -0.8218
   9423SM  H12A12639   6.344   5.673   9.482  2.0786  1.0530 -1.3238
   9423SM  H12B12640   6.308   5.834   9.442 -0.7099 -0.1253 -0.1645
   9423SM   C1112641   6.387   5.718   9.281  0.2330 -0.6747  0.0043
   9423SM  H11A12642   6.373   5.615   9.241 -0.0125 -0.7386  0.2548
   9423SM  H11B12643   6.491   5.733   9.316  0.0370  0.8627 -0.0005
   9423SM     P12644   6.417   5.960   9.164  0.3283 -0.1372 -0.4872
   9423SM   O1312645   6.530   5.965   9.077  0.1138  0.7043  0.1482
   9423SM   O1412646   6.313   6.065   9.143 -0.3651 -0.0961 -0.3760
   9423SM   O1112647   6.480   5.983   9.304 -0.3741  0.1941 -0.0334
   9423SM   O1212648   6.354   5.816   9.180 -0.2935  0.6852  0.1762
   9423SM   C1S12649   6.406   6.065   9.406  0.3698 -0.9174  0.1160
   9423SM   H1S12650   6.295   6.055   9.399  0.5139 -1.5905 -2.2014
   9423SM   H1T12651   6.437   6.171   9.392  0.4394 -1.2834 -3.4956
   9423SM    NF12652   6.390   6.125   9.645 -0.1249 -0.5700 -0.1428
   9423SM   HNF12653   6.426   6.218   9.652 -0.5484 -0.4631  0.7689
   9423SM   C2S12654   6.452   6.034   9.553  0.1167  0.2417 -0.0170
   9423SM   H2S12655   6.424   5.932   9.587  0.8595 -0.9351 -2.6829
   9423SM   C3S12656   6.608   6.033   9.569 -0.9700  0.0918 -0.0550
   9423SM   H3S12657   6.644   6.133   9.537 -0.9373  0.1541  0.1781
   9423SM    O312658   6.678   5.958   9.465  1.1484 -0.6785 -0.4314
   9423SM   HO312659   6.607   5.947   9.402 -0.7856  0.1008  1.5081
   9423SM   C4S12660   6.645   5.989   9.704  0.2118 -0.3041  0.3352
   9423SM   H4S12661   6.624   6.057   9.788 -1.3907  1.5352 -1.4569
   9423SM   C5S12662   6.702   5.871   9.744 -0.7465 -0.1661 -0.0134
   9423SM   H5S12663   6.720   5.800   9.662 -0.9661  0.1931 -0.3777
   9423SM   C6S12664   6.730   5.821   9.880  0.0991 -0.0734 -0.4801
   9423SM   H6S12665   6.807   5.741   9.874 -1.3490 -1.5489 -0.2720
   9423SM   H6T12666   6.638   5.765   9.909  0.6632 -0.8201 -0.1023
   9423SM   C7S12667   6.751   5.918   9.988 -0.0339 -0.0578  0.3141
   9423SM   H7S12668   6.662   5.982  10.007  1.0516  2.2791 -1.8635
   9423SM   H7T12669   6.826   5.995   9.959 -0.9477  0.5472 -0.4958
   9423SM   C8S12670   6.791   5.854  10.129 -0.3040 -0.2780 -0.0623
   9423SM   H8S12671   6.889   5.806  10.108 -0.6673 -0.5670 -1.1070
   9423SM   H8T12672   6.712   5.786  10.167  0.7650 -0.0731  2.8664
   9423SM   C9S12673   6.809   5.957  10.236 -0.1808 -0.0276 -0.0151
   9423SM   H9S12674   6.726   6.029  10.252  1.9405  2.3869  0.8836
   9423SM   H9T12675   6.894   6.025  10.213  0.2051 -1.0167 -1.7112
   9423SM  C10S12676   6.841   5.900  10.374 -0.0546  0.7470 -0.2291
   9423SM  H10S12677   6.933   5.838  10.368  0.4430  1.5503 -1.3317
   9423SM  H10T12678   6.758   5.830  10.399  0.2275  0.3757 -0.3086
   9423SM  C11S12679   6.854   5.999  10.491  0.4630 -0.2348 -0.6252
   9423SM  H11S12680   6.765   6.063  10.499  1.2278  0.6367  1.5110
   9423SM  H11T12681   6.939   6.064  10.463 -0.4591  1.2315 -0.0837
   9423SM  C12S12682   6.855   5.928  10.628 -0.2149  0.2948 -0.1771
   9423SM  H12S12683   6.926   5.843  10.628 -1.1047 -0.4678 -0.8604
   9423SM  H12T12684   6.748   5.902  10.636 -0.1899  0.1542 -0.3121
   9423SM  C13S12685   6.908   6.031  10.732 -0.1347 -0.4061  0.1458
   9423SM  H13S12686   6.835   6.115  10.730  0.4958  0.2339  1.9717
   9423SM  H13T12687   7.006   6.071  10.698  0.7987 -2.3683  0.3718
   9423SM  C14S12688   6.922   5.990  10.875  0.2584 -0.6109 -0.3643
   9423SM  H14S12689   7.011   5.926  10.891 -1.3057 -2.7394  0.1609
   9423SM  H14T12690   6.833   5.933  10.907 -0.5667  0.8922  0.1481
   9423SM  C15S12691   6.916   6.107  10.971 -0.5926 -0.0443 -0.5108
   9423SM  H15S12692   6.817   6.155  10.956  0.2836  1.6302 -1.2922
   9423SM  H15T12693   6.985   6.189  10.939  1.5408 -2.3233 -2.1410
   9423SM  C16S12694   6.933   6.082  11.119 -0.0946  0.2513 -0.1244
   9423SM  H16S12695   6.850   6.014  11.148  0.0397 -0.0659 -0.4661
   9423SM  H16T12696   6.911   6.175  11.175 -0.9057 -0.8141  1.4083
   9423SM  C17S12697   7.074   6.034  11.166  0.3033 -0.9133 -0.0572
   9423SM  H17S12698   7.092   5.943  11.105 -1.2220 -0.1043 -1.8127
   9423SM  H17T12699   7.067   6.010  11.275  2.3255  0.7706  0.5062
   9423SM  C18S12700   7.176   6.154  11.173  0.0651  0.6076 -0.0019
   9423SM  H18S12701   7.266   6.121  11.229 -1.2349 -0.8274  1.3429
   9423SM  H18T12702   7.136   6.232  11.242 -2.5397 -0.5343 -0.1236
   9423SM  H18U12703   7.210   6.181  11.071 -0.7485  1.7508  0.0191
   9423SM   C1F12704   6.262   6.113   9.680  0.4575 -0.6503  0.1782
   9423SM    OF12705   6.181   6.030   9.632  0.3808  0.5651  0.6437
   9423SM   C2F12706   6.226   6.234   9.760  0.2482 -0.4090 -0.3436
   9423SM   H2F12707   6.208   6.327   9.701  0.9471 -0.3162 -0.4222
   9423SM   H2G12708   6.305   6.253   9.836 -2.0284  1.9087  1.6793
   9423SM   C3F12709   6.100   6.223   9.843  0.0529 -0.2230 -0.1855
   9423SM   H3F12710   6.098   6.137   9.913  1.6859  0.2173  0.4519
   9423SM   H3G12711   6.022   6.206   9.766 -0.0062  1.2517 -0.4903
   9423SM   C4F12712   6.079   6.352   9.920  0.3732 -0.5482 -0.7797
   9423SM   H4F12713   6.068   6.437   9.849  1.2940  0.1946 -0.0503
   9423SM   H4G12714   6.160   6.378   9.992 -1.5765  0.5494  1.1519
   9423SM   C5F12715   5.966   6.331  10.015  0.4579  0.0881  0.2623
   9423SM   H5F12716   6.000   6.274  10.104  0.4220  0.2234  0.3643
   9423SM   H5G12717   5.885   6.282   9.958  2.2771 -0.2368 -2.1819
   9423SM   C6F12718   5.906   6.467  10.060  0.2036  0.0184 -0.1480
   9423SM   H6F12719   5.816   6.446  10.121  0.5180  1.1880  0.7478
   9423SM   H6G12720   5.883   6.527   9.969 -1.4909  0.6300  0.6496
   9423SM   C7F12721   5.991   6.564  10.136  0.1742 -0.3782  0.4035
   9423SM   H7F12722   5.916   6.638  10.173 -0.5926 -0.8906 -0.0989
   9423SM   H7G12723   6.060   6.623  10.071 -0.3528  2.0749  1.9476
   9423SM   C8F12724   6.042   6.506  10.270  0.1042  0.0342 -0.0518
   9423SM   H8F12725   6.090   6.593  10.319 -1.7500  0.4441  1.1098
   9423SM   H8G12726   6.112   6.426  10.237  0.2120  0.4904 -0.9740
   9423SM   C9F12727   5.936   6.439  10.356 -0.0568  0.5169 -0.2407
   9423SM   H9F12728   5.895   6.351  10.302  1.4301  0.5218 -1.4339
   9423SM   H9G12729   5.855   6.513  10.369  0.2121  0.5167  1.8959
   9423SM  C10F12730   5.995   6.390  10.487 -0.3250  0.1094  0.5400
   9423SM  H10F12731   6.078   6.320  10.463  0.6641  1.2371  0.5723
   9423SM  H10G12732   5.914   6.334  10.539  0.2119  0.0683  1.3615
   9423SM  C11F12733   6.033   6.498  10.582  0.2381 -0.0150 -0.6458
   9423SM  H11F12734   5.941   6.561  10.585  0.0733 -0.2617 -0.5470
   9423SM  H11G12735   6.111   6.565  10.540  0.2381 -0.3274 -1.1601
   9423SM  C12F12736   6.064   6.447  10.727 -0.0059  0.2613  0.3271
   9423SM  H12F12737   6.158   6.388  10.724 -0.7439 -0.9376  0.3651
   9423SM  H12G12738   5.982   6.376  10.751  0.5444  0.1387  1.9146
   9423SM  C13F12739   6.078   6.555  10.836 -0.3295  0.2069  0.3178
   9423SM  H13F12740   6.014   6.640  10.806  2.3478  2.2064 -0.0804
   9423SM  H13G12741   6.177   6.605  10.827 -1.1896  1.9013 -0.0046
   9423SM  C14F12742   6.056   6.499  10.982 -0.2154  0.1048 -0.7507
   9423SM  H14F12743   6.129   6.416  10.991  0.4220  0.7736  0.5338
   9423SM  H14G12744   5.953   6.461  10.998 -0.2680  0.9274  1.1105
   9423SM  C15F12745   6.106   6.588  11.095 -0.0864 -0.0499 -0.1229
   9423SM  H15F12746   6.057   6.687  11.081 -0.3954 -0.1951 -0.0710
   9423SM  H15G12747   6.212   6.603  11.063 -0.5571  0.5964 -1.4557
   9423SM  C16F12748   6.081   6.535  11.234  0.2391  0.2478  0.0580
   9423SM  H16F12749   6.123   6.432  11.234 -0.9458 -0.2717  1.5220
   9423SM  H16G12750   5.974   6.531  11.264  0.0539 -1.8683 -0.6854
   9423SM  C17F12751   6.148   6.608  11.342  0.1693  0.1263 -0.0504
   9423SM  H17F12752   6.105   6.710  11.343 -0.5692 -0.1430 -1.4006
   9423SM  H17G12753   6.250   6.622  11.300  1.0184  2.8846  2.6235
   9423SM  C18F12754   6.154   6.543  11.479 -0.2310  0.7700 -0.0709
   9423SM  H18F12755   6.139   6.434  11.489  1.0954  0.6622  1.0461
   9423SM  H18G12756   6.072   6.596  11.534 -0.2461  1.2864 -0.5856
   9423SM  C19F12757   6.280   6.567  11.560  0.4848  0.7228 -0.8842
   9423SM  H19F12758   6.293   6.678  11.561  0.6306  0.7675  1.9380
   9423SM  H19G12759   6.367   6.536  11.499  1.3561 -0.8681  1.0328
   9423SM  C20F12760   6.276   6.510  11.703 -0.2697  0.1311  0.1599
   9423SM  H20F12761   6.296   6.401  11.700  0.0941  0.1916  0.2772
   9423SM  H20G12762   6.174   6.535  11.740 -0.7810  2.3885 -2.3677
   9423SM  C21F12763   6.382   6.574  11.793  0.3120 -0.4812  0.3143
   9423SM  H21F12764   6.370   6.685  11.799  2.3455 -0.2919  3.5404
   9423SM  H21G12765   6.473   6.547  11.736  0.1921 -2.0418  0.8136
   9423SM  C22F12766   6.392   6.524  11.938  0.2338  0.3403  0.4947
   9423SM  H22F12767   6.311   6.566  12.001  1.6038  0.0566  2.5230
   9423SM  H22G12768   6.492   6.557  11.975 -0.2193  1.3904  0.8006
   9423SM  C23F12769   6.374   6.370  11.956  0.6120 -0.6078 -0.0763
   9423SM  H23F12770   6.274   6.329  11.932  0.3659  0.2911 -0.6313
   9423SM  H23G12771   6.397   6.348  12.062  1.5944  0.1178 -0.1265
   9423SM  H23H12772   6.444   6.315  11.890 -1.4949 -2.0892 -1.1859
   9523SM     N12773   2.198   1.412   9.336  0.4487  0.2622  0.2479
   9523SM   C1512774   2.162   1.309   9.442 -0.2115  0.8626 -0.1082
   9523SM  H15A12775   2.233   1.229   9.428 -0.0431  0.6206  1.8724
   9523SM  H15B12776   2.056   1.285   9.434 -0.3597  1.5724 -0.3258
   9523SM  H15C12777   2.187   1.341   9.541  4.2255 -2.7263  0.2489
   9523SM   C1412778   2.186   1.355   9.194  0.0171 -1.0793 -0.1183
   9523SM  H14A12779   2.086   1.320   9.171 -0.8144  1.1892 -0.2084
   9523SM  H14B12780   2.260   1.276   9.190  3.1108  1.4080  2.3529
   9523SM  H14C12781   2.226   1.429   9.126 -0.2889 -1.1364 -0.3664
   9523SM   C1312782   2.090   1.517   9.347 -0.6062  0.2413  0.6135
   9523SM  H13A12783   2.121   1.593   9.277 -2.3740  0.3556 -0.0977
   9523SM  H13B12784   2.088   1.564   9.444  0.9256  0.4007  0.5851
   9523SM  H13C12785   1.998   1.465   9.326 -1.0512  0.4421  1.9614
   9523SM   C1212786   2.340   1.461   9.355  1.0726  0.2346  1.0602
   9523SM  H12A12787   2.405   1.384   9.317  0.0578 -0.5514  0.8704
   9523SM  H12B12788   2.352   1.493   9.457 -0.6660  5.0232  0.0736
   9523SM   C1112789   2.376   1.587   9.281 -0.8427  0.4014  0.1302
   9523SM  H11A12790   2.342   1.564   9.178 -2.3799 -3.8916  1.3872
   9523SM  H11B12791   2.485   1.600   9.265 -1.1104  0.1467 -2.2917
   9523SM     P12792   2.357   1.773   9.459 -0.1974 -0.0161 -0.0914
   9523SM   O1312793   2.358   1.918   9.429 -0.4261  0.3335  0.5861
   9523SM   O1412794   2.270   1.728   9.571 -0.1242 -0.3864  0.0760
   9523SM   O1112795   2.503   1.726   9.490  0.5469 -0.1076  0.2078
   9523SM   O1212796   2.312   1.704   9.331  0.4391  0.1319 -0.0787
   9523SM   C1S12797   2.584   1.779   9.597 -0.5440 -0.1660  0.6510
   9523SM   H1S12798   2.551   1.881   9.624 -1.8128 -0.7070  1.2489
   9523SM   H1T12799   2.691   1.796   9.573 -0.1087 -1.6154  1.4193
   9523SM    NF12800   2.631   1.760   9.837  0.0679 -0.5297 -0.7943
   9523SM   HNF12801   2.726   1.790   9.837 -0.2442  0.4864 -0.0138
   9523SM   C2S12802   2.587   1.688   9.721 -0.2594 -0.2327 -0.5255
   9523SM   H2S12803   2.482   1.652   9.725 -1.1975  1.4998 -4.5111
   9523SM   C3S12804   2.677   1.559   9.689 -0.6668  0.0594  0.0660
   9523SM   H3S12805   2.782   1.594   9.679 -1.8784  4.1660 -0.0389
   9523SM    O312806   2.637   1.475   9.579  0.0685 -0.6738 -0.1983
   9523SM   HO312807   2.596   1.533   9.515 -0.0974 -1.3128 -0.6759
   9523SM   C4S12808   2.660   1.474   9.814 -0.6952  0.5147  0.2341
   9523SM   H4S12809   2.558   1.436   9.826 -1.2901  1.6186 -0.9861
   9523SM   C5S12810   2.749   1.473   9.913  0.3095  0.1789 -0.4419
   9523SM   H5S12811   2.839   1.533   9.895  1.9309 -2.2064 -0.6529
   9523SM   C6S12812   2.740   1.409  10.049  0.1107  0.6753  0.1604
   9523SM   H6S12813   2.737   1.497  10.117 -1.3712 -0.4356  1.5873
   9523SM   H6T12814   2.827   1.343  10.065 -1.0485 -0.9099  0.1131
   9523SM   C7S12815   2.618   1.321  10.074 -0.9354 -0.0469  0.3858
   9523SM   H7S12816   2.611   1.240   9.998 -2.1271  0.6292 -0.2552
   9523SM   H7T12817   2.531   1.389  10.061 -0.0967  0.7836 -1.1099
   9523SM   C8S12818   2.618   1.262  10.219  0.3135  0.7337 -0.3457
   9523SM   H8S12819   2.519   1.212  10.228 -0.2612  1.0870 -3.5458
   9523SM   H8T12820   2.615   1.351  10.286  0.0945  0.1333  0.4666
   9523SM   C9S12821   2.724   1.156  10.263 -0.5671  0.0687 -0.1297
   9523SM   H9S12822   2.822   1.200  10.292 -0.6668 -1.0310  2.0963
   9523SM   H9T12823   2.732   1.077  10.186 -0.4267 -0.8264  0.7874
   9523SM  C10S12824   2.680   1.086  10.393  1.0301 -0.3713  0.0702
   9523SM  H10S12825   2.598   1.011  10.393 -0.5375  1.1580  2.6992
   9523SM  H10T12826   2.649   1.162  10.469  2.4951 -0.7009  1.0521
   9523SM  C11S12827   2.796   1.011  10.466  0.6321  0.4961  0.3852
   9523SM  H11S12828   2.879   1.082  10.482  0.8288  0.6843 -1.2671
   9523SM  H11T12829   2.849   0.933  10.408  1.3226  1.5284 -0.3999
   9523SM  C12S12830   2.759   0.943  10.602  0.6204  0.2996 -0.0854
   9523SM  H12S12831   2.853   0.903  10.645 -0.0016  0.5906  1.5877
   9523SM  H12T12832   2.698   0.851  10.596  0.4970  0.4329 -1.2729
   9523SM  C13S12833   2.693   1.032  10.709 -0.3225  0.8222  0.6155
   9523SM  H13S12834   2.586   1.046  10.684 -0.3265 -0.4869 -0.2006
   9523SM  H13T12835   2.741   1.132  10.707  1.3416  0.0620  0.1921
   9523SM  C14S12836   2.708   0.982  10.855 -0.1253 -0.2975 -0.4295
   9523SM  H14S12837   2.663   1.054  10.928  0.2016 -1.8713  1.3926
   9523SM  H14T12838   2.817   0.969  10.871 -0.2378 -0.4206  0.2613
   9523SM  C15S12839   2.636   0.842  10.882  0.6173  0.6036  0.2871
   9523SM  H15S12840   2.691   0.760  10.831 -0.2377  0.9364 -1.2200
   9523SM  H15T12841   2.529   0.847  10.852  0.8226  0.1183 -0.5571
   9523SM  C16S12842   2.614   0.816  11.038  0.6626  0.0751 -0.3874
   9523SM  H16S12843   2.583   0.918  11.069 -0.0329 -0.5993  1.2736
   9523SM  H16T12844   2.712   0.775  11.071  0.6150 -1.6031 -2.1833
   9523SM  C17S12845   2.496   0.714  11.064 -0.0032 -0.5470 -0.3609
   9523SM  H17S12846   2.529   0.636  10.992  1.6977 -1.5570  1.4078
   9523SM  H17T12847   2.404   0.760  11.023  0.6254  1.3737  0.2702
   9523SM  C18S12848   2.481   0.666  11.207  0.0541  0.0592  0.4202
   9523SM  H18S12849   2.571   0.609  11.240  0.9546  2.3324  2.0992
   9523SM  H18T12850   2.394   0.600  11.226 -0.4543  0.7757  0.5858
   9523SM  H18U12851   2.457   0.752  11.272  0.4254  0.2090  0.3635
   9523SM   C1F12852   2.542   1.809   9.923  0.5561 -0.1274  0.5772
   9523SM    OF12853   2.423   1.786   9.913 -0.0909 -0.0657 -0.1962
   9523SM   C2F12854   2.591   1.907  10.027 -0.6482 -0.8153  0.1606
   9523SM   H2F12855   2.510   1.981  10.048 -0.2513 -0.3888  0.2099
   9523SM   H2G12856   2.677   1.959   9.979 -0.8983  0.0520  0.6172
   9523SM   C3F12857   2.643   1.837  10.155  0.2165 -0.9222 -0.7429
   9523SM   H3F12858   2.706   1.908  10.213 -0.9731 -0.1743 -0.3368
   9523SM   H3G12859   2.706   1.751  10.125  0.0297 -0.8813 -1.2525
   9523SM   C4F12860   2.530   1.783  10.251 -0.2906  0.6750 -0.6401
   9523SM   H4F12861   2.452   1.733  10.189 -0.4742  0.5385 -0.3044
   9523SM   H4G12862   2.479   1.872  10.294 -0.4155  1.3124 -2.0552
   9523SM   C5F12863   2.574   1.683  10.364 -0.9899 -0.2179  0.6406
   9523SM   H5F12864   2.661   1.726  10.417  0.2987 -0.2956 -1.3112
   9523SM   H5G12865   2.618   1.601  10.304 -2.7543 -1.6602  1.1961
   9523SM   C6F12866   2.462   1.626  10.448 -0.3113  0.0395  0.4056
   9523SM   H6F12867   2.381   1.581  10.387  0.6736 -2.1229  0.6152
   9523SM   H6G12868   2.404   1.707  10.499 -0.2129 -0.5067  1.4218
   9523SM   C7F12869   2.498   1.512  10.541  0.0423 -0.2740  0.1206
   9523SM   H7F12870   2.565   1.437  10.493  1.6213  0.9798  0.2906
   9523SM   H7G12871   2.406   1.454  10.566  1.5729 -1.6026  3.2559
   9523SM   C8F12872   2.555   1.543  10.681  0.2812 -0.1929  0.8120
   9523SM   H8F12873   2.476   1.600  10.734  1.1928  0.7364  1.2089
   9523SM   H8G12874   2.650   1.601  10.674  0.9697 -1.4703 -1.3350
   9523SM   C9F12875   2.574   1.414  10.762 -0.1721  0.0682  0.0772
   9523SM   H9F12876   2.628   1.329  10.715  0.0509 -1.0807  2.2271
   9523SM   H9G12877   2.469   1.377  10.767 -0.8361  1.9470  0.5827
   9523SM  C10F12878   2.627   1.442  10.902 -0.7821 -0.0254 -0.3492
   9523SM  H10F12879   2.704   1.522  10.889  1.3108 -2.2063 -2.2797
   9523SM  H10G12880   2.673   1.348  10.940 -0.4609  0.7296  1.2125
   9523SM  C11F12881   2.510   1.486  11.003  0.4153  0.3597  0.6286
   9523SM  H11F12882   2.434   1.408  10.986 -0.7105  1.3785  0.8788
   9523SM  H11G12883   2.466   1.581  10.965  2.4586  0.5493 -1.5171
   9523SM  C12F12884   2.563   1.475  11.147 -0.1071 -0.4374  0.3854
   9523SM  H12F12885   2.483   1.506  11.216  0.5512 -2.9812  2.4741
   9523SM  H12G12886   2.660   1.528  11.158  0.9377 -2.5656  2.5230
   9523SM  C13F12887   2.584   1.333  11.204 -0.7804 -0.2148  0.0869
   9523SM  H13F12888   2.634   1.275  11.124 -1.5292 -0.2928 -0.3308
   9523SM  H13G12889   2.488   1.281  11.224 -0.4353 -0.1881  2.0612
   9523SM  C14F12890   2.655   1.332  11.333 -0.4462  0.3365 -0.4518
   9523SM  H14F12891   2.594   1.389  11.406 -2.5075 -1.4163 -0.7233
   9523SM  H14G12892   2.754   1.383  11.325 -1.0538  1.4045 -1.5772
   9523SM  C15F12893   2.672   1.199  11.394 -0.5096 -0.1054  0.0869
   9523SM  H15F12894   2.724   1.151  11.308 -0.6388  1.5691 -0.9752
   9523SM  H15G12895   2.575   1.148  11.415  0.3391 -1.7259  0.2892
   9523SM  C16F12896   2.753   1.182  11.517  0.1219 -0.4697 -0.5317
   9523SM  H16F12897   2.681   1.213  11.596 -1.5384  0.7293 -2.4036
   9523SM  H16G12898   2.843   1.247  11.510 -1.5786  2.2518  0.9196
   9523SM  C17F12899   2.793   1.040  11.550  0.0454  0.0726  0.0704
   9523SM  H17F12900   2.839   1.043  11.651 -1.9152 -0.0758  1.0100
   9523SM  H17G12901   2.865   0.996  11.478  0.3859 -0.7528  0.8895
   9523SM  C18F12902   2.676   0.941  11.552 -0.0196  0.2541 -0.0854
   9523SM  H18F12903   2.635   0.916  11.451 -3.8031 -0.6745  1.5133
   9523SM  H18G12904   2.591   0.981  11.611 -0.8129 -1.5897  0.0634
   9523SM  C19F12905   2.720   0.804  11.610  0.0658  1.4461  0.0216
   9523SM  H19F12906   2.764   0.803  11.713 -0.0471  0.4507  0.0704
   9523SM  H19G12907   2.801   0.770  11.543 -1.5758  0.7943 -1.7175
   9523SM  C20F12908   2.609   0.692  11.597 -0.2388  0.0286 -0.2180
   9523SM  H20F12909   2.666   0.597  11.604  0.9880  0.7754  0.3908
   9523SM  H20G12910   2.549   0.696  11.504 -0.6907 -0.7718  0.0339
   9523SM  C21F12911   2.513   0.684  11.714  0.3690 -0.6933 -0.9618
   9523SM  H21F12912   2.443   0.769  11.728 -2.3578 -3.0666  1.0365
   9523SM  H21G12913   2.577   0.682  11.804  1.1847  0.8800 -1.4541
   9523SM  C22F12914   2.423   0.559  11.719  0.4863  0.5292  0.2400
   9523SM  H22F12915   2.375   0.561  11.819 -0.0590 -0.0579 -0.0058
   9523SM  H22G12916   2.479   0.463  11.722 -0.4960 -0.0510  0.3809
   9523SM  C23F12917   2.317   0.560  11.606 -0.1955 -0.2599  0.1682
   9523SM  H23F12918   2.245   0.644  11.603  0.4749  0.3022 -0.5521
   9523SM  H23G12919   2.265   0.462  11.600 -1.9549  0.6212  0.4637
   9523SM  H23H12920   2.374   0.564  11.510  1.2366  0.1123  1.0020
   9623SM     N12921   3.987   1.374   9.029 -0.0444 -0.0639  0.0957
   9623SM   C1512922   3.955   1.506   8.977  0.6508 -0.0362 -0.3527
   9623SM  H15A12923   3.975   1.584   9.049 -0.4898  0.0980 -0.1764
   9623SM  H15B12924   3.849   1.502   8.956  0.1136  1.9994  1.6094
   9623SM  H15C12925   4.005   1.524   8.883  0.7593  0.6873 -0.1614
   9623SM   C1412926   3.944   1.285   8.916  0.0824 -0.1165 -0.8024
   9623SM  H14A12927   3.937   1.180   8.940 -1.9200  0.7129  3.0443
   9623SM  H14B12928   4.009   1.306   8.832  0.3320  0.5298 -0.4551
   9623SM  H14C12929   3.842   1.301   8.885 -0.1939  1.2757  0.7034
   9623SM   C1312930   4.136   1.367   9.061 -0.1237 -0.3727  0.1551
   9623SM  H13A12931   4.160   1.450   9.125  1.9608 -1.7337  1.2484
   9623SM  H13B12932   4.195   1.368   8.970 -1.4589  0.5075 -0.7314
   9623SM  H13C12933   4.159   1.273   9.109 -0.3274 -0.4576  0.0883
   9623SM   C1212934   3.906   1.339   9.155 -0.2457  0.1448 -0.2174
   9623SM  H12A12935   3.803   1.371   9.144 -0.3492  0.1480  0.6489
   9623SM  H12B12936   3.948   1.394   9.238 -2.9456  0.4374  1.0578
   9623SM   C1112937   3.897   1.186   9.204  0.6086 -0.1626  0.2474
   9623SM  H11A12938   3.876   1.202   9.312  1.6781  2.4977  0.1417
   9623SM  H11B12939   3.996   1.138   9.190  0.4936  0.2346 -2.5245
   9623SM     P12940   3.649   1.102   9.164 -0.2062  0.0522  0.2976
   9623SM   O1312941   3.573   1.226   9.151 -0.0733  0.6464 -0.1014
   9623SM   O1412942   3.595   0.979   9.092 -0.1839 -0.4321 -0.0086
   9623SM   O1112943   3.655   1.071   9.325 -0.0235 -0.2323 -0.5611
   9623SM   O1212944   3.801   1.124   9.116  0.8059  0.2134 -0.1679
   9623SM   C1S12945   3.712   0.952   9.379  0.0177  0.2762  0.8802
   9623SM   H1S12946   3.806   0.930   9.324  0.2487  0.2750  1.2729
   9623SM   H1T12947   3.645   0.866   9.356 -0.1047  0.9866 -1.7604
   9623SM    NF12948   3.809   0.850   9.587  0.0440 -0.2189 -0.2189
   9623SM   HNF12949   3.748   0.783   9.630 -0.6283  1.9973  2.6336
   9623SM   C2S12950   3.736   0.964   9.531  1.2707  0.2699  0.1117
   9623SM   H2S12951   3.800   1.054   9.545  0.9099  0.6196 -0.4397
   9623SM   C3S12952   3.604   0.993   9.616  0.1347  0.7098 -0.1722
   9623SM   H3S12953   3.549   0.897   9.616  0.0726  0.7191 -1.4316
   9623SM    O312954   3.508   1.083   9.560 -0.2171  0.2744 -0.5584
   9623SM   HO312955   3.548   1.093   9.473  0.1779 -1.1780 -0.5685
   9623SM   C4S12956   3.642   1.025   9.758  0.9685  0.6770  0.1666
   9623SM   H4S12957   3.642   0.939   9.827 -2.7967  0.2350 -0.2070
   9623SM   C5S12958   3.657   1.149   9.810  0.7137  0.1384  0.6562
   9623SM   H5S12959   3.616   1.230   9.747  0.2662 -0.3087  0.3704
   9623SM   C6S12960   3.694   1.189   9.955 -0.1889  0.3411  0.7822
   9623SM   H6S12961   3.602   1.249   9.974 -1.6410 -0.7629 -2.2808
   9623SM   H6T12962   3.784   1.254   9.962 -0.1961  0.2125  2.6334
   9623SM   C7S12963   3.719   1.079  10.061 -0.3073 -0.4495  0.8861
   9623SM   H7S12964   3.803   1.020  10.019 -0.0525 -1.3766  2.6329
   9623SM   H7T12965   3.634   1.008  10.066 -0.0694 -0.9362 -1.1415
   9623SM   C8S12966   3.761   1.134  10.198  0.7536 -0.4792 -0.0992
   9623SM   H8S12967   3.681   1.203  10.233  1.7653  0.6949 -0.0262
   9623SM   H8T12968   3.851   1.199  10.214  2.2009 -3.0125  3.4650
   9623SM   C9S12969   3.772   1.031  10.309  0.0010  0.4131 -0.3942
   9623SM   H9S12970   3.863   0.970  10.292 -0.7419 -1.1825  1.0634
   9623SM   H9T12971   3.683   0.965  10.306 -0.1313  0.4861  0.9793
   9623SM  C10S12972   3.778   1.087  10.450  0.6219 -0.7291  0.1194
   9623SM  H10S12973   3.710   1.173  10.465  0.6930 -1.1601  4.2598
   9623SM  H10T12974   3.876   1.138  10.466 -0.0994  1.3416 -1.6550
   9623SM  C11S12975   3.749   0.971  10.550  0.2188 -0.2105  0.2772
   9623SM  H11S12976   3.815   0.884  10.529 -0.8660 -1.0800  0.3653
   9623SM  H11T12977   3.644   0.935  10.535  0.5815 -1.5308  0.7961
   9623SM  C12S12978   3.760   1.014  10.696  0.3862 -0.2134 -0.3109
   9623SM  H12S12979   3.722   1.117  10.711  1.5478  0.2623 -0.5869
   9623SM  H12T12980   3.869   0.996  10.706  0.4198 -0.0661 -0.4147
   9623SM  C13S12981   3.693   0.909  10.786 -0.6191  0.0705  0.5007
   9623SM  H13S12982   3.723   0.809  10.750 -0.0998  1.6587 -4.0447
   9623SM  H13T12983   3.582   0.912  10.791 -0.8605 -1.2928 -2.2646
   9623SM  C14S12984   3.741   0.926  10.934 -0.0347  0.5800  0.8228
   9623SM  H14S12985   3.758   1.033  10.959 -1.1738  0.6604  1.3155
   9623SM  H14T12986   3.837   0.873  10.947 -0.6532 -0.6558  0.5586
   9623SM  C15S12987   3.652   0.864  11.042  0.4371  0.0611  0.2049
   9623SM  H15S12988   3.649   0.756  11.018 -1.3992  0.6398 -2.6075
   9623SM  H15T12989   3.552   0.913  11.038  0.0117 -0.6556  1.3402
   9623SM  C16S12990   3.699   0.890  11.186 -0.2367  1.0335  1.2963
   9623SM  H16S12991   3.712   0.997  11.210 -1.1787  1.3371  0.5200
   9623SM  H16T12992   3.780   0.816  11.204 -2.5422 -2.6161 -1.8205
   9623SM  C17S12993   3.591   0.846  11.287  0.9743  0.4231  0.0337
   9623SM  H17S12994   3.560   0.746  11.248  0.0330  0.5731  0.3554
   9623SM  H17T12995   3.501   0.910  11.273  0.4021 -0.2958  0.3130
   9623SM  C18S12996   3.637   0.817  11.428 -0.2830  0.1016  0.3511
   9623SM  H18S12997   3.661   0.905  11.491 -0.1669  0.5155 -0.2727
   9623SM  H18T12998   3.730   0.755  11.421 -0.7900 -0.4741 -2.6328
   9623SM  H18U12999   3.567   0.747  11.478 -0.1036  0.3454  0.9568
   9623SM   C1F13000   3.932   0.823   9.549  0.3044 -0.2037  0.3563
   9623SM    OF13001   3.988   0.913   9.487  0.0260  0.4150 -0.7180
   9623SM   C2F13002   3.990   0.686   9.583  0.1708 -0.1191 -0.1786
   9623SM   H2F13003   4.099   0.685   9.564 -0.2004 -2.2281 -2.9167
   9623SM   H2G13004   3.952   0.615   9.506 -0.0470  1.3599 -1.4839
   9623SM   C3F13005   3.952   0.626   9.719  0.2844  0.2076  0.1131
   9623SM   H3F13006   3.998   0.527   9.736  0.3112 -0.3986 -2.9120
   9623SM   H3G13007   3.842   0.610   9.727  0.2241  0.1867 -0.6870
   9623SM   C4F13008   4.004   0.718   9.834  0.1911 -0.2655 -0.0094
   9623SM   H4F13009   3.967   0.821   9.817 -0.1109 -0.2943  0.4648
   9623SM   H4G13010   4.114   0.733   9.845  0.4561 -2.2460  0.5521
   9623SM   C5F13011   3.969   0.659   9.975 -0.2137  0.4410  0.3837
   9623SM   H5F13012   4.030   0.566   9.975 -1.6713 -0.5555  0.4672
   9623SM   H5G13013   3.862   0.630   9.974 -1.4397  4.1112 -2.9211
   9623SM   C6F13014   4.014   0.735  10.103  0.3527 -0.3524 -0.4183
   9623SM   H6F13015   3.952   0.823  10.125  1.9202  0.0156  3.1725
   9623SM   H6G13016   4.119   0.764  10.081  1.4189 -2.4145  1.5135
   9623SM   C7F13017   4.007   0.643  10.227  0.1533  0.3284 -0.2600
   9623SM   H7F13018   4.074   0.555  10.216  0.3047  0.5873 -1.4823
   9623SM   H7G13019   3.906   0.595  10.221  0.4273 -0.2843 -0.0893
   9623SM   C8F13020   4.033   0.719  10.363 -0.1546 -0.1540 -0.4276
   9623SM   H8F13021   3.977   0.814  10.367 -0.3714 -0.3227  0.5986
   9623SM   H8G13022   4.143   0.736  10.372  0.1698 -1.1411 -2.0106
   9623SM   C9F13023   3.984   0.646  10.490 -0.7430  0.1924  0.7207
   9623SM   H9F13024   3.996   0.536  10.498  3.2120  0.1767 -2.4533
   9623SM   H9G13025   3.874   0.663  10.492 -0.8468 -0.4978  1.4712
   9623SM  C10F13026   4.056   0.683  10.623 -0.1036  0.3423  0.2057
   9623SM  H10F13027   4.069   0.793  10.632  2.3339  0.2475 -1.3766
   9623SM  H10G13028   4.162   0.650  10.614  0.0316  0.9482 -0.4925
   9623SM  C11F13029   3.988   0.628  10.748 -0.2652  0.7834  0.8448
   9623SM  H11F13030   3.988   0.517  10.741  0.1610  0.8997 -1.8658
   9623SM  H11G13031   3.882   0.658  10.760 -1.8316 -4.8351  5.0739
   9623SM  C12F13032   4.064   0.667  10.875 -0.6860  0.0122  0.0833
   9623SM  H12F13033   4.055   0.776  10.893  0.4460  0.6911 -2.8624
   9623SM  H12G13034   4.172   0.649  10.856 -0.5425 -0.1164  0.9974
   9623SM  C13F13035   4.005   0.602  11.004 -0.3035  0.2528  0.4001
   9623SM  H13F13036   4.032   0.494  11.007  0.6017  0.4559 -0.0663
   9623SM  H13G13037   3.894   0.602  11.002 -0.2991  0.2100 -1.3017
   9623SM  C14F13038   4.047   0.680  11.127 -0.9045  0.2711 -0.1135
   9623SM  H14F13039   4.010   0.784  11.114  1.3877  0.8978 -2.6263
   9623SM  H14G13040   4.157   0.696  11.118  0.0126 -3.5535  1.9184
   9623SM  C15F13041   4.006   0.617  11.259  0.1636  0.4135 -0.6029
   9623SM  H15F13042   4.013   0.506  11.256 -1.0764  0.3020  0.3324
   9623SM  H15G13043   3.899   0.641  11.270  0.0445 -0.5017  0.3953
   9623SM  C16F13044   4.083   0.650  11.388  0.2686  0.2986 -0.3005
   9623SM  H16F13045   4.100   0.759  11.403 -1.6243  0.5579  0.2512
   9623SM  H16G13046   4.188   0.620  11.367  0.3113  0.2661 -0.0371
   9623SM  C17F13047   4.016   0.602  11.512 -0.1178 -0.4991  0.1805
   9623SM  H17F13048   4.004   0.492  11.506  1.4091 -0.7929  1.7589
   9623SM  H17G13049   3.921   0.656  11.529  0.1471 -0.0120  0.1495
   9623SM  C18F13050   4.096   0.620  11.642 -0.1834  1.3195 -0.0720
   9623SM  H18F13051   4.080   0.724  11.678 -0.4460  0.3461  2.8487
   9623SM  H18G13052   4.205   0.606  11.627 -0.3408  0.0196 -0.0758
   9623SM  C19F13053   4.050   0.521  11.758  0.5438 -0.6177  0.3210
   9623SM  H19F13054   3.939   0.527  11.752  0.5604 -0.6090 -0.0199
   9623SM  H19G13055   4.084   0.559  11.856 -0.3752 -0.8471  0.7402
   9623SM  C20F13056   4.091   0.373  11.736 -1.0580  0.3893 -0.6740
   9623SM  H20F13057   4.174   0.372  11.662 -1.7535  1.2951 -1.4912
   9623SM  H20G13058   4.010   0.327  11.675  1.7277 -1.7520 -3.0698
   9623SM  C21F13059   4.113   0.294  11.866 -0.5999  0.1948  0.2214
   9623SM  H21F13060   4.039   0.319  11.944 -0.4689 -1.7652  1.0335
   9623SM  H21G13061   4.213   0.322  11.906 -1.4865  1.3024  1.7501
   9623SM  C22F13062   4.118   0.139  11.839 -0.4529  0.8525 -0.0755
   9623SM  H22F13063   4.198   0.085  11.894  0.4349  0.5628 -1.6109
   9623SM  H22G13064   4.133   0.112  11.733 -0.1111 -0.9994  0.3963
   9623SM  C23F13065   3.982   0.078  11.880  0.0631  0.2382 -0.1465
   9623SM  H23F13066   3.896   0.129  11.829 -1.9810 -1.8600  1.0119
   9623SM  H23G13067   3.977   0.087  11.990  0.6864  0.5201 -0.1363
   9623SM  H23H13068   3.978  -0.030  11.854 -0.3775  0.0963  0.4746
   9723SM     N13069   5.377   6.383   8.869  0.2001 -0.5442 -0.3959
   9723SM   C1513070   5.448   6.278   8.793 -0.4733  0.3625 -0.4170
   9723SM  H15A13071   5.395   6.184   8.793 -1.9185  1.1351 -1.8445
   9723SM  H15B13072   5.540   6.250   8.842 -1.2293  0.0715  0.8704
   9723SM  H15C13073   5.467   6.319   8.695 -2.7120  0.4073 -0.8816
   9723SM   C1413074   5.454   6.501   8.859 -0.5687  0.5280 -0.6032
   9723SM  H14A13075   5.551   6.491   8.906 -0.6909  0.0643 -0.4467
   9723SM  H14B13076   5.402   6.584   8.903 -0.3504 -0.1011  0.8811
   9723SM  H14C13077   5.476   6.529   8.757  0.5063  2.2568  0.0649
   9723SM   C1313078   5.247   6.404   8.802  1.0805  0.0440 -0.1028
   9723SM  H13A13079   5.189   6.314   8.783  1.0064 -0.1880  1.1482
   9723SM  H13B13080   5.256   6.447   8.703 -2.9641  0.1549 -0.5988
   9723SM  H13C13081   5.187   6.482   8.846  0.5856  0.0122 -0.6983
   9723SM   C1213082   5.350   6.356   9.017  1.0739  0.5331  0.5150
   9723SM  H12A13083   5.280   6.274   9.016  0.3211  1.1659  0.0571
   9723SM  H12B13084   5.293   6.436   9.062 -0.2618  0.5211 -1.0197
   9723SM   C1113085   5.467   6.324   9.112  0.0704  0.7209 -0.5287
   9723SM  H11A13086   5.427   6.327   9.216 -0.6789 -1.4209 -0.7225
   9723SM  H11B13087   5.550   6.394   9.088  0.1881  0.8026  0.0932
   9723SM     P13088   5.432   6.065   9.118 -0.0631 -0.1239  0.0174
   9723SM   O1313089   5.303   6.064   9.046 -0.1094  0.6733  0.5656
   9723SM   O1413090   5.526   5.951   9.092  0.4482 -0.5221  0.3213
   9723SM   O1113091   5.396   6.088   9.274 -0.2268 -0.1667 -0.3280
   9723SM   O1213092   5.513   6.195   9.080 -0.6482 -0.1303 -0.4750
   9723SM   C1S13093   5.324   5.994   9.352  1.0796 -0.3271 -0.2447
   9723SM   H1S13094   5.388   5.903   9.352 -0.5310 -1.5039 -0.5054
   9723SM   H1T13095   5.223   5.967   9.314  1.3539 -0.4991 -0.8747
   9723SM    NF13096   5.272   5.960   9.591 -0.0407 -0.2095  0.2463
   9723SM   HNF13097   5.175   5.944   9.607  0.1493 -0.2660  1.3752
   9723SM   C2S13098   5.303   6.056   9.494 -0.2948 -1.0424  0.0625
   9723SM   H2S13099   5.400   6.094   9.530  0.6543 -1.7674 -1.6228
   9723SM   C3S13100   5.199   6.169   9.500  0.6156  0.6652 -0.6834
   9723SM   H3S13101   5.098   6.124   9.500  1.5491 -1.6956  1.2835
   9723SM    O313102   5.209   6.252   9.387  0.3776 -0.7669  0.3571
   9723SM   HO313103   5.261   6.206   9.321 -0.9944  2.5996 -3.4779
   9723SM   C4S13104   5.220   6.256   9.622 -0.3882 -0.0613 -0.1934
   9723SM   H4S13105   5.314   6.312   9.613 -1.1425  0.8933 -2.8352
   9723SM   C5S13106   5.134   6.274   9.735  0.7039 -0.2319  0.0608
   9723SM   H5S13107   5.034   6.230   9.740  0.1130  1.2034  2.0520
   9723SM   C6S13108   5.168   6.369   9.846  0.0146 -0.5059  0.3022
   9723SM   H6S13109   5.220   6.459   9.808  1.6022 -1.9515 -1.0624
   9723SM   H6T13110   5.234   6.322   9.922 -0.8032 -1.6478  0.3192
   9723SM   C7S13111   5.034   6.414   9.906  0.5354  0.1919 -0.4532
   9723SM   H7S13112   4.980   6.328   9.952  1.2856 -0.2057 -0.3014
   9723SM   H7T13113   4.969   6.470   9.836  0.4053  2.7496  1.5550
   9723SM   C8S13114   5.060   6.521  10.017  0.3940  0.8696  0.6876
   9723SM   H8S13115   4.966   6.579  10.027 -0.3985 -0.7151  3.6232
   9723SM   H8T13116   5.135   6.593   9.978  0.5633  1.3274  1.8121
   9723SM   C9S13117   5.093   6.451  10.145 -0.0000  0.6758 -0.3848
   9723SM   H9S13118   5.177   6.382  10.123  0.2002  1.2975 -1.6649
   9723SM   H9T13119   5.002   6.400  10.184 -1.8997  2.0776 -2.7229
   9723SM  C10S13120   5.142   6.543  10.259 -0.1991  0.0291 -0.0303
   9723SM  H10S13121   5.090   6.641  10.255  0.2916  0.2620 -1.5668
   9723SM  H10T13122   5.250   6.558  10.234  0.4140 -0.6007  2.0918
   9723SM  C11S13123   5.140   6.476  10.396  1.1443  0.3213 -0.3009
   9723SM  H11S13124   5.206   6.386  10.392 -1.5979 -1.8007 -0.2694
   9723SM  H11T13125   5.037   6.437  10.410  0.9830  1.5027  2.3759
   9723SM  C12S13126   5.160   6.575  10.515 -0.0345  0.2156  0.1109
   9723SM  H12S13127   5.087   6.659  10.505 -0.1801  0.0548 -0.1903
   9723SM  H12T13128   5.250   6.632  10.482 -1.2113  0.4419 -3.0735
   9723SM  C13S13129   5.150   6.501  10.642 -0.5524  0.9717  0.1235
   9723SM  H13S13130   5.215   6.411  10.637  0.1188  1.3722  1.2458
   9723SM  H13T13131   5.042   6.474  10.643 -0.3498  0.0607 -1.0350
   9723SM  C14S13132   5.178   6.583  10.773 -0.2910  0.5788 -0.6573
   9723SM  H14S13133   5.119   6.675  10.789  0.6718  1.0713  0.2314
   9723SM  H14T13134   5.283   6.620  10.766  0.0492 -0.0635  0.6682
   9723SM  C15S13135   5.166   6.501  10.901  0.0663  0.4626  0.8951
   9723SM  H15S13136   5.215   6.402  10.889 -1.3652 -0.4756  2.4378
   9723SM  H15T13137   5.057   6.480  10.913  0.3746 -1.4874  0.5909
   9723SM  C16S13138   5.227   6.569  11.028 -0.1415  0.1757  0.1056
   9723SM  H16S13139   5.162   6.652  11.062 -1.7302 -1.0093  0.0625
   9723SM  H16T13140   5.335   6.594  11.014 -0.0645  2.5804  3.7352
   9723SM  C17S13141   5.228   6.470  11.147  0.2181 -0.0789  0.0681
   9723SM  H17S13142   5.286   6.380  11.115 -0.5092 -0.0564 -1.4072
   9723SM  H17T13143   5.123   6.434  11.155 -0.0470  0.6874  0.0658
   9723SM  C18S13144   5.279   6.538  11.279 -0.4245 -0.1825  0.1653
   9723SM  H18S13145   5.260   6.469  11.364  2.1178 -0.3129  0.6952
   9723SM  H18T13146   5.218   6.631  11.291 -1.3974 -0.5021 -1.9198
   9723SM  H18U13147   5.389   6.551  11.275 -0.2456 -1.7944 -2.8195
   9723SM   C1F13148   5.356   5.878   9.650  0.5555  0.4930  0.2289
   9723SM    OF13149   5.483   5.887   9.632 -0.1825 -0.0070  0.1134
   9723SM   C2F13150   5.288   5.771   9.728 -0.2747  0.2799  0.6535
   9723SM   H2F13151   5.312   5.669   9.690 -1.2539 -0.3441  1.6533
   9723SM   H2G13152   5.178   5.780   9.716 -0.4403 -1.5018  0.4677
   9723SM   C3F13153   5.323   5.779   9.872  0.1952  0.2422 -0.5428
   9723SM   H3F13154   5.430   5.752   9.885 -0.1458 -0.9176 -0.0090
   9723SM   H3G13155   5.265   5.703   9.928  0.5688 -0.3032 -0.8861
   9723SM   C4F13156   5.297   5.912   9.946 -0.3748  0.2605 -0.5225
   9723SM   H4F13157   5.336   6.004   9.898  2.0525 -1.1435 -1.3899
   9723SM   H4G13158   5.349   5.899  10.043 -2.0920  0.8834  0.5397
   9723SM   C5F13159   5.145   5.923   9.979  0.1617  0.1759  0.3579
   9723SM   H5F13160   5.115   5.824  10.020  1.7658 -0.6209 -0.3162
   9723SM   H5G13161   5.098   5.939   9.879 -0.1826  0.7980  0.6185
   9723SM   C6F13162   5.120   6.034  10.069 -0.8000  0.0138  0.0745
   9723SM   H6F13163   5.012   6.056  10.056 -1.4373 -2.8062  0.0560
   9723SM   H6G13164   5.179   6.119  10.027  1.2231 -0.6267  1.4814
   9723SM   C7F13165   5.152   5.992  10.216 -0.5597 -0.1497 -0.1307
   9723SM   H7F13166   5.263   5.991  10.226 -0.5925  1.2409  0.5084
   9723SM   H7G13167   5.129   5.884  10.231 -1.8088  0.2425  0.9579
   9723SM   C8F13168   5.078   6.081  10.317 -0.4500 -0.8885  0.6695
   9723SM   H8F13169   4.968   6.087  10.297 -0.2734  0.5557 -0.0310
   9723SM   H8G13170   5.126   6.180  10.304 -0.4846 -1.0123 -0.5158
   9723SM   C9F13171   5.093   6.026  10.457 -0.2533  0.3575 -0.4300
   9723SM   H9F13172   5.198   6.040  10.489 -0.9477  1.8475  1.3844
   9723SM   H9G13173   5.059   5.922  10.471  0.8235  0.1171  0.5032
   9723SM  C10F13174   5.028   6.110  10.563  1.3251  0.5111 -0.2947
   9723SM  H10F13175   4.920   6.124  10.541  1.4329 -0.9270 -1.9105
   9723SM  H10G13176   5.082   6.207  10.567  0.8379  0.7689  0.1552
   9723SM  C11F13177   5.039   6.042  10.699 -0.3764  0.5851 -0.0830
   9723SM  H11F13178   5.125   5.973  10.710 -0.3149  0.5957 -0.4757
   9723SM  H11G13179   4.944   5.988  10.720 -0.5344  1.7296  2.5505
   9723SM  C12F13180   5.056   6.132  10.818 -0.2166  0.7417 -0.2458
   9723SM  H12F13181   4.985   6.216  10.830  0.3243  1.2076 -0.3092
   9723SM  H12G13182   5.158   6.177  10.818 -0.2898  1.0050  1.8731
   9723SM  C13F13183   5.065   6.050  10.952  0.1905 -0.1836  0.0595
   9723SM  H13F13184   5.135   5.965  10.936 -0.6833 -0.7538 -0.9028
   9723SM  H13G13185   4.965   6.011  10.981  0.2674  0.3727  1.1087
   9723SM  C14F13186   5.114   6.144  11.068  0.3792 -0.1297 -0.0168
   9723SM  H14F13187   5.050   6.235  11.067 -2.0960 -1.8013 -1.1375
   9723SM  H14G13188   5.218   6.174  11.040  0.4576 -0.5225 -0.1459
   9723SM  C15F13189   5.115   6.078  11.204 -0.1044 -0.5740  0.2391
   9723SM  H15F13190   5.178   5.987  11.196 -0.4802 -0.7617 -0.7945
   9723SM  H15G13191   5.012   6.051  11.236  0.3459 -0.4442  1.8595
   9723SM  C16F13192   5.178   6.168  11.307 -0.1543 -0.7995  0.0049
   9723SM  H16F13193   5.127   6.266  11.315 -1.0198 -1.2944  0.7422
   9723SM  H16G13194   5.285   6.176  11.278  0.1722  0.1265  1.3818
   9723SM  C17F13195   5.161   6.114  11.456  0.5548 -0.0676 -0.3028
   9723SM  H17F13196   5.190   6.007  11.449  0.8851  0.0558 -0.8925
   9723SM  H17G13197   5.051   6.110  11.469  0.5251  1.5642  0.0885
   9723SM  C18F13198   5.222   6.194  11.560  0.1505 -0.6035 -0.3794
   9723SM  H18F13199   5.325   6.227  11.534 -0.1800  0.0871 -0.7954
   9723SM  H18G13200   5.227   6.130  11.651 -0.9711  1.9554  1.6020
   9723SM  C19F13201   5.142   6.325  11.586 -0.5695  0.4441 -0.7493
   9723SM  H19F13202   5.043   6.296  11.627  0.1793 -1.5619 -0.2114
   9723SM  H19G13203   5.128   6.387  11.495 -1.5850  1.4518  0.0655
   9723SM  C20F13204   5.228   6.431  11.664  0.1379 -0.1952  0.1637
   9723SM  H20F13205   5.312   6.466  11.599  0.5926 -3.3724 -1.1341
   9723SM  H20G13206   5.280   6.387  11.752  4.1020  2.3790 -0.5994
   9723SM  C21F13207   5.153   6.561  11.706 -0.6134 -0.4625  0.0133
   9723SM  H21F13208   5.097   6.596  11.617 -0.9600 -0.9515  0.0289
   9723SM  H21G13209   5.222   6.630  11.759  1.3069 -1.5982 -0.8858
   9723SM  C22F13210   5.041   6.539  11.809 -0.7096  0.4113 -0.3187
   9723SM  H22F13211   5.071   6.477  11.896 -0.0145  3.5758  1.8589
   9723SM  H22G13212   4.964   6.478  11.757 -0.2593 -1.7711  1.4141
   9723SM  C23F13213   4.980   6.676  11.854  0.1875 -0.4208  0.0802
   9723SM  H23F13214   4.899   6.644  11.924  0.1085  0.9491  0.6593
   9723SM  H23G13215   4.947   6.718  11.757  0.8796 -3.0149 -1.3644
   9723SM  H23H13216   5.054   6.740  11.906  0.6011 -2.7683  2.5926
   9823SM     N13217   0.897   4.735   9.312  0.5963  0.1600 -0.3571
   9823SM   C1513218   0.899   4.625   9.216  0.1524  0.2933 -0.0330
   9823SM  H15A13219   0.905   4.661   9.114  0.0225  0.5091  0.0339
   9823SM  H15B13220   0.807   4.570   9.229  0.7184 -0.3093  1.5134
   9823SM  H15C13221   0.983   4.565   9.246 -0.5947 -1.1628 -0.7092
   9823SM   C1413222   0.886   4.678   9.451 -0.7291 -0.2988 -0.6959
   9823SM  H14A13223   0.970   4.616   9.477 -1.0925 -0.2127  0.7541
   9823SM  H14B13224   0.796   4.623   9.471 -0.3716 -0.2734  1.1320
   9823SM  H14C13225   0.874   4.764   9.515 -0.5691 -0.5802 -0.2822
   9823SM   C1313226   1.027   4.805   9.303 -0.2446 -0.9283  0.3150
   9823SM  H13A13227   1.110   4.739   9.323  0.5401 -0.6103 -1.7063
   9823SM  H13B13228   1.032   4.891   9.369  1.5412 -0.4982 -0.3358
   9823SM  H13C13229   1.046   4.851   9.207 -1.0009  0.2082  0.6792
   9823SM   C1213230   0.780   4.827   9.276 -0.4391  0.2627  0.0864
   9823SM  H12A13231   0.783   4.844   9.169 -0.4155  0.3509  0.1010
   9823SM  H12B13232   0.795   4.916   9.336  0.4836 -0.0139  0.2865
   9823SM   C1113233   0.639   4.772   9.300 -0.2655  0.2315  0.2475
   9823SM  H11A13234   0.627   4.669   9.259 -1.3607 -0.6703  2.6268
   9823SM  H11B13235   0.571   4.842   9.247 -1.8760 -0.5789  1.1608
   9823SM     P13236   0.449   4.755   9.490 -0.0355 -0.0177  0.4598
   9823SM   O1313237   0.369   4.868   9.442  0.1080 -0.4025 -0.5614
   9823SM   O1413238   0.390   4.626   9.456 -0.1255  0.5200  0.2564
   9823SM   O1113239   0.452   4.767   9.648 -0.1345 -0.6554 -0.3646
   9823SM   O1213240   0.598   4.765   9.435 -0.6174 -0.7948  0.1169
   9823SM   C1S13241   0.555   4.693   9.716 -0.7758  0.4953  0.1152
   9823SM   H1S13242   0.652   4.711   9.666  0.2055 -0.0444  1.7641
   9823SM   H1T13243   0.519   4.588   9.721  0.6526  0.0267  1.0126
   9823SM    NF13244   0.691   4.672   9.906 -0.1992 -0.3555 -0.0981
   9823SM   HNF13245   0.686   4.613   9.986  0.7630 -1.3486 -0.7540
   9823SM   C2S13246   0.579   4.745   9.853  0.4610  0.2932  0.3071
   9823SM   H2S13247   0.623   4.847   9.846  0.3296  0.2562 -3.7326
   9823SM   C3S13248   0.448   4.742   9.938  1.0001 -0.3535  0.3182
   9823SM   H3S13249   0.417   4.635   9.939  1.1054 -0.3848  0.1374
   9823SM    O313250   0.348   4.822   9.892  0.7742 -0.2206 -0.2439
   9823SM   HO313251   0.382   4.850   9.806 -1.4787  0.2033 -1.0798
   9823SM   C4S13252   0.483   4.783  10.081 -0.5692 -0.5556  0.1067
   9823SM   H4S13253   0.450   4.696  10.140 -0.5100 -0.8017 -0.2182
   9823SM   C5S13254   0.521   4.899  10.141  0.1270 -0.4897 -0.2386
   9823SM   H5S13255   0.528   4.986  10.074  1.7338  0.2598  0.8642
   9823SM   C6S13256   0.520   4.933  10.285  0.8547  0.3995  0.5933
   9823SM   H6S13257   0.600   5.005  10.310 -0.0587  0.1867  4.7498
   9823SM   H6T13258   0.535   4.844  10.348 -1.3201  0.4360  1.2644
   9823SM   C7S13259   0.379   4.991  10.333 -1.0837  0.3205  0.5537
   9823SM   H7S13260   0.301   4.939  10.273 -0.3765  0.1187 -0.2150
   9823SM   H7T13261   0.370   5.099  10.307 -1.6072  0.4713  1.3183
   9823SM   C8S13262   0.374   4.993  10.484 -0.3174  0.3675  0.1896
   9823SM   H8S13263   0.452   5.064  10.520  0.8445 -0.6077 -0.3334
   9823SM   H8T13264   0.396   4.891  10.521 -0.0331  1.0608  2.0638
   9823SM   C9S13265   0.240   5.036  10.544 -0.1272 -1.0928  0.0240
   9823SM   H9S13266   0.160   4.969  10.507 -1.2631 -2.0426  3.8448
   9823SM   H9T13267   0.223   5.142  10.515 -1.3987 -0.8502  1.5442
   9823SM  C10S13268   0.228   5.045  10.696 -0.0543  0.3237 -0.6351
   9823SM  H10S13269   0.303   5.119  10.733 -0.5125  1.2815 -1.5474
   9823SM  H10T13270   0.247   4.950  10.750 -1.4161 -0.0244 -0.7381
   9823SM  C11S13271   0.092   5.109  10.740  0.0357  0.7101 -0.0408
   9823SM  H11S13272   0.011   5.052  10.691  1.7727 -1.5869 -0.4422
   9823SM  H11T13273   0.079   5.213  10.702  0.0247  0.8258  0.2758
   9823SM  C12S13274   0.071   5.114  10.888  0.5568  0.0886  0.0073
   9823SM  H12S13275   0.153   5.178  10.928 -0.1305  1.4127 -0.6267
   9823SM  H12T13276   0.084   5.010  10.924 -2.1977 -1.2220 -2.3981
   9823SM  C13S13277  -0.062   5.177  10.925  0.3232 -0.1318  0.1736
   9823SM  H13S13278  -0.141   5.110  10.883  0.4025 -0.8692  1.1668
   9823SM  H13T13279  -0.058   5.276  10.876  1.1007 -1.0876 -1.7961
   9823SM  C14S13280  -0.073   5.180  11.078 -0.1176  0.6686  0.2334
   9823SM  H14S13281   0.022   5.194  11.134 -0.3852 -0.2745  0.9395
   9823SM  H14T13282  -0.097   5.083  11.125  0.3705  0.2536 -0.3598
   9823SM  C15S13283  -0.172   5.284  11.139  0.1939 -0.5080  0.0865
   9823SM  H15S13284  -0.262   5.287  11.074  0.1380 -1.2926  0.1149
   9823SM  H15T13285  -0.124   5.384  11.134 -1.3623  0.3862  1.9090
   9823SM  C16S13286  -0.202   5.254  11.290 -0.3778  0.4347  0.6044
   9823SM  H16S13287  -0.113   5.256  11.356  1.0193  1.1348 -1.2314
   9823SM  H16T13288  -0.232   5.147  11.288 -0.1314  0.3198  2.0200
   9823SM  C17S13289  -0.316   5.336  11.347  0.2647 -0.2045 -0.6768
   9823SM  H17S13290  -0.396   5.346  11.271 -2.4545  1.4996  2.1875
   9823SM  H17T13291  -0.277   5.438  11.367  1.5448 -0.6405 -0.8084
   9823SM  C18S13292  -0.374   5.288  11.479  0.7445 -0.4624  0.1025
   9823SM  H18S13293  -0.397   5.179  11.479  1.4569 -0.6319 -1.3715
   9823SM  H18T13294  -0.463   5.351  11.503 -0.2085 -0.8304 -2.2210
   9823SM  H18U13295  -0.311   5.294  11.570  0.2394  0.0721  0.4235
   9823SM   C1F13296   0.817   4.700   9.865 -0.0679 -0.5648  0.1631
   9823SM    OF13297   0.842   4.791   9.784  0.0155 -0.0651 -0.1682
   9823SM   C2F13298   0.924   4.623   9.940  0.3062  0.5057  0.3485
   9823SM   H2F13299   1.017   4.631   9.879  0.4038  0.1636  0.4491
   9823SM   H2G13300   0.898   4.515   9.948 -0.0368  0.5651  0.0776
   9823SM   C3F13301   0.955   4.688  10.079 -0.4029  0.4162 -0.0714
   9823SM   H3F13302   0.976   4.797  10.073  0.5568  0.2251 -0.4755
   9823SM   H3G13303   1.047   4.632  10.106 -1.2649 -3.0767 -3.4894
   9823SM   C4F13304   0.854   4.658  10.194  0.7486 -0.2203  0.6249
   9823SM   H4F13305   0.828   4.550  10.202  0.1675 -0.1490 -0.2201
   9823SM   H4G13306   0.763   4.718  10.174  2.5035  2.3435 -0.0652
   9823SM   C5F13307   0.903   4.721  10.322 -0.3257 -0.1475 -0.1113
   9823SM   H5F13308   0.914   4.830  10.302 -1.6726  0.2687  1.2595
   9823SM   H5G13309   1.000   4.677  10.353 -1.0329 -2.0988 -0.5262
   9823SM   C6F13310   0.808   4.706  10.443 -0.4296  0.1937  0.5981
   9823SM   H6F13311   0.799   4.598  10.465 -3.7071 -0.4895 -2.9189
   9823SM   H6G13312   0.706   4.730  10.406 -1.2699 -0.0862  2.6499
   9823SM   C7F13313   0.836   4.801  10.564  0.5515  1.2727  0.1211
   9823SM   H7F13314   0.854   4.903  10.524  1.8026  0.8429 -0.4660
   9823SM   H7G13315   0.920   4.763  10.626  0.2195  0.0139 -0.1746
   9823SM   C8F13316   0.709   4.805  10.649  0.3746 -0.0558 -0.2416
   9823SM   H8F13317   0.685   4.706  10.693 -0.7560  1.1739  2.1267
   9823SM   H8G13318   0.631   4.842  10.579  1.5759  1.1821 -0.9826
   9823SM   C9F13319   0.715   4.906  10.768  0.6877  0.5193 -0.0020
   9823SM   H9F13320   0.627   4.974  10.754  0.0106  0.0012  1.4451
   9823SM   H9G13321   0.810   4.963  10.768 -0.2880  2.2430 -0.2942
   9823SM  C10F13322   0.696   4.834  10.901  0.2208 -0.0798  0.2150
   9823SM  H10F13323   0.780   4.761  10.902 -0.1552 -0.5148  0.3191
   9823SM  H10G13324   0.599   4.780  10.902  0.1899 -0.0505  1.8776
   9823SM  C11F13325   0.688   4.929  11.015  0.0809 -0.2644  0.0714
   9823SM  H11F13326   0.599   4.994  10.998 -1.3936 -2.4340 -0.9625
   9823SM  H11G13327   0.776   4.997  11.014  0.0253 -0.1154 -2.6842
   9823SM  C12F13328   0.671   4.867  11.156 -0.2418 -0.9080 -0.1492
   9823SM  H12F13329   0.757   4.798  11.166 -0.4441 -1.0135  0.9997
   9823SM  H12G13330   0.572   4.816  11.161 -0.1791 -1.0410 -0.2449
   9823SM  C13F13331   0.666   4.965  11.275 -0.2599  0.1944  0.2315
   9823SM  H13F13332   0.571   5.021  11.262 -0.7891 -0.3300  1.6676
   9823SM  H13G13333   0.744   5.043  11.264  0.0716 -0.2144 -0.3455
   9823SM  C14F13334   0.689   4.892  11.406 -0.3791  0.2701  0.0587
   9823SM  H14F13335   0.764   4.810  11.391 -0.4221 -0.0273  1.3292
   9823SM  H14G13336   0.595   4.837  11.430  0.0132 -0.1160  0.7454
   9823SM  C15F13337   0.738   4.982  11.515  0.0634 -0.3216 -0.4873
   9823SM  H15F13338   0.661   5.062  11.516 -0.2869 -0.6573 -0.8454
   9823SM  H15G13339   0.842   5.013  11.491  0.2703 -1.6844 -1.4477
   9823SM  C16F13340   0.743   4.911  11.652  0.2309 -0.7056  0.2299
   9823SM  H16F13341   0.846   4.870  11.650 -0.2001 -1.7827 -1.0056
   9823SM  H16G13342   0.673   4.825  11.656  0.0399 -0.5135  1.8267
   9823SM  C17F13343   0.732   5.004  11.777  0.0458 -0.1366 -0.5676
   9823SM  H17F13344   0.814   5.078  11.764 -1.1341  1.4264  0.5028
   9823SM  H17G13345   0.742   4.946  11.871 -3.5959 -0.7016 -0.3936
   9823SM  C18F13346   0.602   5.075  11.792  0.3357  0.2536 -0.3934
   9823SM  H18F13347   0.587   5.140  11.702  3.3027 -2.3414 -3.0225
   9823SM  H18G13348   0.598   5.137  11.884  1.1593  1.9596 -1.4516
   9823SM  C19F13349   0.480   4.971  11.794  0.0661 -0.0865  0.7778
   9823SM  H19F13350   0.523   4.869  11.804  0.9078  0.0670 -0.9368
   9823SM  H19G13351   0.434   4.972  11.693  0.8723  1.5168  0.4012
   9823SM  C20F13352   0.377   4.990  11.903  0.2902  0.6342 -0.2813
   9823SM  H20F13353   0.353   5.098  11.909 -0.2008  0.5258 -0.1778
   9823SM  H20G13354   0.419   4.960  12.001 -1.9027 -0.0182  0.5338
   9823SM  C21F13355   0.243   4.929  11.868 -1.0160  0.0909 -0.4474
   9823SM  H21F13356   0.270   4.825  11.842  1.4141  0.0575  1.7732
   9823SM  H21G13357   0.208   4.976  11.774 -0.1215 -1.1204 -1.4233
   9823SM  C22F13358   0.135   4.939  11.969 -0.0330  0.1047 -0.0569
   9823SM  H22F13359   0.039   4.902  11.926  0.5571  1.1599 -2.4003
   9823SM  H22G13360   0.122   5.047  11.989 -0.8598 -0.0134  0.0945
   9823SM  C23F13361   0.154   4.857  12.097 -0.5174 -0.1360  0.1424
   9823SM  H23F13362   0.166   4.754  12.056  0.7773 -0.1544  0.5244
   9823SM  H23G13363   0.062   4.854  12.158  1.3506 -1.2870  3.1399
   9823SM  H23H13364   0.248   4.884  12.150 -0.9482  0.8883  0.4026
   9923SM     N13365   1.601   5.249   8.917 -0.4220  0.5595 -0.0031
   9923SM   C1513366   1.503   5.356   8.896  0.1198 -0.0758  0.2007
   9923SM  H15A13367   1.512   5.384   8.791  1.3562  0.6584  0.4733
   9923SM  H15B13368   1.512   5.443   8.960  0.1324  0.2556 -0.2418
   9923SM  H15C13369   1.401   5.324   8.908  0.2002 -0.7148 -0.6833
   9923SM   C1413370   1.572   5.134   8.826 -0.5556  0.5822 -0.9787
   9923SM  H14A13371   1.633   5.048   8.849 -1.7525  0.0981  0.4751
   9923SM  H14B13372   1.573   5.155   8.720 -1.6730  0.9206 -0.9332
   9923SM  H14C13373   1.468   5.117   8.846 -0.5933 -0.4585 -1.9940
   9923SM   C1313374   1.738   5.302   8.884  0.1025  0.4637  0.5111
   9923SM  H13A13375   1.751   5.356   8.791  0.6212  3.1111  1.9935
   9923SM  H13B13376   1.817   5.232   8.902  0.2962  0.8998  1.4238
   9923SM  H13C13377   1.765   5.375   8.959 -0.0167  0.1386  0.8753
   9923SM   C1213378   1.596   5.208   9.061 -0.7534 -0.0241  0.7539
   9923SM  H12A13379   1.690   5.163   9.091 -1.2181 -2.3950 -1.0968
   9923SM  H12B13380   1.531   5.123   9.071  3.1231 -3.3424  0.4165
   9923SM   C1113381   1.577   5.312   9.170  0.2805 -0.0314  0.4335
   9923SM  H11A13382   1.540   5.260   9.261 -1.5490  2.1731  1.0284
   9923SM  H11B13383   1.494   5.380   9.142  0.8240  0.0560 -1.0328
   9923SM     P13384   1.820   5.361   9.279  0.4079 -0.6356 -0.5102
   9923SM   O1313385   1.831   5.215   9.285 -0.0982 -0.2073  0.2538
   9923SM   O1413386   1.945   5.436   9.237  0.7059 -0.7574 -0.4252
   9923SM   O1113387   1.776   5.401   9.424 -0.2511 -0.2437  0.5748
   9923SM   O1213388   1.696   5.388   9.185 -0.0883 -0.1133 -0.3180
   9923SM   C1S13389   1.712   5.535   9.440  0.5671  0.5322  0.0819
   9923SM   H1S13390   1.603   5.532   9.419  0.7200  0.4177 -0.7436
   9923SM   H1T13391   1.762   5.613   9.378 -1.2726  0.4930 -1.5506
   9923SM    NF13392   1.671   5.714   9.606 -0.5415 -0.1845  0.6297
   9923SM   HNF13393   1.735   5.779   9.644  1.6628 -1.3430 -0.8899
   9923SM   C2S13394   1.713   5.573   9.592 -0.3633 -0.7983  0.2450
   9923SM   H2S13395   1.637   5.506   9.639  1.5358 -3.3079  0.0096
   9923SM   C3S13396   1.845   5.539   9.664 -0.1099 -0.5803  0.3766
   9923SM   H3S13397   1.932   5.576   9.606  0.0422 -2.3708 -0.6414
   9923SM    O313398   1.873   5.402   9.664 -0.4564 -0.4500 -0.0767
   9923SM   HO313399   1.799   5.375   9.609  1.2750 -1.2323 -2.1375
   9923SM   C4S13400   1.841   5.583   9.803  0.4777 -0.1094  0.7927
   9923SM   H4S13401   1.769   5.533   9.869  0.5273 -0.3183  0.6904
   9923SM   C5S13402   1.915   5.686   9.855  0.1741 -0.7206 -0.2751
   9923SM   H5S13403   1.987   5.748   9.799  0.2222 -0.6626 -0.1500
   9923SM   C6S13404   1.866   5.728   9.998 -0.7491  0.5411  0.3022
   9923SM   H6S13405   1.756   5.721  10.010 -1.0519  1.6952 -1.3917
   9923SM   H6T13406   1.898   5.834  10.012  1.3149  0.0096 -0.0711
   9923SM   C7S13407   1.917   5.646  10.120 -0.2233 -0.0693 -0.1213
   9923SM   H7S13408   2.019   5.606  10.101 -0.4955 -0.9009  0.1159
   9923SM   H7T13409   1.861   5.552  10.140 -0.5893  0.4813  1.5252
   9923SM   C8S13410   1.915   5.735  10.251  0.3933 -0.3099 -0.3060
   9923SM   H8S13411   1.816   5.785  10.259 -0.0854 -1.1197 -0.9984
   9923SM   H8T13412   1.984   5.819  10.227 -0.9907  0.6449 -1.1014
   9923SM   C9S13413   1.959   5.657  10.378  0.5099 -0.1589 -0.8863
   9923SM   H9S13414   2.068   5.643  10.359  0.6274  1.8627 -1.9822
   9923SM   H9T13415   1.896   5.565  10.381  0.2207  0.0511 -0.6128
   9923SM  C10S13416   1.929   5.733  10.509  0.3811  0.3053  0.7205
   9923SM  H10S13417   1.820   5.750  10.498  0.1782 -1.4072 -0.2443
   9923SM  H10T13418   1.977   5.833  10.516  0.1775  0.4302  0.3452
   9923SM  C11S13419   1.958   5.653  10.643  0.7002 -0.2400 -0.9524
   9923SM  H11S13420   2.069   5.649  10.655  0.6028  0.8156  0.6611
   9923SM  H11T13421   1.917   5.550  10.646  0.4339 -0.1195 -0.0659
   9923SM  C12S13422   1.905   5.732  10.762 -0.5761  0.3998  0.1985
   9923SM  H12S13423   1.797   5.711  10.773 -0.7749  1.3020  0.0318
   9923SM  H12T13424   1.927   5.839  10.745  2.5514 -0.1838 -0.0242
   9923SM  C13S13425   1.962   5.700  10.894  0.4029 -0.1045  0.2033
   9923SM  H13S13426   2.073   5.701  10.886  0.4016 -1.3543 -0.1916
   9923SM  H13T13427   1.937   5.593  10.913 -2.5560  0.7930  2.0941
   9923SM  C14S13428   1.919   5.777  11.015  0.3416  0.9782  0.1155
   9923SM  H14S13429   1.817   5.750  11.051  0.4962  0.9357  0.5225
   9923SM  H14T13430   1.915   5.887  10.998  1.3784  1.0480  0.2870
   9923SM  C15S13431   2.005   5.752  11.140  0.2202  0.7083  0.4322
   9923SM  H15S13432   2.106   5.793  11.116 -0.3375  1.2821 -1.0836
   9923SM  H15T13433   2.009   5.643  11.160 -0.0244  0.5438 -0.3672
   9923SM  C16S13434   1.967   5.837  11.262  0.2169 -0.9337  0.0114
   9923SM  H16S13435   1.863   5.818  11.295 -0.5587  2.3772 -0.1997
   9923SM  H16T13436   1.955   5.938  11.219 -2.2531 -2.3186 -2.9317
   9923SM  C17S13437   2.071   5.813  11.369 -0.2067  0.3023 -1.0898
   9923SM  H17S13438   2.178   5.815  11.337  0.1081  0.2179 -0.0743
   9923SM  H17T13439   2.047   5.710  11.404  1.3828  0.1247 -0.4259
   9923SM  C18S13440   2.066   5.909  11.493 -0.0557 -0.3823  0.1082
   9923SM  H18S13441   2.152   5.885  11.559 -0.2186 -0.0529  0.4479
   9923SM  H18T13442   1.978   5.896  11.559 -0.1245  1.4313  0.4149
   9923SM  H18U13443   2.080   6.017  11.468  0.6747 -0.5905 -0.4171
   9923SM   C1F13444   1.547   5.749   9.565  0.3925 -0.3741 -0.5368
   9923SM    OF13445   1.457   5.665   9.555  0.1954 -0.0892  0.0657
   9923SM   C2F13446   1.521   5.891   9.575 -0.3463  0.1216  0.4685
   9923SM   H2F13447   1.414   5.906   9.549 -0.1364 -0.0247 -0.5624
   9923SM   H2G13448   1.575   5.946   9.494  1.8477 -3.0720 -0.4438
   9923SM   C3F13449   1.566   5.955   9.710 -0.2179  0.0081  0.4909
   9923SM   H3F13450   1.528   6.059   9.703 -0.8419 -0.2023  0.6586
   9923SM   H3G13451   1.677   5.959   9.707 -0.2203 -0.1052 -2.2527
   9923SM   C4F13452   1.520   5.894   9.844 -0.3474  0.2127 -0.1130
   9923SM   H4F13453   1.556   5.789   9.848  1.3121  0.7919  1.8319
   9923SM   H4G13454   1.409   5.893   9.848 -0.3632  1.5837  0.2424
   9923SM   C5F13455   1.572   5.968   9.964 -0.3030  0.1380  0.5053
   9923SM   H5F13456   1.529   6.071   9.968  1.7917  1.1049 -0.5029
   9923SM   H5G13457   1.682   5.978   9.969 -0.2770  0.1447  0.0013
   9923SM   C6F13458   1.527   5.901  10.089 -0.3782 -0.1164 -0.4522
   9923SM   H6F13459   1.572   5.800  10.092  0.3885  0.1943 -1.1244
   9923SM   H6G13460   1.416   5.899  10.090 -0.5669  3.3717 -0.7679
   9923SM   C7F13461   1.575   5.966  10.218  1.3116  0.0732  0.4935
   9923SM   H7F13462   1.537   6.069  10.198 -0.1735 -0.7409 -1.1796
   9923SM   H7G13463   1.686   5.970  10.216  1.3668 -1.0011 -1.7358
   9923SM   C8F13464   1.522   5.903  10.353 -0.4216  0.6235  0.1145
   9923SM   H8F13465   1.557   5.798  10.363  0.3307  0.5607 -2.4006
   9923SM   H8G13466   1.412   5.891  10.361 -0.8937 -1.5802 -5.2561
   9923SM   C9F13467   1.572   5.971  10.477 -0.0788  0.1733 -0.3185
   9923SM   H9F13468   1.554   6.080  10.462  1.9118  0.5130 -0.5484
   9923SM   H9G13469   1.683   5.968  10.478  0.0231  1.8402 -1.8415
   9923SM  C10F13470   1.521   5.910  10.610  0.2690  0.1831  0.6342
   9923SM  H10F13471   1.549   5.803  10.619 -0.3014 -0.0041  0.1984
   9923SM  H10G13472   1.412   5.929  10.619  0.3177 -0.1898  2.3970
   9923SM  C11F13473   1.581   5.986  10.736  0.7254  0.1563  0.0192
   9923SM  H11F13474   1.528   6.083  10.739 -0.7247 -0.6255  0.4357
   9923SM  H11G13475   1.689   6.010  10.722  0.5407 -0.5798 -3.7508
   9923SM  C12F13476   1.569   5.915  10.872  0.3262  0.0624  0.3072
   9923SM  H12F13477   1.640   5.831  10.889 -0.4772 -0.7299 -0.2035
   9923SM  H12G13478   1.465   5.876  10.876 -0.6780  2.6022  1.2965
   9923SM  C13F13479   1.569   6.011  10.991  0.2995  0.2700 -0.6102
   9923SM  H13F13480   1.515   6.107  10.975  1.9463  1.6522  1.5396
   9923SM  H13G13481   1.674   6.045  11.004  0.6054 -1.1479  0.8676
   9923SM  C14F13482   1.520   5.936  11.122  0.3113 -0.1998  0.3963
   9923SM  H14F13483   1.538   5.827  11.130 -0.7613 -0.2818  2.4470
   9923SM  H14G13484   1.410   5.951  11.126  0.0274 -1.0551 -2.2855
   9923SM  C15F13485   1.591   6.010  11.239 -1.2124 -0.2799 -0.3319
   9923SM  H15F13486   1.603   6.118  11.216 -1.3957  0.2155  1.7000
   9923SM  H15G13487   1.692   5.967  11.252 -1.7240 -1.4485 -0.0714
   9923SM  C16F13488   1.502   5.983  11.361 -0.6438  0.3025  0.3867
   9923SM  H16F13489   1.506   5.876  11.390 -0.1499  0.4950  1.0634
   9923SM  H16G13490   1.398   6.009  11.330 -0.4175  0.1416 -0.5050
   9923SM  C17F13491   1.553   6.063  11.481  0.4150  0.0887 -0.0112
   9923SM  H17F13492   1.568   6.168  11.447  2.5920  0.0528  0.7031
   9923SM  H17G13493   1.655   6.043  11.518 -0.1069 -0.2722  1.3052
   9923SM  C18F13494   1.449   6.066  11.598  0.2593  0.4703 -0.2408
   9923SM  H18F13495   1.448   5.966  11.646 -0.2142 -0.2316 -1.6667
   9923SM  H18G13496   1.347   6.084  11.557 -0.3699  0.3397  1.2081
   9923SM  C19F13497   1.470   6.166  11.710 -0.1770 -0.3017  0.1113
   9923SM  H19F13498   1.575   6.200  11.718 -1.0079  2.7228 -0.7759
   9923SM  H19G13499   1.456   6.115  11.808  1.9227  0.6861  0.9777
   9923SM  C20F13500   1.386   6.294  11.696  0.0525  0.2330  0.0466
   9923SM  H20F13501   1.277   6.270  11.700  0.0240  0.4623  1.0009
   9923SM  H20G13502   1.405   6.338  11.596  0.0423 -1.2633 -0.6430
   9923SM  C21F13503   1.412   6.393  11.805 -0.7421 -0.5926 -0.0662
   9923SM  H21F13504   1.511   6.435  11.778 -1.1997 -0.2590 -1.2967
   9923SM  H21G13505   1.422   6.363  11.912 -0.8345 -0.6289 -0.0669
   9923SM  C22F13506   1.307   6.508  11.809  0.5473  0.7730  0.6578
   9923SM  H22F13507   1.292   6.545  11.705 -0.5529  1.8586  1.1789
   9923SM  H22G13508   1.350   6.595  11.862  2.2684 -0.5024  1.4658
   9923SM  C23F13509   1.167   6.458  11.863 -0.1419  0.3992 -0.3488
   9923SM  H23F13510   1.128   6.363  11.823  0.5156 -0.0781  0.1248
   9923SM  H23G13511   1.089   6.535  11.845  1.3147  2.1637  0.5554
   9923SM  H23H13512   1.192   6.458  11.972  3.7887 -3.6187 -0.9680
  10023SM     N13513   2.103   6.224   8.933  0.2008 -0.0182 -0.0050
  10023SM   C1513514   2.035   6.136   8.830  0.7624 -0.1937  0.1827
  10023SM  H15A13515   1.929   6.151   8.840  1.1240  1.3655  2.2543
  10023SM  H15B13516   2.050   6.034   8.862  0.8685 -0.4814 -0.7569
  10023SM  H15C13517   2.070   6.145   8.728  1.1898 -0.6542  0.2855
  10023SM   C1413518   2.234   6.169   8.957  1.0254  0.0977 -0.5372
  10023SM  H14A13519   2.293   6.241   9.011  0.6967 -0.0988  0.0878
  10023SM  H14B13520   2.283   6.143   8.864 -1.5388  0.3450 -2.0276
  10023SM  H14C13521   2.225   6.075   9.011  0.8922  0.7372  0.5823
  10023SM   C1313522   2.104   6.363   8.877  0.4463 -0.4391  0.0361
  10023SM  H13A13523   2.014   6.384   8.820  0.5506  0.7362  0.2858
  10023SM  H13B13524   2.184   6.379   8.807  0.5298  2.8586  0.7440
  10023SM  H13C13525   2.116   6.446   8.944 -1.5805  0.4944 -0.6657
  10023SM   C1213526   2.025   6.222   9.067 -0.0302  0.7326 -0.0123
  10023SM  H12A13527   2.004   6.119   9.089 -0.8430  0.6984 -0.9016
  10023SM  H12B13528   1.924   6.250   9.040 -0.5173 -0.1545  0.8170
  10023SM   C1113529   2.078   6.303   9.186 -0.4703  0.8006  0.5154
  10023SM  H11A13530   2.013   6.290   9.275 -3.2074  0.5553 -1.4011
  10023SM  H11B13531   2.065   6.411   9.165 -1.6279  0.0532 -3.6769
  10023SM     P13532   2.247   6.154   9.310  0.1381  0.1750 -0.7118
  10023SM   O1313533   2.133   6.058   9.317  0.3748  0.2403  0.3123
  10023SM   O1413534   2.376   6.102   9.263  0.0262  0.6740  0.1743
  10023SM   O1113535   2.273   6.209   9.457 -0.3213  0.8260  0.4659
  10023SM   O1213536   2.209   6.279   9.226 -0.4617 -0.1312 -0.0830
  10023SM   C1S13537   2.223   6.319   9.522 -0.1440  0.4528 -0.0959
  10023SM   H1S13538   2.150   6.368   9.453 -2.8340 -1.0292  1.5254
  10023SM   H1T13539   2.307   6.390   9.539  1.5946 -1.6733  0.6339
  10023SM    NF13540   2.039   6.381   9.686 -0.4216  0.0865 -0.3433
  10023SM   HNF13541   2.049   6.419   9.778 -0.3327  0.1813 -0.3922
  10023SM   C2S13542   2.135   6.277   9.644  0.1554 -0.4605  0.5406
  10023SM   H2S13543   2.072   6.192   9.612 -0.7729  1.0808 -2.0383
  10023SM   C3S13544   2.229   6.235   9.753 -0.2267 -0.0880 -0.3313
  10023SM   H3S13545   2.298   6.319   9.776  0.4576 -1.0298  1.1715
  10023SM    O313546   2.323   6.129   9.725 -0.6890  0.0784  0.1582
  10023SM   HO313547   2.324   6.128   9.629  1.4999 -1.5708  0.1398
  10023SM   C4S13548   2.179   6.211   9.889 -0.1299  0.2607 -0.4244
  10023SM   H4S13549   2.177   6.303   9.951  0.7474 -0.9844  1.5551
  10023SM   C5S13550   2.135   6.096   9.946  0.3669  0.0906  0.4683
  10023SM   H5S13551   2.128   6.009   9.879  3.1772  0.4020 -0.3604
  10023SM   C6S13552   2.081   6.076  10.085  0.4113  0.3278 -0.5764
  10023SM   H6S13553   2.154   6.112  10.160 -2.1418  2.3853  1.1411
  10023SM   H6T13554   2.084   5.967  10.106  0.0091  0.4612  0.1980
  10023SM   C7S13555   1.936   6.120  10.094 -0.1026  0.0522 -0.1005
  10023SM   H7S13556   1.862   6.046  10.055 -3.2883  2.5349  0.7657
  10023SM   H7T13557   1.915   6.201  10.021 -0.3093 -1.8588 -2.3006
  10023SM   C8S13558   1.891   6.176  10.235  0.2440 -0.1375  0.2772
  10023SM   H8S13559   1.781   6.187  10.243  0.1535 -0.9990  0.3079
  10023SM   H8T13560   1.927   6.281  10.239 -3.7742  1.4455  0.1501
  10023SM   C9S13561   1.934   6.089  10.352 -0.3584  0.0596 -0.4039
  10023SM   H9S13562   2.044   6.075  10.350 -0.6526 -3.5225  1.3411
  10023SM   H9T13563   1.886   5.989  10.352  0.1235 -0.1794 -0.8434
  10023SM  C10S13564   1.902   6.153  10.488 -0.2840  0.3133 -0.4070
  10023SM  H10S13565   1.798   6.135  10.522  0.4248  1.5934  2.8268
  10023SM  H10T13566   1.904   6.263  10.470  1.3339  1.0243  3.2454
  10023SM  C11S13567   2.000   6.115  10.602  0.4587 -0.3116 -0.3786
  10023SM  H11S13568   2.100   6.147  10.566  0.3968  1.7122  1.0814
  10023SM  H11T13569   2.008   6.004  10.603  2.1512 -0.2694 -2.6441
  10023SM  C12S13570   1.965   6.192  10.737  0.2551 -0.0772 -0.2605
  10023SM  H12S13571   1.865   6.172  10.781  0.9491  2.3335  2.7232
  10023SM  H12T13572   1.969   6.301  10.717  0.0509 -0.1908 -0.9375
  10023SM  C13S13573   2.066   6.151  10.849 -0.2502 -0.4595  0.0187
  10023SM  H13S13574   2.168   6.174  10.811 -0.5028  0.3871 -0.1782
  10023SM  H13T13575   2.050   6.044  10.873 -1.7821 -0.4021 -0.6164
  10023SM  C14S13576   2.050   6.222  10.987  0.3849 -0.1064 -0.4452
  10023SM  H14S13577   1.946   6.209  11.025  1.1588 -1.9367  1.2315
  10023SM  H14T13578   2.062   6.331  10.972  2.2154 -0.3252 -0.7991
  10023SM  C15S13579   2.152   6.170  11.092  0.6075 -0.2718  0.0892
  10023SM  H15S13580   2.251   6.217  11.073  0.4125 -0.3796 -1.2745
  10023SM  H15T13581   2.160   6.063  11.065 -2.0767 -0.5345  0.0473
  10023SM  C16S13582   2.098   6.197  11.235 -0.4747 -0.0428  0.0446
  10023SM  H16S13583   2.166   6.147  11.306 -2.1716 -1.3835  0.8026
  10023SM  H16T13584   2.000   6.147  11.249 -0.4599 -0.7056 -1.8906
  10023SM  C17S13585   2.072   6.339  11.268 -0.4723  0.1714  0.1081
  10023SM  H17S13586   1.983   6.375  11.213  0.7724 -0.1185 -2.2053
  10023SM  H17T13587   2.169   6.385  11.242 -0.9937  2.0587  1.2976
  10023SM  C18S13588   2.048   6.355  11.420  0.0082  0.0911  0.7029
  10023SM  H18S13589   2.034   6.464  11.435 -0.0459  0.3523 -1.0363
  10023SM  H18T13590   2.136   6.316  11.476  2.2692  1.0227 -1.9816
  10023SM  H18U13591   1.960   6.298  11.457  1.1982 -1.5121  1.1609
  10023SM   C1F13592   1.924   6.414   9.621  0.6642  0.5719 -0.3527
  10023SM    OF13593   1.892   6.355   9.521 -0.2941  0.1605 -0.2981
  10023SM   C2F13594   1.841   6.522   9.674 -0.6418 -0.2138 -0.4166
  10023SM   H2F13595   1.815   6.585   9.587 -0.2004 -0.2903 -0.6058
  10023SM   H2G13596   1.897   6.588   9.743 -1.6023 -0.4089  0.5845
  10023SM   C3F13597   1.709   6.470   9.741  0.7225  0.0999 -0.3688
  10023SM   H3F13598   1.737   6.382   9.802 -0.1249 -1.1733 -1.7417
  10023SM   H3G13599   1.642   6.441   9.657  0.5320 -0.2052 -0.1068
  10023SM   C4F13600   1.643   6.581   9.830 -0.2264  0.1536 -0.0178
  10023SM   H4F13601   1.600   6.649   9.753  0.7629  0.7328 -0.0749
  10023SM   H4G13602   1.725   6.634   9.882 -1.1190  1.3436  0.2424
  10023SM   C5F13603   1.547   6.526   9.930  0.0331 -0.3760  0.1682
  10023SM   H5F13604   1.476   6.454   9.884 -0.7281  0.1264  0.5347
  10023SM   H5G13605   1.485   6.613   9.964 -2.1787 -0.9262 -2.1367
  10023SM   C6F13606   1.614   6.453  10.046  0.2439 -0.6242 -0.0557
  10023SM   H6F13607   1.717   6.491  10.063  0.4975 -1.7820  1.1295
  10023SM   H6G13608   1.624   6.348  10.012 -0.6558 -0.3235 -1.3228
  10023SM   C7F13609   1.534   6.475  10.182 -0.2519 -0.3429  0.3363
  10023SM   H7F13610   1.428   6.443  10.179  0.4151 -3.0459  2.0195
  10023SM   H7G13611   1.533   6.586  10.194  0.3367 -0.4218  1.2306
  10023SM   C8F13612   1.609   6.420  10.301  0.2766 -0.5523  0.7701
  10023SM   H8F13613   1.717   6.443  10.291  0.2492 -0.2032  1.2110
  10023SM   H8G13614   1.584   6.311  10.302 -0.7433 -0.3730 -0.9546
  10023SM   C9F13615   1.560   6.485  10.434 -0.1047 -0.2212 -0.6239
  10023SM   H9F13616   1.450   6.477  10.441  0.0742 -1.0371  2.6067
  10023SM   H9G13617   1.605   6.587  10.431  0.2235 -0.2618  1.4841
  10023SM  C10F13618   1.618   6.414  10.558  0.4701 -0.5805 -0.3475
  10023SM  H10F13619   1.727   6.410  10.538  1.1726  3.5039  1.7915
  10023SM  H10G13620   1.566   6.317  10.574  0.3651 -0.3165  0.9962
  10023SM  C11F13621   1.592   6.498  10.685  0.1214  0.4285  0.2539
  10023SM  H11F13622   1.482   6.505  10.691  0.1918  1.0860  0.9736
  10023SM  H11G13623   1.634   6.600  10.675 -1.2685  0.9403 -0.6004
  10023SM  C12F13624   1.644   6.422  10.803 -0.0984 -0.7268 -0.5804
  10023SM  H12F13625   1.753   6.421  10.784  0.1752 -1.5701  0.9283
  10023SM  H12G13626   1.606   6.318  10.798 -0.2182 -0.6886 -0.4688
  10023SM  C13F13627   1.619   6.489  10.935  0.0761 -0.0638  0.0881
  10023SM  H13F13628   1.510   6.509  10.938  0.0200 -0.0249 -1.2346
  10023SM  H13G13629   1.666   6.590  10.927 -1.4553  0.7520  1.1077
  10023SM  C14F13630   1.664   6.410  11.058 -0.3160  0.6114 -0.1517
  10023SM  H14F13631   1.753   6.350  11.029 -0.9110  0.3679 -1.5459
  10023SM  H14G13632   1.587   6.334  11.080  0.3741 -0.1968 -0.4805
  10023SM  C15F13633   1.695   6.493  11.184  0.0415  0.2027  0.1153
  10023SM  H15F13634   1.745   6.588  11.157  2.0281 -0.8580 -0.1491
  10023SM  H15G13635   1.758   6.437  11.256 -1.6045 -2.0242 -0.0673
  10023SM  C16F13636   1.562   6.534  11.256  0.0837  0.2598 -0.5197
  10023SM  H16F13637   1.515   6.436  11.281 -0.9443  0.8720 -0.0069
  10023SM  H16G13638   1.496   6.599  11.196 -0.1399  0.5020 -0.0234
  10023SM  C17F13639   1.582   6.598  11.398  0.4679  0.2028 -0.1059
  10023SM  H17F13640   1.667   6.669  11.390  1.6197 -1.2887 -2.1628
  10023SM  H17G13641   1.625   6.516  11.460  1.1861 -0.8790 -1.9553
  10023SM  C18F13642   1.470   6.673  11.468 -0.2050  0.1918 -0.2198
  10023SM  H18F13643   1.379   6.618  11.497 -1.5999  2.7819  0.5651
  10023SM  H18G13644   1.432   6.746  11.393  2.4183  0.4048 -1.4814
  10023SM  C19F13645   1.511   6.733  11.603 -0.5281  0.2549  0.2043
  10023SM  H19F13646   1.600   6.791  11.571 -0.4868  0.4636  0.6935
  10023SM  H19G13647   1.546   6.657  11.676 -0.0541 -2.2685 -2.4516
  10023SM  C20F13648   1.414   6.837  11.647  0.1381  0.0420  0.7490
  10023SM  H20F13649   1.323   6.788  11.688 -0.6766  0.6234 -0.3204
  10023SM  H20G13650   1.374   6.891  11.558  1.8611 -0.7321 -0.5493
  10023SM  C21F13651   1.484   6.937  11.740 -0.6739  0.2583  0.4465
  10023SM  H21F13652   1.571   6.983  11.690 -0.8847 -0.9511 -1.1103
  10023SM  H21G13653   1.529   6.872  11.819  0.2757  2.7091  2.0454
  10023SM  C22F13654   1.380   7.025  11.797 -0.1450  0.0831  0.0102
  10023SM  H22F13655   1.328   7.079  11.715 -0.9272 -2.5738 -1.3580
  10023SM  H22G13656   1.432   7.088  11.872  0.8126 -0.5966 -0.0800
  10023SM  C23F13657   1.264   6.959  11.876 -0.6715 -0.3207 -0.5283
  10023SM  H23F13658   1.214   7.035  11.940  0.8560  0.6121 -0.4006
  10023SM  H23G13659   1.302   6.881  11.946 -0.4256  0.5147  0.2881
  10023SM  H23H13660   1.187   6.915  11.808 -0.6459 -0.4169 -0.4955
  101CHL1    C313661   4.921   3.997  14.677 -0.0773 -0.4297  0.3002
  101CHL1    H313662   5.028   4.027  14.680 -0.0263 -0.2718 -1.6773
  101CHL1    O313663   4.855   4.022  14.797  0.0579  0.0186 -0.1871
  101CHL1   H3'13664   4.767   3.985  14.788 -0.0157  0.4444 -1.3781
  101CHL1    C413665   4.835   4.059  14.566 -0.0937 -0.2663 -0.4849
  101CHL1   H4A13666   4.734   4.014  14.573 -0.0720 -0.4412 -1.2434
  101CHL1   H4B13667   4.838   4.170  14.573 -0.2550 -0.1579 -1.8511
  101CHL1    C513668   4.895   4.022  14.431  0.1691 -0.1121 -0.0896
  101CHL1    C613669   4.918   4.125  14.347 -0.8754 -0.1819  0.0585
  101CHL1    H613670   4.904   4.229  14.381  1.7829  0.6484 -1.1356
  101CHL1    C713671   4.964   4.102  14.210  0.1007  0.2582 -0.4167
  101CHL1   H7A13672   4.906   4.159  14.135  0.1306  0.0846 -0.5716
  101CHL1   H7B13673   5.064   4.146  14.190 -0.0817  0.2277 -1.4385
  101CHL1    C813674   4.966   3.963  14.165  1.0049 -0.2484 -0.2129
  101CHL1    H813675   4.862   3.937  14.139  1.1390  0.5735 -1.6846
  101CHL1   C1413676   5.060   3.947  14.042  0.3118  0.2168  0.1476
  101CHL1   H1413677   5.164   3.971  14.075  0.1329  2.1031 -0.5223
  101CHL1   C1513678   5.033   4.048  13.924 -0.6220 -0.5767 -0.4397
  101CHL1  H15A13679   4.925   4.046  13.899 -0.7061 -1.6277 -0.0686
  101CHL1  H15B13680   5.060   4.151  13.954 -1.9059 -0.4361  0.3552
  101CHL1   C1613681   5.107   3.983  13.805  1.2927  0.0240 -0.5290
  101CHL1  H16A13682   5.027   3.964  13.730 -0.3683  0.0829  1.1456
  101CHL1  H16B13683   5.198   4.038  13.772  1.4275 -1.0997 -2.1277
  101CHL1   C1713684   5.147   3.845  13.859 -0.6264  0.0969  0.1362
  101CHL1   H1713685   5.251   3.856  13.895 -0.3480 -0.8070 -0.3655
  101CHL1   C1313686   5.059   3.809  13.979 -0.6771 -0.4470 -0.1754
  101CHL1   C1813687   4.915   3.781  13.932 -0.0741  0.3023  0.7425
  101CHL1  H18A13688   4.918   3.678  13.891  0.7672 -0.1073  1.7957
  101CHL1  H18B13689   4.839   3.783  14.013 -0.4718 -1.9875  0.4955
  101CHL1  H18C13690   4.889   3.859  13.857  0.7754  0.7367  0.8941
  101CHL1   C1213691   5.104   3.709  14.080  0.1427 -0.1741 -0.0267
  101CHL1  H12A13692   5.106   3.604  14.044 -2.1068  0.1613 -1.3009
  101CHL1  H12B13693   5.212   3.737  14.084  0.3183 -0.7561 -0.5516
  101CHL1   C1113694   5.026   3.722  14.213 -0.1175  0.2022 -0.5705
  101CHL1  H11A13695   4.922   3.694  14.186 -0.0116 -0.9829  0.1772
  101CHL1  H11B13696   5.061   3.658  14.296 -2.1423 -0.8837 -0.4959
  101CHL1    C913697   5.014   3.867  14.276  0.1938  0.0556 -0.2208
  101CHL1    H913698   5.115   3.906  14.304  0.3730  0.5406 -1.4555
  101CHL1   C1013699   4.923   3.872  14.408 -0.1728  0.7343 -0.4317
  101CHL1   C1913700   4.792   3.796  14.368 -0.0344 -0.1983 -0.1090
  101CHL1  H19A13701   4.706   3.806  14.438  0.4460  2.7051  0.2299
  101CHL1  H19B13702   4.754   3.827  14.269 -2.3524 -0.1212  0.7365
  101CHL1  H19C13703   4.820   3.690  14.381  0.7649  0.1156  0.9295
  101CHL1    C113704   4.997   3.814  14.525  0.2452 -0.2987 -0.2275
  101CHL1   H1A13705   5.003   3.703  14.518  2.5173 -0.3127  1.1409
  101CHL1   H1B13706   5.101   3.853  14.527  0.3010 -0.2213 -2.2209
  101CHL1    C213707   4.934   3.848  14.659 -0.1618 -0.2936  0.2111
  101CHL1   H2A13708   5.000   3.807  14.738  1.5065  0.7742 -0.5919
  101CHL1   H2B13709   4.831   3.809  14.675 -0.4147 -1.0528 -2.7162
  101CHL1   C2013710   5.151   3.733  13.753  0.3904 -0.1497 -0.0044
  101CHL1   H2013711   5.046   3.718  13.721  0.1457 -0.7567  1.0104
  101CHL1   C2113712   5.193   3.591  13.790 -0.5401  0.6203 -0.4224
  101CHL1  H21A13713   5.110   3.540  13.843 -0.5571  1.5310  0.4531
  101CHL1  H21B13714   5.274   3.590  13.867 -2.3014 -1.3795  1.5417
  101CHL1  H21C13715   5.229   3.529  13.705  1.1864  1.2348 -0.1944
  101CHL1   C2213716   5.233   3.785  13.623 -0.1581  1.1760 -0.2678
  101CHL1  H22A13717   5.192   3.883  13.592 -2.2779  0.4328  0.0283
  101CHL1  H22B13718   5.335   3.812  13.658  0.1882  0.7414 -0.9337
  101CHL1   C2313719   5.249   3.686  13.510 -0.2444  0.0545 -0.1268
  101CHL1  H23A13720   5.300   3.736  13.425 -1.2011  1.9180  0.3514
  101CHL1  H23B13721   5.303   3.595  13.545  1.7524  0.7151 -1.3373
  101CHL1   C2413722   5.120   3.636  13.455  0.5965  0.1747  0.4237
  101CHL1  H24A13723   5.052   3.589  13.529 -0.6606 -0.1766 -0.8928
  101CHL1  H24B13724   5.061   3.720  13.413 -0.6850 -0.0596  1.6510
  101CHL1   C2513725   5.124   3.528  13.335 -0.2589  0.3414 -0.1090
  101CHL1   H2513726   5.175   3.439  13.379  0.4190  1.1891  0.8626
  101CHL1   C2613727   4.979   3.497  13.302  0.2536  1.0119 -0.5911
  101CHL1  H26A13728   4.937   3.433  13.383  0.9630 -0.2388 -1.1748
  101CHL1  H26B13729   4.928   3.594  13.288 -0.7134  0.3651 -1.8420
  101CHL1  H26C13730   4.956   3.457  13.200  0.1597  0.3681 -0.3244
  101CHL1   C2713731   5.196   3.581  13.209  0.6775  0.6187 -0.4832
  101CHL1  H27A13732   5.293   3.635  13.210  0.3569  1.2819 -2.0410
  101CHL1  H27B13733   5.212   3.501  13.134  2.0736 -0.2769  0.7142
  101CHL1  H27C13734   5.127   3.649  13.155  0.9923  1.5121  0.2187
  102CHL1    C313735   4.032   4.249  14.529 -0.6612  0.1791 -0.1593
  102CHL1    H313736   4.142   4.238  14.539 -0.7437 -0.9062 -0.2853
  102CHL1    O313737   3.977   4.263  14.656 -0.3822 -0.6569  0.0249
  102CHL1   H3'13738   4.018   4.197  14.712  1.1904  0.6566  0.4928
  102CHL1    C413739   4.007   4.376  14.446  0.1484 -0.1071  0.5487
  102CHL1   H4A13740   3.897   4.385  14.437  0.3443  0.0578 -2.7786
  102CHL1   H4B13741   4.051   4.465  14.497 -0.7099  1.3622 -1.1836
  102CHL1    C513742   4.050   4.363  14.300  0.0840 -0.7605 -0.3595
  102CHL1    C613743   4.134   4.449  14.243  0.1265  0.1287  0.3113
  102CHL1    H613744   4.165   4.545  14.288 -2.7730  0.5481  1.7099
  102CHL1    C713745   4.164   4.456  14.098 -0.6749 -0.1742  1.0672
  102CHL1   H7A13746   4.133   4.555  14.059  2.8568  0.3437 -0.8389
  102CHL1   H7B13747   4.274   4.437  14.090 -0.5259  0.8364  0.6134
  102CHL1    C813748   4.101   4.350  14.004  1.1461  0.3385  0.1657
  102CHL1    H813749   4.006   4.400  13.976  1.6489  0.4879 -1.3416
  102CHL1   C1413750   4.181   4.319  13.876  0.4674 -0.5478 -0.9234
  102CHL1   H1413751   4.276   4.276  13.916 -0.1979  0.2340  1.7357
  102CHL1   C1513752   4.218   4.445  13.788 -0.0747 -0.0589  0.5823
  102CHL1  H15A13753   4.118   4.488  13.764  0.0597 -1.5014 -3.1122
  102CHL1  H15B13754   4.293   4.514  13.833  0.3631 -0.9025  1.1795
  102CHL1   C1613755   4.276   4.363  13.673 -0.2909  0.0132 -0.1900
  102CHL1  H16A13756   4.250   4.404  13.573  1.4016  1.0168 -0.2546
  102CHL1  H16B13757   4.387   4.364  13.670 -0.2869  1.2800 -2.8091
  102CHL1   C1713758   4.230   4.213  13.679  0.2228 -0.0761 -0.2423
  102CHL1   H1713759   4.316   4.156  13.721  0.8570  0.6144 -0.5843
  102CHL1   C1313760   4.124   4.209  13.793  0.5297 -0.8716 -0.3174
  102CHL1   C1813761   3.992   4.244  13.732  0.0408  0.0653  1.0426
  102CHL1  H18A13762   3.920   4.291  13.802  2.2768  3.2181  1.4765
  102CHL1  H18B13763   4.001   4.319  13.651 -2.8682 -1.2392 -0.6260
  102CHL1  H18C13764   3.952   4.153  13.683  1.2724 -0.1954  0.4883
  102CHL1   C1213765   4.120   4.082  13.878 -0.6395 -0.0926 -0.1272
  102CHL1  H12A13766   4.065   4.001  13.825 -2.9708  1.1844  0.1817
  102CHL1  H12B13767   4.224   4.054  13.905 -1.6264 -1.6222  2.4968
  102CHL1   C1113768   4.024   4.100  14.000 -0.2285  0.8645 -0.1686
  102CHL1  H11A13769   3.921   4.121  13.964 -1.3220 -1.7421  1.1779
  102CHL1  H11B13770   4.032   4.007  14.060 -0.6511  0.5471 -0.6013
  102CHL1    C913771   4.074   4.220  14.091 -0.0350  0.0388  0.0219
  102CHL1    H913772   4.177   4.192  14.121  0.6631  0.9460 -1.3837
  102CHL1   C1013773   3.998   4.240  14.224  0.1385  0.1274  0.2853
  102CHL1   C1913774   3.845   4.255  14.193  0.1522 -0.0146 -0.1528
  102CHL1  H19A13775   3.836   4.341  14.124 -0.3049  0.1779  0.1360
  102CHL1  H19B13776   3.810   4.170  14.131  0.0139  0.6279 -0.9654
  102CHL1  H19C13777   3.785   4.276  14.285  1.4402  2.3664  0.2347
  102CHL1    C113778   4.020   4.115  14.315 -0.3166  0.1359  0.1800
  102CHL1   H1A13779   3.962   4.026  14.280  0.7517 -0.7803  0.6959
  102CHL1   H1B13780   4.128   4.088  14.312 -0.8416 -2.1857 -1.3394
  102CHL1    C213781   3.972   4.131  14.462  0.1167 -0.3145  0.0722
  102CHL1   H2A13782   4.000   4.038  14.515 -1.1644  0.2733  1.8857
  102CHL1   H2B13783   3.861   4.143  14.464  0.0230 -1.1953  0.5441
  102CHL1   C2013784   4.204   4.154  13.548  0.1315  0.1165  0.2014
  102CHL1   H2013785   4.126   4.206  13.488  1.7336 -2.0533 -4.1880
  102CHL1   C2113786   4.160   4.009  13.564 -0.8713 -0.2779  0.4318
  102CHL1  H21A13787   4.141   3.973  13.461 -0.9633 -2.3215  1.1244
  102CHL1  H21B13788   4.064   3.995  13.618 -0.5236 -0.7922  0.9253
  102CHL1  H21C13789   4.239   3.954  13.620  2.3450  1.1341 -2.3739
  102CHL1   C2213790   4.333   4.163  13.464  0.1269 -0.2234  0.6528
  102CHL1  H22A13791   4.362   4.270  13.458 -0.9556  0.2353  2.6981
  102CHL1  H22B13792   4.416   4.110  13.515 -0.0585 -2.0202 -0.7913
  102CHL1   C2313793   4.330   4.099  13.322  0.4051  0.8434 -0.0129
  102CHL1  H23A13794   4.319   3.989  13.333  0.4234  0.9397  1.1835
  102CHL1  H23B13795   4.233   4.123  13.275  0.0036 -2.1057 -0.8957
  102CHL1   C2413796   4.444   4.145  13.238  0.0135 -0.0716  0.5895
  102CHL1  H24A13797   4.433   4.255  13.232  0.7527  0.1206  2.3422
  102CHL1  H24B13798   4.543   4.118  13.280  1.5545  0.4220 -2.4501
  102CHL1   C2513799   4.435   4.100  13.094 -0.7388  0.3486  0.6889
  102CHL1   H2513800   4.425   3.990  13.101  1.6031  0.1614  2.3444
  102CHL1   C2613801   4.314   4.161  13.017  0.3536  0.8070  0.1855
  102CHL1  H26A13802   4.307   4.269  13.042  3.3937  0.8226  1.2729
  102CHL1  H26B13803   4.322   4.128  12.911 -0.5095  1.7549 -0.1962
  102CHL1  H26C13804   4.225   4.109  13.060  0.6897  0.1203  0.0547
  102CHL1   C2713805   4.566   4.114  13.020 -0.1074  0.6139 -0.6937
  102CHL1  H27A13806   4.646   4.062  13.076  0.3674  0.0187 -1.8987
  102CHL1  H27B13807   4.564   4.063  12.921  0.8284 -1.1081  0.1291
  102CHL1  H27C13808   4.594   4.221  13.014 -1.6623  1.2233  1.5299
  103CHL1    C313809   3.213   2.399  13.806 -0.4668  0.2919 -0.0268
  103CHL1    H313810   3.313   2.359  13.779 -0.0965  1.2499 -0.1178
  103CHL1    O313811   3.216   2.382  13.949  0.8477  0.3054  0.0154
  103CHL1   H3'13812   3.138   2.430  13.979 -0.2180 -0.8776 -0.7808
  103CHL1    C413813   3.194   2.548  13.762 -0.4940  0.3147  0.2315
  103CHL1   H4A13814   3.093   2.582  13.796 -0.9677 -0.6665 -0.1505
  103CHL1   H4B13815   3.269   2.608  13.818 -0.9551 -1.2596  2.7028
  103CHL1    C513816   3.210   2.550  13.611 -0.0163 -0.2851 -0.7588
  103CHL1    C613817   3.315   2.608  13.550 -0.3309 -0.6480 -0.0971
  103CHL1    H613818   3.393   2.669  13.599 -0.2695  0.7046 -1.7933
  103CHL1    C713819   3.324   2.621  13.402 -0.4480 -0.3268  0.6937
  103CHL1   H7A13820   3.354   2.724  13.371 -0.2339 -0.1968  1.3255
  103CHL1   H7B13821   3.396   2.547  13.360  0.0833  0.6561 -0.1776
  103CHL1    C813822   3.188   2.590  13.321 -0.4635  0.5138  0.2549
  103CHL1    H813823   3.122   2.679  13.331  0.3803  0.9821  1.9916
  103CHL1   C1413824   3.221   2.553  13.176  0.1970 -0.2467 -0.1200
  103CHL1   H1413825   3.280   2.459  13.180  0.8561  0.1363 -0.5672
  103CHL1   C1513826   3.303   2.651  13.094  0.4229 -0.0495  0.5230
  103CHL1  H15A13827   3.254   2.750  13.109  0.7740  0.3330 -0.7018
  103CHL1  H15B13828   3.413   2.647  13.109  0.4144  0.2351  0.6701
  103CHL1   C1613829   3.269   2.611  12.948  0.1449 -0.7573  0.3006
  103CHL1  H16A13830   3.219   2.701  12.906  1.6435  1.3480  2.7052
  103CHL1  H16B13831   3.362   2.598  12.888 -1.3880 -1.8774 -2.0096
  103CHL1   C1713832   3.183   2.481  12.954 -0.3402 -1.4946 -0.3067
  103CHL1   H1713833   3.263   2.405  12.965  0.3129 -0.5899  1.6682
  103CHL1   C1313834   3.107   2.509  13.083 -0.2708 -0.1795 -0.1900
  103CHL1   C1813835   3.006   2.623  13.075 -0.0265 -0.3828 -0.2267
  103CHL1  H18A13836   2.914   2.588  13.024 -0.4621  0.1045  0.2112
  103CHL1  H18B13837   2.978   2.660  13.176  0.1626  1.5793 -0.8466
  103CHL1  H18C13838   3.045   2.713  13.022 -0.3082 -1.3810 -2.2246
  103CHL1   C1213839   3.034   2.389  13.154 -0.8955 -0.4234  0.5706
  103CHL1  H12A13840   2.951   2.353  13.090  0.5496  0.0585 -1.6588
  103CHL1  H12B13841   3.101   2.301  13.142 -0.8546 -0.3204  0.0547
  103CHL1   C1113842   3.000   2.412  13.300  0.0060  0.3649  0.2364
  103CHL1  H11A13843   2.927   2.494  13.303  1.6828  1.9703 -0.7690
  103CHL1  H11B13844   2.959   2.318  13.344  1.4935 -0.1408  0.6235
  103CHL1    C913845   3.124   2.466  13.379  0.1557  0.2933 -0.1199
  103CHL1    H913846   3.208   2.396  13.360  1.3711  0.7034  3.0683
  103CHL1   C1013847   3.100   2.473  13.534 -0.0032  0.2076 -0.2479
  103CHL1   C1913848   2.963   2.547  13.554 -0.2678  0.3044 -0.1344
  103CHL1  H19A13849   2.923   2.526  13.656 -2.9038 -1.9089 -1.4925
  103CHL1  H19B13850   2.960   2.655  13.529 -2.1002  0.2357 -0.3042
  103CHL1  H19C13851   2.889   2.483  13.502  0.7574 -1.9475  1.0169
  103CHL1    C113852   3.093   2.323  13.598 -0.2948 -0.4385 -0.4730
  103CHL1   H1A13853   3.001   2.276  13.559 -2.6594  3.2088  0.2421
  103CHL1   H1B13854   3.184   2.270  13.563 -0.2395  0.8971 -2.5348
  103CHL1    C213855   3.101   2.318  13.752  0.3912 -0.2695  0.5104
  103CHL1   H2A13856   3.115   2.212  13.785  1.9233 -0.4451 -0.5835
  103CHL1   H2B13857   3.008   2.354  13.799 -0.2005 -0.9243 -0.1367
  103CHL1   C2013858   3.107   2.461  12.830 -0.5123 -0.1563  0.5508
  103CHL1   H2013859   3.022   2.532  12.824 -1.0766 -0.9113 -3.3433
  103CHL1   C2113860   3.046   2.314  12.827  0.0138  0.1598  0.0625
  103CHL1  H21A13861   3.028   2.261  12.924  1.5110 -1.2970 -0.4088
  103CHL1  H21B13862   3.126   2.252  12.782 -0.0734 -0.0742  0.2257
  103CHL1  H21C13863   2.959   2.312  12.758 -0.5829  2.5076  0.6414
  103CHL1   C2213864   3.177   2.494  12.697  0.2362  0.6343 -0.6508
  103CHL1  H22A13865   3.225   2.592  12.717  0.8891  0.1895  0.0131
  103CHL1  H22B13866   3.253   2.413  12.685  0.0737 -0.1937  2.8473
  103CHL1   C2313867   3.090   2.498  12.575 -0.2881 -0.3339  0.0619
  103CHL1  H23A13868   3.051   2.394  12.576  1.1757 -0.9403 -1.4630
  103CHL1  H23B13869   3.012   2.575  12.589  1.4490  1.6742 -0.6965
  103CHL1   C2413870   3.146   2.513  12.430  0.2576  0.1114  0.3146
  103CHL1  H24A13871   3.071   2.477  12.356  1.4978 -1.0638 -0.4325
  103CHL1  H24B13872   3.178   2.614  12.396  3.7312 -0.5259  1.2740
  103CHL1   C2513873   3.277   2.421  12.408 -0.3958  0.6630  0.2600
  103CHL1   H2513874   3.357   2.446  12.481 -0.1646  0.7247 -0.0148
  103CHL1   C2613875   3.254   2.269  12.409  0.5857  0.2140  0.5879
  103CHL1  H26A13876   3.339   2.203  12.378  1.9297  1.1629  2.0427
  103CHL1  H26B13877   3.238   2.243  12.516 -0.7010 -0.5376  0.2244
  103CHL1  H26C13878   3.167   2.232  12.352  0.3067  0.5306  0.8069
  103CHL1   C2713879   3.341   2.457  12.269 -0.6986 -0.8434  0.0607
  103CHL1  H27A13880   3.278   2.416  12.187 -0.7510 -1.2605  0.3098
  103CHL1  H27B13881   3.333   2.568  12.258 -3.2760 -0.8253  1.3063
  103CHL1  H27C13882   3.446   2.421  12.260  0.2590  1.6641  0.1693
  104CHL1    C313883   0.713   5.312  13.995 -0.2673 -0.1671  0.5300
  104CHL1    H313884   0.806   5.251  13.993  0.6444  1.1853  0.3002
  104CHL1    O313885   0.689   5.350  14.125 -0.4992  0.1734 -0.2455
  104CHL1   H3'13886   0.613   5.408  14.114  0.5852  1.3329 -2.0173
  104CHL1    C413887   0.710   5.448  13.917 -0.2583 -0.2138 -0.5318
  104CHL1   H4A13888   0.614   5.496  13.949  0.3867  0.2661  0.7397
  104CHL1   H4B13889   0.790   5.519  13.946 -0.4305  0.3147 -1.2982
  104CHL1    C513890   0.707   5.416  13.769 -0.3170  0.4883  0.3108
  104CHL1    C613891   0.797   5.467  13.691 -0.4307 -0.5339 -0.3120
  104CHL1    H613892   0.883   5.528  13.724 -1.3987  1.2467 -0.9393
  104CHL1    C713893   0.813   5.449  13.544 -0.1607 -0.5089 -0.0373
  104CHL1   H7A13894   0.814   5.546  13.489 -0.8792 -1.0616 -1.0676
  104CHL1   H7B13895   0.898   5.383  13.520 -1.9352 -3.3613  1.0624
  104CHL1    C813896   0.683   5.381  13.483 -0.1725  0.2030  0.2604
  104CHL1    H813897   0.614   5.469  13.478 -1.2219 -0.6188 -0.1036
  104CHL1   C1413898   0.708   5.337  13.340 -0.5169  0.2105 -0.6821
  104CHL1   H1413899   0.780   5.254  13.355  1.8240  2.5175  2.1337
  104CHL1   C1513900   0.777   5.433  13.237 -0.0258  0.3441  0.0616
  104CHL1  H15A13901   0.749   5.538  13.257 -1.2042  0.4457 -1.8612
  104CHL1  H15B13902   0.888   5.431  13.231  0.4098  4.5049  2.6047
  104CHL1   C1613903   0.739   5.383  13.095 -0.4978 -0.2479 -0.4148
  104CHL1  H16A13904   0.664   5.451  13.049 -1.3941  0.4102  1.8838
  104CHL1  H16B13905   0.828   5.360  13.032  0.8350 -0.9859  1.6290
  104CHL1   C1713906   0.655   5.249  13.130  0.2396 -0.2888  0.0102
  104CHL1   H1713907   0.733   5.173  13.154  0.4932 -0.2578 -0.6904
  104CHL1   C1313908   0.595   5.267  13.268  0.2992 -0.0577 -0.2022
  104CHL1   C1813909   0.479   5.374  13.260  0.3521  0.1380 -0.8378
  104CHL1  H18A13910   0.518   5.453  13.193  0.5654  1.4633  0.7888
  104CHL1  H18B13911   0.386   5.323  13.225  1.0340 -1.9267  0.1679
  104CHL1  H18C13912   0.459   5.408  13.364  1.4816  0.5506 -0.7431
  104CHL1   C1213913   0.557   5.143  13.350 -0.1855  0.0042  0.5854
  104CHL1  H12A13914   0.479   5.085  13.297 -0.0442  0.9372 -0.7062
  104CHL1  H12B13915   0.654   5.088  13.349 -0.0586  0.2268  0.7614
  104CHL1   C1113916   0.516   5.186  13.493  0.5056  0.0161  0.0557
  104CHL1  H11A13917   0.419   5.240  13.493 -1.6335 -3.4106  2.2396
  104CHL1  H11B13918   0.500   5.093  13.552 -2.0323  0.1942 -0.2176
  104CHL1    C913919   0.631   5.268  13.569 -0.4830  0.4694 -0.7588
  104CHL1    H913920   0.708   5.188  13.571 -1.4627 -0.4723  0.6477
  104CHL1   C1013921   0.602   5.311  13.715  0.3807 -0.3939 -0.7386
  104CHL1   C1913922   0.466   5.390  13.720  0.7677 -0.0680 -0.2962
  104CHL1  H19A13923   0.441   5.419  13.824  3.4120 -2.6079  1.2014
  104CHL1  H19B13924   0.488   5.486  13.669 -0.5431 -0.1398 -1.0296
  104CHL1  H19C13925   0.381   5.339  13.669  0.1656  0.2677  0.3540
  104CHL1    C113926   0.599   5.187  13.810 -0.2822 -0.2822  0.2993
  104CHL1   H1A13927   0.504   5.138  13.780  0.8240 -2.0192 -0.5215
  104CHL1   H1B13928   0.683   5.117  13.789  0.2306  0.2690  0.4607
  104CHL1    C213929   0.592   5.221  13.959 -0.1267  0.0717 -0.0104
  104CHL1   H2A13930   0.590   5.121  14.008 -1.9683 -0.4153 -1.0162
  104CHL1   H2B13931   0.501   5.281  13.980  0.5553  1.5893 -1.1703
  104CHL1   C2013932   0.572   5.184  13.019 -0.1128  0.5549 -0.0760
  104CHL1   H2013933   0.464   5.207  13.034 -0.5284 -0.9615 -0.5323
  104CHL1   C2113934   0.590   5.032  13.031  0.0987 -0.1639 -0.4258
  104CHL1  H21A13935   0.696   5.004  13.014  0.3103 -1.7255  2.8215
  104CHL1  H21B13936   0.534   4.977  12.951  1.7994  1.6952 -3.0610
  104CHL1  H21C13937   0.562   4.988  13.129 -0.3619  1.4007  0.1713
  104CHL1   C2213938   0.589   5.227  12.876 -0.3338 -0.1891  0.7038
  104CHL1  H22A13939   0.696   5.233  12.846 -0.4815  0.0297  0.2126
  104CHL1  H22B13940   0.556   5.141  12.814 -0.2411  0.0284  0.3521
  104CHL1   C2313941   0.512   5.355  12.836 -0.2922  0.4578  0.8921
  104CHL1  H23A13942   0.413   5.351  12.888  0.2630 -3.0120  1.9463
  104CHL1  H23B13943   0.575   5.443  12.859 -0.8778  1.9319 -2.5657
  104CHL1   C2413944   0.487   5.354  12.682  0.4686  0.1531  0.1138
  104CHL1  H24A13945   0.405   5.284  12.657  0.7751 -0.1159 -0.1489
  104CHL1  H24B13946   0.451   5.456  12.656 -2.5777 -0.6100  0.9841
  104CHL1   C2513947   0.612   5.343  12.590 -0.2630 -0.4094 -0.1764
  104CHL1   H2513948   0.650   5.239  12.585  0.7936 -0.0128 -0.8976
  104CHL1   C2613949   0.582   5.378  12.445  0.0076 -0.2387 -0.4077
  104CHL1  H26A13950   0.677   5.380  12.386  0.4758 -2.5312  0.1646
  104CHL1  H26B13951   0.520   5.298  12.400 -0.3937 -0.1220 -0.0688
  104CHL1  H26C13952   0.536   5.475  12.418  1.3299  0.8719  1.1274
  104CHL1   C2713953   0.746   5.424  12.626  0.3924 -1.2412  0.4130
  104CHL1  H27A13954   0.767   5.424  12.736 -0.9855  1.1194  0.7430
  104CHL1  H27B13955   0.835   5.389  12.570 -0.7056  0.2923 -2.5022
  104CHL1  H27C13956   0.720   5.531  12.612 -0.6482 -1.6299 -0.8422
  105CHL1    C313957   0.131   2.275  14.351  0.1270 -0.3075  0.4702
  105CHL1    H313958   0.228   2.328  14.339 -0.5564  0.8990  0.1568
  105CHL1    O313959   0.103   2.266  14.490 -0.2026 -0.0605 -0.1477
  105CHL1   H3'13960   0.011   2.243  14.501 -0.5214  1.9818  2.4422
  105CHL1    C413961   0.025   2.369  14.279 -1.3095 -0.1159 -0.0460
  105CHL1   H4A13962  -0.080   2.339  14.300 -1.6237  0.6681 -0.4226
  105CHL1   H4B13963   0.056   2.466  14.326 -1.0487 -0.2646  0.0900
  105CHL1    C513964   0.042   2.382  14.132  0.6528 -0.1177 -0.3443
  105CHL1    C613965   0.052   2.504  14.075  0.4689  0.3432  0.0564
  105CHL1    H613966   0.049   2.596  14.135  1.4874 -0.7371  1.8693
  105CHL1    C713967   0.068   2.516  13.922  0.1086  0.0883  0.0486
  105CHL1   H7A13968  -0.012   2.584  13.887 -2.1379 -2.2788  0.2773
  105CHL1   H7B13969   0.169   2.560  13.903 -0.8231  2.5960  0.5351
  105CHL1    C813970   0.044   2.378  13.841  0.2614  0.0787 -0.5092
  105CHL1    H813971  -0.066   2.372  13.836 -0.1937  4.0490  1.1323
  105CHL1   C1413972   0.100   2.386  13.707  0.0731 -0.1569 -0.4611
  105CHL1   H1413973   0.207   2.411  13.717  0.3504 -1.2030 -0.6751
  105CHL1   C1513974   0.045   2.491  13.608  0.2872  0.3207  0.9949
  105CHL1  H15A13975  -0.065   2.504  13.615  0.2611 -0.3581  2.0076
  105CHL1  H15B13976   0.086   2.593  13.626  1.2418  0.7409 -2.7641
  105CHL1   C1613977   0.084   2.436  13.468  0.0651 -0.0991 -0.5120
  105CHL1  H16A13978  -0.010   2.418  13.411 -1.0030 -1.2671  1.5026
  105CHL1  H16B13979   0.149   2.510  13.416 -0.4345 -0.1081 -1.1743
  105CHL1   C1713980   0.151   2.298  13.489 -0.5359  0.7451  0.3339
  105CHL1   H1713981   0.260   2.320  13.500 -0.6311  0.9931  0.7586
  105CHL1   C1313982   0.098   2.251  13.626 -0.1220 -0.1869  0.5638
  105CHL1   C1813983  -0.050   2.205  13.603 -0.1684  0.0956 -1.1184
  105CHL1  H18A13984  -0.092   2.199  13.706  1.7247  2.4663 -0.1115
  105CHL1  H18B13985  -0.113   2.268  13.536 -1.4621 -2.0723 -2.0530
  105CHL1  H18C13986  -0.058   2.101  13.564  1.3697 -0.3857 -0.2125
  105CHL1   C1213987   0.187   2.151  13.696 -0.3580  0.3121  0.1652
  105CHL1  H12A13988   0.186   2.057  13.638 -0.2866 -0.5474  1.5209
  105CHL1  H12B13989   0.290   2.191  13.710 -0.6130  0.6306  1.2677
  105CHL1   C1113990   0.137   2.138  13.836  0.3390 -0.0484  0.3984
  105CHL1  H11A13991   0.042   2.080  13.832  1.2489 -1.5102 -1.4080
  105CHL1  H11B13992   0.202   2.076  13.900 -0.4952  0.0028  1.3126
  105CHL1    C913993   0.117   2.268  13.919 -0.6440 -0.0290  0.4462
  105CHL1    H913994   0.214   2.321  13.932 -0.7331  0.8937 -2.1635
  105CHL1   C1013995   0.063   2.252  14.063  0.2208 -0.4634 -0.0313
  105CHL1   C1913996  -0.086   2.189  14.050 -0.4920 -0.8498 -0.4293
  105CHL1  H19A13997  -0.084   2.083  14.018 -1.5540 -0.7363 -0.8940
  105CHL1  H19B13998  -0.135   2.178  14.149  0.5464 -0.3060  0.1684
  105CHL1  H19C13999  -0.149   2.251  13.983 -0.3218  0.0048  0.1752
  105CHL1    C114000   0.156   2.151  14.143  0.1680  0.8808 -0.0652
  105CHL1   H1A14001   0.159   2.053  14.092  0.7636  0.1455  1.3300
  105CHL1   H1B14002   0.260   2.193  14.144  0.5126  0.0527 -0.5229
  105CHL1    C214003   0.112   2.144  14.292  0.4967 -0.4029  0.5160
  105CHL1   H2A14004   0.166   2.058  14.336  0.0870 -0.0972  1.6572
  105CHL1   H2B14005   0.007   2.107  14.300  1.2539 -2.7631  0.3127
  105CHL1   C2014006   0.143   2.201  13.367 -0.2189  0.5326 -0.7151
  105CHL1   H2014007   0.058   2.131  13.380 -0.0155  0.4901  0.4327
  105CHL1   C2114008   0.273   2.122  13.366 -0.0173  0.0375  0.1526
  105CHL1  H21A14009   0.265   2.046  13.285  0.1701 -1.4042  1.4304
  105CHL1  H21B14010   0.292   2.068  13.461  1.0405 -1.0107 -0.6230
  105CHL1  H21C14011   0.365   2.184  13.356  0.4258 -0.8279 -1.5911
  105CHL1   C2214012   0.120   2.280  13.238 -0.0686  0.5543  1.0990
  105CHL1  H22A14013   0.010   2.299  13.231 -0.2513 -0.5900  0.6559
  105CHL1  H22B14014   0.176   2.376  13.235  0.3768  0.2772  0.1366
  105CHL1   C2314015   0.156   2.208  13.104  0.3294  0.5720  0.1815
  105CHL1  H23A14016   0.266   2.189  13.097  0.1657 -0.2673 -0.2110
  105CHL1  H23B14017   0.107   2.109  13.104  1.0914  0.1198 -2.3046
  105CHL1   C2414018   0.110   2.283  12.977 -0.4899 -0.4258  0.2315
  105CHL1  H24A14019  -0.001   2.288  12.984 -0.3488  1.1985  2.1540
  105CHL1  H24B14020   0.152   2.383  12.957  2.6438 -1.5557  0.5536
  105CHL1   C2514021   0.135   2.203  12.850 -0.0935 -0.4747 -0.1033
  105CHL1   H2514022   0.085   2.258  12.767 -0.0815 -2.3334 -1.4197
  105CHL1   C2614023   0.285   2.192  12.815  0.0673 -0.0300 -0.8479
  105CHL1  H26A14024   0.343   2.127  12.883 -0.3930  0.4135 -0.0123
  105CHL1  H26B14025   0.282   2.146  12.714 -0.2726 -2.3283  0.1596
  105CHL1  H26C14026   0.327   2.295  12.821  0.5775 -0.2967  0.6245
  105CHL1   C2714027   0.065   2.065  12.847 -0.1241  0.7098  0.0690
  105CHL1  H27A14028   0.111   1.994  12.920  0.6475 -0.9218 -1.8962
  105CHL1  H27B14029  -0.039   2.084  12.880 -0.4110  0.1707 -0.5222
  105CHL1  H27C14030   0.069   2.006  12.753  0.0096 -1.0217  1.1202
  106CHL1    C314031   2.179   4.332  14.174 -0.6715 -0.2868  1.3187
  106CHL1    H314032   2.096   4.262  14.152 -1.5431  1.2673 -0.5581
  106CHL1    O314033   2.191   4.359  14.308 -1.2381  0.4836  0.0844
  106CHL1   H3'14034   2.239   4.441  14.324 -2.0737  0.8312  0.9608
  106CHL1    C414035   2.311   4.281  14.128 -0.4273  0.1912  0.0297
  106CHL1   H4A14036   2.390   4.356  14.148 -0.1254 -0.3418  0.8728
  106CHL1   H4B14037   2.336   4.185  14.177 -0.6265 -0.2244 -0.6609
  106CHL1    C514038   2.302   4.263  13.980  0.2828  0.6280 -0.0390
  106CHL1    C614039   2.336   4.150  13.921  0.9061 -0.0098 -0.2779
  106CHL1    H614040   2.373   4.076  13.994  0.2149 -1.1606 -1.0525
  106CHL1    C714041   2.345   4.124  13.775 -0.3866  0.1956 -0.1403
  106CHL1   H7A14042   2.441   4.077  13.746 -1.1168 -1.9595  0.8002
  106CHL1   H7B14043   2.270   4.051  13.738  0.7784 -0.2793 -1.6573
  106CHL1    C814044   2.330   4.254  13.686 -0.1339  0.0761 -0.7418
  106CHL1    H814045   2.426   4.310  13.690 -0.5100  0.7699 -1.2379
  106CHL1   C1414046   2.289   4.213  13.553  1.0798 -0.3115 -0.5823
  106CHL1   H1414047   2.187   4.171  13.566 -0.2022  2.1015 -1.9932
  106CHL1   C1514048   2.377   4.101  13.488 -0.0533 -0.8928 -0.0326
  106CHL1  H15A14049   2.483   4.098  13.520  0.0486  3.3551  0.6509
  106CHL1  H15B14050   2.343   3.998  13.514  1.5722 -1.0512  1.6339
  106CHL1   C1614051   2.369   4.125  13.336 -0.6631 -0.3624 -0.0473
  106CHL1  H16A14052   2.462   4.159  13.285  1.2346 -3.5954  0.9477
  106CHL1  H16B14053   2.327   4.042  13.275 -1.3738 -0.0224 -0.0322
  106CHL1   C1714054   2.260   4.238  13.321  0.1175 -0.1928 -0.5644
  106CHL1   H1714055   2.162   4.187  13.335 -0.0075  0.5309  1.5671
  106CHL1   C1314056   2.272   4.325  13.455  0.0617  0.4952  0.0708
  106CHL1   C1814057   2.408   4.405  13.458 -0.3148  0.0903  0.3755
  106CHL1  H18A14058   2.426   4.465  13.550 -0.2957 -0.1653  0.5419
  106CHL1  H18B14059   2.489   4.329  13.450 -0.4075 -0.4004  3.0335
  106CHL1  H18C14060   2.420   4.479  13.377  0.2927 -0.3762  0.0377
  106CHL1   C1214061   2.161   4.423  13.501 -0.1554  0.4448  0.1100
  106CHL1  H12A14062   2.155   4.518  13.443  1.6589  0.3273 -0.3326
  106CHL1  H12B14063   2.066   4.369  13.488  0.7187 -1.3369  0.7954
  106CHL1   C1114064   2.172   4.463  13.653 -0.3408 -0.2953 -0.3987
  106CHL1  H11A14065   2.251   4.541  13.657  0.4633 -1.1207  0.3179
  106CHL1  H11B14066   2.070   4.500  13.679 -0.4921  0.1695 -1.5577
  106CHL1    C914067   2.216   4.347  13.743 -0.6142  0.5743  0.5162
  106CHL1    H914068   2.130   4.277  13.744  0.3224 -0.6012  0.6485
  106CHL1   C1014069   2.254   4.386  13.894  0.2390  0.6007 -0.0169
  106CHL1   C1914070   2.372   4.485  13.895 -0.1143  0.0961  0.0188
  106CHL1  H19A14071   2.466   4.425  13.894  1.1277  1.9411  0.2435
  106CHL1  H19B14072   2.381   4.560  13.814  0.0037  0.5815  0.4719
  106CHL1  H19C14073   2.362   4.539  13.992 -0.4349 -0.2309  0.1707
  106CHL1    C114074   2.120   4.436  13.959 -0.2841 -0.1569 -0.3943
  106CHL1   H1A14075   2.084   4.527  13.907  0.4123 -0.5401 -1.5853
  106CHL1   H1B14076   2.038   4.362  13.960 -1.5772  1.2300 -0.7278
  106CHL1    C214077   2.141   4.462  14.104  0.0081 -0.1978 -0.1312
  106CHL1   H2A14078   2.045   4.497  14.147 -1.5875 -0.3863 -3.2496
  106CHL1   H2B14079   2.221   4.535  14.131  0.3527 -1.3135  2.0500
  106CHL1   C2014080   2.278   4.320  13.190  0.1328  0.2418  0.3619
  106CHL1   H2014081   2.365   4.388  13.189 -0.4102  1.0333 -2.4986
  106CHL1   C2114082   2.154   4.404  13.160  0.0023 -0.1373 -0.3865
  106CHL1  H21A14083   2.173   4.475  13.076 -0.6627  0.2116 -0.2406
  106CHL1  H21B14084   2.116   4.463  13.245  1.1715 -1.3931  1.0653
  106CHL1  H21C14085   2.073   4.339  13.123 -0.0761  0.7691 -1.8959
  106CHL1   C2214086   2.290   4.222  13.070  0.2245  0.3333 -0.5968
  106CHL1  H22A14087   2.381   4.158  13.075  0.2436  0.3918 -0.1358
  106CHL1  H22B14088   2.196   4.164  13.064 -0.2076  0.7036  1.7550
  106CHL1   C2314089   2.311   4.292  12.928 -0.5260  0.4509  0.0936
  106CHL1  H23A14090   2.224   4.345  12.883  0.1048 -0.2383 -2.0330
  106CHL1  H23B14091   2.401   4.355  12.948 -0.8986  1.1745 -0.4643
  106CHL1   C2414092   2.359   4.193  12.820 -0.1801 -0.3152  0.2514
  106CHL1  H24A14093   2.376   4.253  12.728  0.9658 -1.2164 -0.1578
  106CHL1  H24B14094   2.456   4.151  12.855  0.5453  1.3221  0.2986
  106CHL1   C2514095   2.269   4.078  12.780  0.2749  0.1316  0.0002
  106CHL1   H2514096   2.252   4.017  12.871  0.0737 -0.1484 -0.2247
  106CHL1   C2614097   2.131   4.113  12.717 -0.4113  0.3988  0.1160
  106CHL1  H26A14098   2.150   4.175  12.626 -3.0429  2.0266  0.5450
  106CHL1  H26B14099   2.089   4.016  12.682  0.7264 -0.9225  2.2171
  106CHL1  H26C14100   2.077   4.177  12.790  0.4800  0.6519  0.5691
  106CHL1   C2714101   2.355   3.992  12.681  0.3854  0.4904 -0.6806
  106CHL1  H27A14102   2.295   3.908  12.641 -2.1938  2.7245 -1.7944
  106CHL1  H27B14103   2.366   4.047  12.585 -0.1488 -2.6087 -2.6522
  106CHL1  H27C14104   2.454   3.958  12.720  0.0707 -1.0372 -1.1534
  107CHL1    C314105   5.676   6.054  13.652  0.3598  0.3011  0.0067
  107CHL1    H314106   5.616   5.961  13.649  0.4932  0.2170 -0.0750
  107CHL1    O314107   5.643   6.141  13.767 -0.1685  0.2700 -0.2021
  107CHL1   H3'14108   5.718   6.125  13.825  2.3614 -0.7640 -3.4784
  107CHL1    C414109   5.826   6.024  13.645  0.2142 -0.7943 -0.1138
  107CHL1   H4A14110   5.884   6.119  13.653 -0.4733 -0.2318 -1.5104
  107CHL1   H4B14111   5.862   5.976  13.739  1.4064  0.3387  0.0342
  107CHL1    C514112   5.870   5.954  13.518  0.2615  0.0630  0.4053
  107CHL1    C614113   5.930   5.831  13.514 -0.2858 -0.0759 -0.4139
  107CHL1    H614114   5.954   5.787  13.612  0.1454 -1.0387 -0.9451
  107CHL1    C714115   5.970   5.764  13.385  0.2187 -0.5248  0.0846
  107CHL1   H7A14116   6.064   5.704  13.393 -0.7783 -2.2839 -0.9187
  107CHL1   H7B14117   5.902   5.682  13.355 -0.8700  0.3013  0.2153
  107CHL1    C814118   5.988   5.861  13.264  0.2656  0.2738 -0.0394
  107CHL1    H814119   6.076   5.927  13.279  0.0793  0.9986 -1.8755
  107CHL1   C1414120   6.007   5.780  13.138  0.0383  0.2685  0.0150
  107CHL1   H1414121   5.920   5.711  13.128  0.7573 -0.4585 -1.6571
  107CHL1   C1514122   6.122   5.676  13.121  0.4830 -0.0388 -0.1653
  107CHL1  H15A14123   6.215   5.724  13.159 -1.0034  3.0920 -0.1810
  107CHL1  H15B14124   6.093   5.583  13.175 -0.6113 -0.3193 -1.2083
  107CHL1   C1614125   6.132   5.660  12.965  0.6436 -0.2256 -0.0866
  107CHL1  H16A14126   6.233   5.696  12.935  0.7556  0.0166  0.5752
  107CHL1  H16B14127   6.120   5.553  12.935  1.4881 -0.0417 -1.1521
  107CHL1   C1714128   6.023   5.749  12.900 -0.2617  0.1023 -0.6091
  107CHL1   H1714129   5.922   5.702  12.902 -0.0876 -0.2558  1.7264
  107CHL1   C1314130   5.999   5.863  13.002 -0.3312  0.6347  0.3636
  107CHL1   C1814131   6.123   5.973  13.004 -0.9805  0.2343  0.0075
  107CHL1  H18A14132   6.124   6.027  12.907  3.1489  1.1415  0.3912
  107CHL1  H18B14133   6.108   6.038  13.093 -0.2272 -1.9617  1.8500
  107CHL1  H18C14134   6.221   5.921  13.014 -1.2929 -0.1333  1.4368
  107CHL1   C1214135   5.867   5.946  13.010 -0.4335  0.2834 -0.7791
  107CHL1  H12A14136   5.854   6.008  12.918 -0.0711 -1.2215 -1.8783
  107CHL1  H12B14137   5.777   5.881  13.009 -0.8304  0.8301 -1.2761
  107CHL1   C1114138   5.843   6.037  13.133 -0.0167  0.3549 -0.2990
  107CHL1  H11A14139   5.924   6.113  13.129  1.6301 -1.3362 -0.7689
  107CHL1  H11B14140   5.744   6.081  13.111  0.0945  0.6213 -0.2746
  107CHL1    C914141   5.857   5.953  13.263 -0.3872  1.5782 -0.7178
  107CHL1    H914142   5.778   5.876  13.255  1.3772 -0.3561 -0.3099
  107CHL1   C1014143   5.833   6.028  13.393  0.8023  0.1622  0.2071
  107CHL1   C1914144   5.919   6.148  13.384  0.0620  0.1316  0.1655
  107CHL1  H19A14145   5.903   6.216  13.470 -0.6621 -1.0655  0.9907
  107CHL1  H19B14146   6.028   6.135  13.363  0.3600  0.6516  1.3242
  107CHL1  H19C14147   5.879   6.214  13.304 -2.6275 -0.8315  0.6318
  107CHL1    C114148   5.682   6.076  13.393 -0.9536  1.0463 -0.5917
  107CHL1   H1A14149   5.651   6.134  13.304  2.0165  0.5494 -2.0703
  107CHL1   H1B14150   5.623   5.982  13.388 -0.3956  0.7638 -2.6334
  107CHL1    C214151   5.632   6.140  13.524 -0.3648  0.4193  0.2546
  107CHL1   H2A14152   5.522   6.150  13.526 -0.2643  1.6946  2.2493
  107CHL1   H2B14153   5.683   6.238  13.539  0.9775  0.3453 -3.0363
  107CHL1   C2014154   6.065   5.784  12.760  0.1520  0.3837 -0.1429
  107CHL1   H2014155   6.152   5.852  12.769  0.7921  0.1484 -3.3290
  107CHL1   C2114156   5.956   5.856  12.684  0.0187  0.7612 -0.0404
  107CHL1  H21A14157   5.998   5.878  12.583  2.2695 -3.2959 -0.2064
  107CHL1  H21B14158   5.923   5.947  12.738 -0.3937  1.2097 -1.0207
  107CHL1  H21C14159   5.869   5.788  12.673  1.8091 -1.9340  1.2603
  107CHL1   C2214160   6.130   5.665  12.675 -0.6272 -0.2797  0.4575
  107CHL1  H22A14161   6.214   5.619  12.732 -0.8889 -0.6922  0.5117
  107CHL1  H22B14162   6.066   5.576  12.660 -1.0751  0.3044 -1.3411
  107CHL1   C2314163   6.197   5.718  12.547  0.9990  0.1076 -0.3756
  107CHL1  H23A14164   6.117   5.762  12.484  1.0069  1.7077  0.6818
  107CHL1  H23B14165   6.260   5.806  12.572 -0.3678  1.1321 -0.4726
  107CHL1   C2414166   6.259   5.613  12.466 -0.5962 -0.5220 -0.3199
  107CHL1  H24A14167   6.308   5.534  12.528 -0.8652 -0.7954 -0.4536
  107CHL1  H24B14168   6.180   5.545  12.429 -0.9310  0.0337 -0.6397
  107CHL1   C2514169   6.357   5.652  12.360  0.2841 -0.4607 -0.2297
  107CHL1   H2514170   6.437   5.721  12.394  0.6406 -2.1036  2.5036
  107CHL1   C2614171   6.441   5.533  12.313 -0.1816 -0.0003 -0.4085
  107CHL1  H26A14172   6.513   5.502  12.391 -0.9279 -1.1916 -0.1675
  107CHL1  H26B14173   6.385   5.438  12.297 -0.3346 -0.0592  0.4209
  107CHL1  H26C14174   6.491   5.561  12.218  3.4382  0.4114  1.4803
  107CHL1   C2714175   6.281   5.733  12.249  0.1772  0.5829 -0.0140
  107CHL1  H27A14176   6.217   5.665  12.189  1.2249  0.0948 -0.5954
  107CHL1  H27B14177   6.213   5.801  12.306 -1.1964  0.1824 -1.1218
  107CHL1  H27C14178   6.346   5.793  12.182  2.2483  0.6080  1.8849
  108CHL1    C314179   6.655   1.546  14.314 -1.2829 -0.3873  0.0072
  108CHL1    H314180   6.682   1.442  14.286  2.0646  1.2073 -3.5030
  108CHL1    O314181   6.664   1.560  14.456  0.1435  0.8710  0.2702
  108CHL1   H3'14182   6.739   1.505  14.479  0.5633  1.6384  0.7670
  108CHL1    C414183   6.755   1.647  14.264 -0.2703  0.0112  0.0881
  108CHL1   H4A14184   6.721   1.750  14.291 -0.3723  0.0511 -0.1944
  108CHL1   H4B14185   6.851   1.623  14.316 -0.5635 -2.1321 -0.2980
  108CHL1    C514186   6.769   1.656  14.113 -0.4612  0.4156 -0.4763
  108CHL1    C614187   6.884   1.625  14.055 -0.0454 -0.6572  0.2082
  108CHL1    H614188   6.973   1.606  14.117  0.7972  2.6062  0.1309
  108CHL1    C714189   6.911   1.628  13.905 -0.1382  0.4019 -0.1690
  108CHL1   H7A14190   6.997   1.690  13.871  1.6319 -0.7743  1.9068
  108CHL1   H7B14191   6.934   1.521  13.892 -2.8974 -0.4311  1.0971
  108CHL1    C814192   6.787   1.681  13.824  0.4284 -0.5559 -0.1405
  108CHL1    H814193   6.787   1.791  13.838 -1.4513 -0.7353  1.7763
  108CHL1   C1414194   6.804   1.652  13.675 -0.0427 -0.1926  0.0823
  108CHL1   H1414195   6.802   1.541  13.666  1.0197 -0.0812 -2.1898
  108CHL1   C1514196   6.922   1.722  13.601  0.1618  1.1064 -0.0710
  108CHL1  H15A14197   6.934   1.827  13.638  2.6326 -0.0128  2.7482
  108CHL1  H15B14198   7.021   1.683  13.634 -0.1318 -1.3177 -1.8633
  108CHL1   C1614199   6.890   1.694  13.451 -0.3991 -0.1013  0.0404
  108CHL1  H16A14200   6.910   1.783  13.388  0.3321  0.5181  1.1164
  108CHL1  H16B14201   6.962   1.616  13.419 -1.3028 -0.7444 -0.4748
  108CHL1   C1714202   6.734   1.653  13.440 -0.1389 -0.7321  0.0226
  108CHL1   H1714203   6.737   1.542  13.441 -0.8913 -0.7530  0.2554
  108CHL1   C1314204   6.681   1.689  13.587 -0.3585  0.2786 -0.2608
  108CHL1   C1814205   6.661   1.839  13.594  0.8718 -0.3072  0.7142
  108CHL1  H18A14206   6.565   1.858  13.540  1.0031 -0.5350  0.3976
  108CHL1  H18B14207   6.642   1.879  13.696 -1.2451  0.9705 -0.1076
  108CHL1  H18C14208   6.742   1.893  13.541  2.5181 -2.3973  0.9922
  108CHL1   C1214209   6.559   1.609  13.639  0.3020 -0.2695 -0.8029
  108CHL1  H12A14210   6.471   1.621  13.572 -0.1855 -1.8712 -0.4941
  108CHL1  H12B14211   6.593   1.503  13.639  1.2534 -0.0105  1.1164
  108CHL1   C1114212   6.537   1.636  13.789  0.1821 -0.3692  0.8990
  108CHL1  H11A14213   6.490   1.735  13.803 -3.1512 -1.8374  1.0989
  108CHL1  H11B14214   6.462   1.565  13.831  2.0300 -1.9862  1.6878
  108CHL1    C914215   6.659   1.616  13.884 -0.2232 -0.4741 -0.5253
  108CHL1    H914216   6.677   1.506  13.885  1.0716 -0.3205  2.6545
  108CHL1   C1014217   6.640   1.665  14.030 -0.8743 -0.4361 -0.1112
  108CHL1   C1914218   6.590   1.809  14.037 -0.8905  0.3736 -0.8985
  108CHL1  H19A14219   6.674   1.870  13.997 -2.3458  2.3696 -1.0723
  108CHL1  H19B14220   6.494   1.823  13.983 -0.9155 -1.0477 -1.2576
  108CHL1  H19C14221   6.567   1.849  14.138  0.4063 -0.1944 -0.3634
  108CHL1    C114222   6.523   1.586  14.101  0.0764  0.0885 -0.1628
  108CHL1   H1A14223   6.429   1.634  14.066  1.9416  2.1176 -2.9020
  108CHL1   H1B14224   6.525   1.484  14.058 -0.2089  0.3418 -0.8048
  108CHL1    C214225   6.518   1.587  14.259 -0.2938 -0.2422 -0.0040
  108CHL1   H2A14226   6.450   1.505  14.290 -2.7579  1.6574 -0.0873
  108CHL1   H2B14227   6.488   1.686  14.300  0.4097  0.7083 -1.6656
  108CHL1   C2014228   6.659   1.709  13.322  0.1866  0.4812  0.6130
  108CHL1   H2014229   6.635   1.816  13.341 -1.1298  0.2058  0.6158
  108CHL1   C2114230   6.518   1.634  13.316  0.9698  0.0101  0.4585
  108CHL1  H21A14231   6.474   1.644  13.214  1.0986  1.6609  0.5400
  108CHL1  H21B14232   6.447   1.678  13.389  1.3025  0.1080  0.7247
  108CHL1  H21C14233   6.533   1.527  13.343 -0.0811 -0.0540  0.8199
  108CHL1   C2214234   6.718   1.684  13.185  0.0140  0.4738  0.0362
  108CHL1  H22A14235   6.826   1.710  13.178 -0.4470  2.0900 -2.8270
  108CHL1  H22B14236   6.695   1.578  13.164 -2.3285  0.9076  0.2098
  108CHL1   C2314237   6.654   1.784  13.077 -0.7985  0.6088 -1.0490
  108CHL1  H23A14238   6.543   1.783  13.080 -0.9513 -3.7443  1.7428
  108CHL1  H23B14239   6.688   1.886  13.107  1.8366 -0.4247 -0.2121
  108CHL1   C2414240   6.705   1.764  12.936  0.9311  0.0785  0.6580
  108CHL1  H24A14241   6.656   1.841  12.874  1.2559 -1.9741 -2.3463
  108CHL1  H24B14242   6.817   1.768  12.937  0.9885  0.4519 -1.7621
  108CHL1   C2514243   6.679   1.627  12.869 -0.6043 -0.4367 -0.1383
  108CHL1   H2514244   6.708   1.547  12.940  1.4278  1.4620  1.3223
  108CHL1   C2614245   6.534   1.604  12.842  0.5827  0.2820 -0.2475
  108CHL1  H26A14246   6.478   1.578  12.935 -0.5133 -1.5475 -1.3629
  108CHL1  H26B14247   6.479   1.687  12.794 -2.4839 -1.4119  0.1015
  108CHL1  H26C14248   6.519   1.510  12.786 -1.7071 -0.8318  2.0251
  108CHL1   C2714249   6.767   1.623  12.745 -0.1528  0.4247  0.1942
  108CHL1  H27A14250   6.875   1.633  12.771  0.2221 -0.9097 -0.7611
  108CHL1  H27B14251   6.758   1.522  12.699  0.2559  0.8240 -0.7935
  108CHL1  H27C14252   6.741   1.694  12.664  0.8272 -1.7925 -2.2363
  109CHL1    C314253   4.416   5.936  14.010 -0.0681 -0.0164 -0.1287
  109CHL1    H314254   4.526   5.920  14.011  0.0597  0.8470  0.3695
  109CHL1    O314255   4.386   5.992  14.138  0.0277  0.0331 -0.7940
  109CHL1   H3'14256   4.294   6.018  14.136 -0.0259 -0.0628 -3.6706
  109CHL1    C414257   4.372   6.045  13.909  0.1297 -0.1205 -0.0326
  109CHL1   H4A14258   4.270   6.084  13.932  0.6025  1.5239 -0.5698
  109CHL1   H4B14259   4.439   6.129  13.938 -0.9598  1.1642 -1.1103
  109CHL1    C514260   4.390   5.990  13.771 -0.0204 -0.6063  0.0508
  109CHL1    C614261   4.458   6.064  13.677 -0.0504  0.5139  0.0416
  109CHL1    H614262   4.508   6.160  13.699  2.1837 -0.0114 -2.2624
  109CHL1    C714263   4.463   6.033  13.534  0.1896 -0.5459  0.0750
  109CHL1   H7A14264   4.462   6.126  13.473  1.8436 -1.9046 -2.2155
  109CHL1   H7B14265   4.561   5.988  13.506  0.1138  0.3399 -1.8303
  109CHL1    C814266   4.349   5.931  13.484 -0.3455 -0.7459 -0.1297
  109CHL1    H814267   4.250   5.981  13.481  0.3036  0.5236 -1.0386
  109CHL1   C1414268   4.377   5.884  13.341 -0.2333  0.0176  0.8317
  109CHL1   H1414269   4.484   5.853  13.341  0.6388  2.6433 -1.0175
  109CHL1   C1514270   4.372   5.985  13.226  0.2232  0.4003  0.6606
  109CHL1  H15A14271   4.276   6.038  13.210  0.0180 -0.5980 -1.9166
  109CHL1  H15B14272   4.462   6.049  13.221 -0.0214  0.7699  0.9453
  109CHL1   C1614273   4.384   5.892  13.101 -0.1358  0.6049 -0.0540
  109CHL1  H16A14274   4.308   5.929  13.030 -1.8804 -1.9243  0.3390
  109CHL1  H16B14275   4.487   5.900  13.060  0.0156 -0.9847 -0.0572
  109CHL1   C1714276   4.354   5.749  13.155  0.5124 -0.0191 -0.4137
  109CHL1   H1714277   4.452   5.699  13.166  1.6652  1.4029 -3.2916
  109CHL1   C1314278   4.290   5.770  13.289 -0.1535 -0.1824  0.0416
  109CHL1   C1814279   4.141   5.810  13.287 -0.3025 -0.6510  0.3404
  109CHL1  H18A14280   4.120   5.874  13.199  0.4376 -0.2381  0.4605
  109CHL1  H18B14281   4.073   5.722  13.285 -1.5399  0.2628  0.4785
  109CHL1  H18C14282   4.123   5.866  13.381 -0.7256  1.3183 -0.8522
  109CHL1   C1214283   4.313   5.649  13.393  0.0468 -0.3346 -0.2218
  109CHL1  H12A14284   4.255   5.558  13.365 -0.1138 -0.2397 -0.1997
  109CHL1  H12B14285   4.422   5.629  13.404  0.3810  0.8972 -1.0661
  109CHL1   C1114286   4.262   5.696  13.533 -0.1782  0.2302 -0.0613
  109CHL1  H11A14287   4.153   5.713  13.521 -0.7422 -3.1870 -0.9970
  109CHL1  H11B14288   4.273   5.611  13.604  0.5014  0.9367  0.7015
  109CHL1    C914289   4.344   5.816  13.584  0.8121  0.1256 -0.4198
  109CHL1    H914290   4.447   5.774  13.584  0.3062 -1.1905  0.5461
  109CHL1   C1014291   4.311   5.859  13.730 -0.5113 -0.0349 -1.0356
  109CHL1   C1914292   4.157   5.869  13.753  0.2025 -0.0399  0.4153
  109CHL1  H19A14293   4.119   5.945  13.681 -2.6045 -1.4649  0.2440
  109CHL1  H19B14294   4.105   5.779  13.714  0.0477  0.2921 -0.1605
  109CHL1  H19C14295   4.125   5.893  13.856 -0.8050  1.2480 -0.1529
  109CHL1    C114296   4.363   5.755  13.833  0.2249 -0.4364 -0.1888
  109CHL1   H1A14297   4.306   5.660  13.818 -1.4688  0.6885 -1.1492
  109CHL1   H1B14298   4.467   5.726  13.806  0.4246  0.4717 -0.4098
  109CHL1    C214299   4.355   5.790  13.978 -0.8450 -0.4720 -0.1233
  109CHL1   H2A14300   4.422   5.723  14.036 -0.2074  0.2997  0.0558
  109CHL1   H2B14301   4.254   5.799  14.023  0.3296  1.3645  2.4334
  109CHL1   C2014302   4.283   5.657  13.057 -0.7496  0.1304  0.2321
  109CHL1   H2014303   4.179   5.695  13.046 -0.8800 -0.5480 -1.1794
  109CHL1   C2114304   4.272   5.507  13.105  0.1441  0.1580 -0.7231
  109CHL1  H21A14305   4.221   5.444  13.028  0.2133  0.4870 -1.0416
  109CHL1  H21B14306   4.197   5.497  13.186 -0.4051 -0.6715 -1.3093
  109CHL1  H21C14307   4.366   5.454  13.129 -2.1850 -4.2668 -0.3235
  109CHL1   C2214308   4.353   5.654  12.918  0.6393  0.1246  0.5101
  109CHL1  H22A14309   4.367   5.757  12.877  0.7680 -0.9099 -2.2589
  109CHL1  H22B14310   4.446   5.595  12.929 -0.3606 -1.2364  2.2517
  109CHL1   C2314311   4.262   5.585  12.814 -0.2992  0.4299 -0.3132
  109CHL1  H23A14312   4.263   5.474  12.825 -2.3998  0.4393  0.4005
  109CHL1  H23B14313   4.156   5.618  12.813 -0.3750  0.2370  0.5181
  109CHL1   C2414314   4.317   5.608  12.665 -0.4148 -0.1723 -0.2196
  109CHL1  H24A14315   4.282   5.704  12.621  0.6454  1.3057  1.9928
  109CHL1  H24B14316   4.426   5.587  12.670 -0.2962 -0.1577 -2.1814
  109CHL1   C2514317   4.264   5.507  12.559 -0.1667 -0.6740  0.2817
  109CHL1   H2514318   4.158   5.535  12.541  0.5671  1.4045 -1.2972
  109CHL1   C2614319   4.332   5.531  12.420 -0.0924 -0.1465  0.2011
  109CHL1  H26A14320   4.431   5.481  12.428  0.0892  0.3382  1.1058
  109CHL1  H26B14321   4.271   5.489  12.337  1.5933 -1.2280 -0.5384
  109CHL1  H26C14322   4.336   5.640  12.404  0.8735 -0.3546 -1.1030
  109CHL1   C2714323   4.277   5.363  12.603  0.0037 -0.2959  0.3735
  109CHL1  H27A14324   4.286   5.298  12.513  1.6790 -0.8323  0.8914
  109CHL1  H27B14325   4.371   5.345  12.659 -0.9959  1.1315  2.6463
  109CHL1  H27C14326   4.183   5.339  12.659  1.9248 -2.2399  3.0035
  110CHL1    C314327   2.617   5.515  13.867 -0.3316 -0.8268 -0.2266
  110CHL1    H314328   2.511   5.539  13.840 -0.6346 -1.1025  0.6925
  110CHL1    O314329   2.619   5.498  14.009  1.0477  0.2438 -0.0647
  110CHL1   H3'14330   2.588   5.585  14.033  0.2589  0.0467 -0.3451
  110CHL1    C414331   2.647   5.377  13.806 -0.1843 -0.3827  0.1875
  110CHL1   H4A14332   2.748   5.338  13.830  0.3566  0.6334 -0.4030
  110CHL1   H4B14333   2.573   5.305  13.847  0.7278 -0.6952  1.3429
  110CHL1    C514334   2.631   5.390  13.658 -0.0792 -0.3842  0.4143
  110CHL1    C614335   2.537   5.326  13.583 -0.4013 -0.4649 -0.1116
  110CHL1    H614336   2.466   5.255  13.627 -1.4219  0.3279 -0.4562
  110CHL1    C714337   2.531   5.340  13.436  0.3752  0.5457 -0.2560
  110CHL1   H7A14338   2.518   5.238  13.396  0.0559 -0.0073  1.2100
  110CHL1   H7B14339   2.440   5.401  13.418  0.8523  1.5201  0.5381
  110CHL1    C814340   2.651   5.409  13.357  0.1413  0.1636  0.6201
  110CHL1    H814341   2.730   5.332  13.353 -1.7044 -1.7623 -1.5338
  110CHL1   C1414342   2.605   5.446  13.217  0.5115 -0.0890 -0.4869
  110CHL1   H1414343   2.507   5.498  13.228  1.5467  1.9101 -0.1882
  110CHL1   C1514344   2.562   5.331  13.116  0.4299  0.0700  0.2156
  110CHL1  H15A14345   2.626   5.240  13.123  0.9130  0.3761 -0.1630
  110CHL1  H15B14346   2.456   5.297  13.120 -0.8067  3.4686 -0.0820
  110CHL1   C1614347   2.586   5.390  12.976  0.3965 -0.5091  0.0563
  110CHL1  H16A14348   2.661   5.332  12.919  1.1379  0.8435 -0.3896
  110CHL1  H16B14349   2.493   5.404  12.916  1.2055 -0.5825 -1.2555
  110CHL1   C1714350   2.645   5.533  13.002 -0.3543  0.1881  0.3629
  110CHL1   H1714351   2.560   5.605  12.997  0.7896  1.4919 -2.1158
  110CHL1   C1314352   2.706   5.526  13.147 -0.0995 -0.1294 -0.6241
  110CHL1   C1814353   2.840   5.454  13.140  0.9500  0.2518 -0.2222
  110CHL1  H18A14354   2.877   5.448  13.245  1.6132  1.5253 -0.3630
  110CHL1  H18B14355   2.832   5.356  13.088 -1.2663  0.1398  0.2314
  110CHL1  H18C14356   2.918   5.522  13.099  0.1603  0.5550 -1.2841
  110CHL1   C1214357   2.721   5.658  13.221 -0.2409 -0.3467 -0.8786
  110CHL1  H12A14358   2.799   5.713  13.163 -0.9855 -1.7617 -3.3689
  110CHL1  H12B14359   2.630   5.719  13.207  0.4660  0.7243 -0.9451
  110CHL1   C1114360   2.751   5.645  13.375 -0.9525  0.0721  0.6127
  110CHL1  H11A14361   2.860   5.622  13.367 -1.0682 -0.2801  0.0142
  110CHL1  H11B14362   2.730   5.738  13.432 -0.2416  0.3108  0.4943
  110CHL1    C914363   2.675   5.530  13.445 -0.0672 -0.4648  0.0359
  110CHL1    H914364   2.572   5.572  13.455 -0.1701 -0.6871 -0.0935
  110CHL1   C1014365   2.724   5.505  13.593  0.3646 -0.4964 -0.1187
  110CHL1   C1914366   2.862   5.448  13.585  0.2829 -0.8900 -0.0383
  110CHL1  H19A14367   2.905   5.443  13.687 -1.8471  0.0858  0.9751
  110CHL1  H19B14368   2.864   5.343  13.549 -0.9268 -0.6824 -0.7977
  110CHL1  H19C14369   2.918   5.517  13.518  2.0681 -0.9490  1.3282
  110CHL1    C114370   2.715   5.639  13.671  0.1565 -0.0080 -0.2327
  110CHL1   H1A14371   2.791   5.712  13.637 -0.7531  0.8554 -0.4546
  110CHL1   H1B14372   2.623   5.694  13.642 -1.4195 -2.9966 -1.3913
  110CHL1    C214373   2.721   5.622  13.830  0.1382 -0.0485 -0.5381
  110CHL1   H2A14374   2.699   5.723  13.870  1.7189 -0.6244  2.0417
  110CHL1   H2B14375   2.821   5.591  13.866  0.1056 -0.4623 -0.7971
  110CHL1   C2014376   2.746   5.564  12.888  0.0099  0.1708 -0.3553
  110CHL1   H2014377   2.811   5.475  12.873  0.2819  0.1212  0.9425
  110CHL1   C2114378   2.826   5.691  12.906 -0.2884  0.0604  0.3778
  110CHL1  H21A14379   2.900   5.691  12.990 -0.0069  0.6273  0.1361
  110CHL1  H21B14380   2.754   5.775  12.921  0.8323  1.3748 -1.2484
  110CHL1  H21C14381   2.878   5.712  12.810 -1.2067 -1.7201 -0.5505
  110CHL1   C2214382   2.673   5.559  12.750  0.1671 -0.2458 -0.3720
  110CHL1  H22A14383   2.589   5.487  12.746  1.0904 -1.3052 -2.4256
  110CHL1  H22B14384   2.638   5.662  12.727  1.5399  0.4363  0.4596
  110CHL1   C2314385   2.764   5.504  12.641  0.1560  0.2819 -0.2541
  110CHL1  H23A14386   2.856   5.566  12.633  0.6176 -0.4168 -0.4232
  110CHL1  H23B14387   2.809   5.406  12.670 -0.5720 -0.3721 -1.2527
  110CHL1   C2414388   2.692   5.495  12.507 -0.3312 -0.2558 -0.5735
  110CHL1  H24A14389   2.610   5.423  12.524 -0.2911 -0.2804 -0.4797
  110CHL1  H24B14390   2.651   5.593  12.474 -0.7394 -0.2948 -0.2026
  110CHL1   C2514391   2.781   5.436  12.385 -0.7432 -0.5858 -0.1342
  110CHL1   H2514392   2.850   5.520  12.364  0.4082 -0.8937  2.1298
  110CHL1   C2614393   2.857   5.304  12.408  0.5820  0.1689 -0.4075
  110CHL1  H26A14394   2.791   5.215  12.416 -1.8914  1.7860 -1.4802
  110CHL1  H26B14395   2.918   5.273  12.321  0.8248  0.4178 -0.3282
  110CHL1  H26C14396   2.924   5.306  12.497 -0.3521 -0.5425  0.3354
  110CHL1   C2714397   2.684   5.406  12.267 -0.2200  0.7838 -0.5358
  110CHL1  H27A14398   2.631   5.314  12.299  1.8837 -0.2973  0.0059
  110CHL1  H27B14399   2.613   5.491  12.260 -2.5295 -1.0886 -1.2812
  110CHL1  H27C14400   2.731   5.373  12.172  0.6695 -0.7416  0.3927
  111CHL1    C314401   3.384   0.279  13.457  0.2032  0.0610 -0.4370
  111CHL1    H314402   3.390   0.169  13.439 -1.0979 -0.1107  0.0251
  111CHL1    O314403   3.382   0.316  13.592  0.4630  0.5998  0.4384
  111CHL1   H3'14404   3.377   0.412  13.585 -1.0122  0.9229  3.8970
  111CHL1    C414405   3.510   0.341  13.392 -0.2055  0.2292 -0.4877
  111CHL1   H4A14406   3.521   0.446  13.426  1.2212 -0.0917  0.1136
  111CHL1   H4B14407   3.598   0.289  13.435 -0.1837 -0.5802 -1.4814
  111CHL1    C514408   3.499   0.337  13.243  0.2304 -0.3766  0.1955
  111CHL1    C614409   3.600   0.290  13.171  0.7341 -0.1928  0.1737
  111CHL1    H614410   3.687   0.244  13.220  0.3603 -1.2877 -0.1471
  111CHL1    C714411   3.589   0.281  13.012 -0.6828 -0.4956 -0.1173
  111CHL1   H7A14412   3.683   0.306  12.959 -1.9225  1.6957 -1.4661
  111CHL1   H7B14413   3.542   0.188  12.974 -0.7029  0.9761 -4.1291
  111CHL1    C814414   3.495   0.390  12.949 -0.3025 -0.0967  0.5347
  111CHL1    H814415   3.532   0.493  12.960 -0.1846  0.0305 -0.8415
  111CHL1   C1414416   3.465   0.360  12.798 -0.2408  0.3482 -1.0496
  111CHL1   H1414417   3.424   0.257  12.807  1.7596 -0.3823  0.5931
  111CHL1   C1514418   3.581   0.347  12.699  0.0228 -0.2475  0.5041
  111CHL1  H15A14419   3.655   0.428  12.716  0.7164 -0.6461 -0.5112
  111CHL1  H15B14420   3.635   0.252  12.717 -0.6338 -0.4969  1.2123
  111CHL1   C1614421   3.511   0.356  12.565 -0.6733  0.3927 -0.5059
  111CHL1  H16A14422   3.562   0.439  12.512  1.5654 -1.4558 -1.3812
  111CHL1  H16B14423   3.518   0.259  12.513  1.9364 -0.2849  0.9593
  111CHL1   C1714424   3.361   0.393  12.586  0.3715  0.1417 -0.7218
  111CHL1   H1714425   3.300   0.301  12.586  1.3876 -0.6356 -3.2391
  111CHL1   C1314426   3.357   0.446  12.730  0.8301 -0.1074  0.8276
  111CHL1   C1814427   3.406   0.601  12.732  0.6194  0.4815  0.3875
  111CHL1  H18A14428   3.429   0.633  12.836 -0.1833  0.7926  0.4779
  111CHL1  H18B14429   3.486   0.630  12.661 -0.1724 -1.3286 -1.3507
  111CHL1  H18C14430   3.316   0.653  12.693  0.9405 -0.3201 -1.5394
  111CHL1   C1214431   3.225   0.429  12.811 -0.1746  0.2737 -0.2110
  111CHL1  H12A14432   3.149   0.505  12.786 -0.2289  0.7539  1.3427
  111CHL1  H12B14433   3.191   0.324  12.795  1.2019 -0.5185  1.7350
  111CHL1   C1114434   3.245   0.461  12.960  0.4008 -0.2190 -0.2486
  111CHL1  H11A14435   3.269   0.569  12.973 -1.1517  0.0012  1.2153
  111CHL1  H11B14436   3.147   0.432  13.005  0.6835 -0.0361  0.5063
  111CHL1    C914437   3.362   0.375  13.019  0.1105  0.1049  0.1319
  111CHL1    H914438   3.339   0.266  13.016  2.9598 -0.5870  0.7628
  111CHL1   C1014439   3.370   0.401  13.175 -0.3248 -0.6140 -0.2726
  111CHL1   C1914440   3.382   0.556  13.209 -0.2806  0.4721 -0.0599
  111CHL1  H19A14441   3.466   0.599  13.151  1.7109 -1.2833  1.3699
  111CHL1  H19B14442   3.290   0.607  13.173  0.2544  0.3834 -1.6355
  111CHL1  H19C14443   3.402   0.567  13.318 -1.4584 -3.0497  0.6481
  111CHL1    C114444   3.240   0.350  13.252  0.1692  0.2672 -0.6856
  111CHL1   H1A14445   3.157   0.418  13.226  1.1461  1.4240 -0.8876
  111CHL1   H1B14446   3.216   0.243  13.231 -0.1128 -0.0390  1.0358
  111CHL1    C214447   3.253   0.347  13.403  0.0888  0.3254 -0.3809
  111CHL1   H2A14448   3.174   0.283  13.449  1.4185 -0.5650  0.7498
  111CHL1   H2B14449   3.232   0.448  13.444 -0.1573 -0.7359  2.3729
  111CHL1   C2014450   3.307   0.483  12.482 -0.0501 -0.1243  0.3650
  111CHL1   H2014451   3.355   0.583  12.492  1.4555 -0.6396 -1.2568
  111CHL1   C2114452   3.160   0.506  12.501  0.8429  0.5308 -0.4559
  111CHL1  H21A14453   3.140   0.566  12.593 -2.0546 -1.0667  0.0804
  111CHL1  H21B14454   3.104   0.411  12.515  0.7475  0.7729  0.9709
  111CHL1  H21C14455   3.126   0.578  12.424  3.6521 -0.4152 -2.7450
  111CHL1   C2214456   3.328   0.457  12.329  0.2674  0.2606 -0.2969
  111CHL1  H22A14457   3.251   0.512  12.271 -0.0480  1.2472  1.0253
  111CHL1  H22B14458   3.426   0.504  12.304  0.2154  0.0734 -0.8780
  111CHL1   C2314459   3.309   0.309  12.279 -0.6464  0.3269 -0.2115
  111CHL1  H23A14460   3.386   0.247  12.330  1.4285  1.8412 -1.3279
  111CHL1  H23B14461   3.202   0.283  12.286 -0.9806  1.9479  1.4805
  111CHL1   C2414462   3.335   0.299  12.123 -0.9955  0.5558  0.1312
  111CHL1  H24A14463   3.274   0.370  12.062 -0.5296  0.2590 -0.6919
  111CHL1  H24B14464   3.442   0.327  12.114 -1.1629  1.6448  1.2003
  111CHL1   C2514465   3.309   0.162  12.060  0.2321  0.1380  0.6490
  111CHL1   H2514466   3.362   0.082  12.117  1.9743  1.3154  0.7666
  111CHL1   C2614467   3.160   0.119  12.049 -0.2441 -0.5398 -0.4635
  111CHL1  H26A14468   3.126   0.114  12.154  1.4102 -1.1279  0.0705
  111CHL1  H26B14469   3.105   0.203  12.003  0.2273  0.5022  0.8158
  111CHL1  H26C14470   3.145   0.020  12.000  3.5094 -2.1480  1.2339
  111CHL1   C2714471   3.361   0.156  11.914 -0.2164  0.0667  0.3253
  111CHL1  H27A14472   3.470   0.174  11.917 -0.1326 -0.5194  1.0929
  111CHL1  H27B14473   3.340   0.055  11.873  1.7227 -0.5669  0.8240
  111CHL1  H27C14474   3.317   0.228  11.841  0.3949  0.3923  0.2712
  112CHL1    C314475   5.648   1.319  13.764  0.3354  0.8320 -0.8187
  112CHL1    H314476   5.718   1.403  13.779 -0.6638  1.6014 -0.3139
  112CHL1    O314477   5.608   1.277  13.900  0.1244  0.1827  0.4061
  112CHL1   H3'14478   5.559   1.194  13.900  0.2426  0.1088 -0.0777
  112CHL1    C414479   5.524   1.345  13.685  1.0528  0.2445  0.2500
  112CHL1   H4A14480   5.446   1.267  13.699  1.1005  0.5327  2.3949
  112CHL1   H4B14481   5.488   1.440  13.731 -0.6384  0.3619 -1.1855
  112CHL1    C514482   5.550   1.376  13.534  0.1885  0.3949 -0.3137
  112CHL1    C614483   5.521   1.495  13.476  0.4264  0.0275  0.0385
  112CHL1    H614484   5.480   1.572  13.542  1.4334  0.6879 -0.0847
  112CHL1    C714485   5.538   1.525  13.324 -0.4118 -0.4283  0.2788
  112CHL1   H7A14486   5.440   1.555  13.282 -0.4001  0.4940  0.8763
  112CHL1   H7B14487   5.609   1.610  13.312 -0.2708 -0.5925 -0.0628
  112CHL1    C814488   5.576   1.410  13.247  0.4247  0.2810 -0.3839
  112CHL1    H814489   5.484   1.349  13.234 -1.3372  2.1894  2.1230
  112CHL1   C1414490   5.627   1.452  13.106  0.1435  1.0708  0.3193
  112CHL1   H1414491   5.706   1.529  13.118 -0.8911  2.7963 -2.8705
  112CHL1   C1514492   5.534   1.532  13.010  0.4760  0.1519 -0.7989
  112CHL1  H15A14493   5.429   1.495  13.009  0.7838 -1.2025  3.0157
  112CHL1  H15B14494   5.537   1.641  13.028  1.9093 -0.3450  2.6795
  112CHL1   C1614495   5.589   1.500  12.870 -0.3419 -0.7212 -0.0041
  112CHL1  H16A14496   5.507   1.459  12.807 -0.4828  0.0161 -0.3123
  112CHL1  H16B14497   5.625   1.600  12.836  1.3743 -1.1900  0.3746
  112CHL1   C1714498   5.705   1.401  12.884  0.1387 -0.1532 -0.1786
  112CHL1   H1714499   5.803   1.453  12.893  1.7864 -2.9256 -1.1262
  112CHL1   C1314500   5.682   1.335  13.018  1.1979  0.8539  0.0281
  112CHL1   C1814501   5.571   1.228  13.004 -0.5458 -0.1770 -0.3286
  112CHL1  H18A14502   5.617   1.143  12.949 -0.4765 -0.0077 -0.5351
  112CHL1  H18B14503   5.539   1.176  13.097  3.7816 -0.5857  1.1882
  112CHL1  H18C14504   5.486   1.281  12.955 -2.0000 -2.1564 -0.0412
  112CHL1   C1214505   5.804   1.288  13.099  0.3002 -0.2229  0.0410
  112CHL1  H12A14506   5.856   1.203  13.051  2.0602  0.1871  1.1084
  112CHL1  H12B14507   5.881   1.368  13.102  1.7727 -1.5727 -0.5582
  112CHL1   C1114508   5.773   1.239  13.239 -0.2718  0.5205 -0.8584
  112CHL1  H11A14509   5.726   1.139  13.232 -2.1477  0.8997  3.3376
  112CHL1  H11B14510   5.865   1.207  13.291 -2.2422 -1.3478  1.7457
  112CHL1    C914511   5.682   1.328  13.326 -0.2961 -0.4437 -0.6769
  112CHL1    H914512   5.756   1.400  13.368  0.7448 -2.0613  0.3986
  112CHL1   C1014513   5.631   1.264  13.467 -0.1266  0.4215  0.6203
  112CHL1   C1914514   5.533   1.149  13.439  0.6666  0.0985 -0.2272
  112CHL1  H19A14515   5.561   1.085  13.353  0.7161  0.7983 -0.7423
  112CHL1  H19B14516   5.513   1.086  13.527  0.1588  0.0324 -0.3895
  112CHL1  H19C14517   5.435   1.189  13.404  0.5224  1.4340  1.5540
  112CHL1    C114518   5.757   1.213  13.551  0.1435 -0.1782  0.5179
  112CHL1   H1A14519   5.778   1.119  13.496  0.5450  0.4146 -0.3673
  112CHL1   H1B14520   5.843   1.282  13.536 -1.3109  1.3527 -1.3394
  112CHL1    C214521   5.721   1.194  13.700 -0.0005 -0.2899 -0.5240
  112CHL1   H2A14522   5.814   1.170  13.755  0.3755  1.2095 -0.4409
  112CHL1   H2B14523   5.649   1.110  13.707 -1.1878  0.6373 -1.1393
  112CHL1   C2014524   5.723   1.322  12.754 -0.2660 -0.4186  0.3638
  112CHL1   H2014525   5.625   1.275  12.731 -1.7570  1.8466  1.6794
  112CHL1   C2114526   5.833   1.218  12.767 -0.1113  0.0119  1.1898
  112CHL1  H21A14527   5.927   1.270  12.795 -1.0182  2.2990  0.2294
  112CHL1  H21B14528   5.848   1.177  12.665 -0.7282  4.9947 -1.2212
  112CHL1  H21C14529   5.804   1.135  12.834 -0.4828 -1.2625 -0.4811
  112CHL1   C2214530   5.759   1.418  12.635 -0.3112  0.0991  0.6998
  112CHL1  H22A14531   5.686   1.502  12.634 -1.0775 -0.5495 -0.2243
  112CHL1  H22B14532   5.859   1.465  12.649  0.6449 -1.5949 -0.0743
  112CHL1   C2314533   5.751   1.355  12.491 -0.0847 -0.8080  0.5459
  112CHL1  H23A14534   5.767   1.245  12.490 -1.5842 -1.1864  3.7608
  112CHL1  H23B14535   5.646   1.363  12.457  0.4325 -0.1269 -1.0222
  112CHL1   C2414536   5.840   1.435  12.384 -0.0936 -0.6153 -0.1344
  112CHL1  H24A14537   5.816   1.412  12.278 -1.9080 -0.1616  0.1436
  112CHL1  H24B14538   5.826   1.544  12.401 -0.5281 -0.6059 -0.5291
  112CHL1   C2514539   5.989   1.413  12.399 -0.3249  0.3041 -0.2315
  112CHL1   H2514540   6.023   1.459  12.495 -1.3709  2.5283 -0.8719
  112CHL1   C2614541   6.037   1.264  12.385 -1.2081  0.2304  0.1731
  112CHL1  H26A14542   5.997   1.224  12.289 -0.4886 -1.6344  0.6152
  112CHL1  H26B14543   6.146   1.243  12.385 -1.5003 -1.5875 -1.3346
  112CHL1  H26C14544   6.004   1.212  12.477  1.5480 -1.2230  0.4421
  112CHL1   C2714545   6.065   1.499  12.293  0.2361  0.7326  0.1863
  112CHL1  H27A14546   6.173   1.505  12.317 -0.1008 -0.1531  2.1018
  112CHL1  H27B14547   6.058   1.470  12.186 -1.2990 -0.1942  0.5012
  112CHL1  H27C14548   6.029   1.604  12.305  1.2576  1.2076 -0.7274
  113CHL1    C314549   2.151   4.857  13.514  0.9758  0.4689  0.7440
  113CHL1    H314550   2.142   4.747  13.520  2.4818  0.3747  1.5306
  113CHL1    O314551   2.156   4.910  13.641 -0.0943  0.5853  0.3758
  113CHL1   H3'14552   2.146   5.004  13.626 -1.1905  0.6486  1.3679
  113CHL1    C414553   2.283   4.894  13.447  0.6622  0.0934  0.1241
  113CHL1   H4A14554   2.291   5.004  13.454 -1.5953  0.4534 -1.5566
  113CHL1   H4B14555   2.361   4.836  13.499  0.2079 -0.3090  0.3685
  113CHL1    C514556   2.288   4.844  13.301  0.0458  0.3058 -0.6833
  113CHL1    C614557   2.375   4.751  13.262 -0.4005  0.4022  0.4920
  113CHL1    H614558   2.449   4.721  13.338  0.7840  3.5839  0.7301
  113CHL1    C714559   2.395   4.706  13.118  0.8758 -0.1684  0.7195
  113CHL1   H7A14560   2.499   4.721  13.084  0.5221  1.5274  0.2621
  113CHL1   H7B14561   2.365   4.600  13.106  3.8331 -0.9850 -0.2401
  113CHL1    C814562   2.311   4.800  13.026 -0.3607  0.2383  0.2793
  113CHL1    H814563   2.366   4.895  13.010  2.2514 -1.0652  0.9716
  113CHL1   C1414564   2.295   4.742  12.884  0.5138 -0.1566 -0.5696
  113CHL1   H1414565   2.235   4.650  12.893  0.3997 -0.0587 -0.3068
  113CHL1   C1514566   2.417   4.689  12.807  1.0842  0.0922 -0.4629
  113CHL1  H15A14567   2.512   4.743  12.829  1.0092 -0.3313  1.0374
  113CHL1  H15B14568   2.433   4.584  12.839 -0.1548 -0.0625 -0.3079
  113CHL1   C1614569   2.381   4.695  12.657  0.6445  0.1880 -0.5121
  113CHL1  H16A14570   2.447   4.766  12.603  0.5936  0.4529 -0.2288
  113CHL1  H16B14571   2.398   4.600  12.601  0.9997  1.1672 -2.1204
  113CHL1   C1714572   2.234   4.729  12.651 -0.5159 -0.5147  0.5157
  113CHL1   H1714573   2.176   4.635  12.654 -0.7784 -0.3880 -0.3831
  113CHL1   C1314574   2.210   4.819  12.780 -0.0720 -0.3007  0.1376
  113CHL1   C1814575   2.274   4.954  12.756  0.2076 -0.2574  0.1724
  113CHL1  H18A14576   2.286   5.013  12.850 -1.0959  0.2194  0.0528
  113CHL1  H18B14577   2.379   4.941  12.721  0.1870  0.6492 -0.2467
  113CHL1  H18C14578   2.204   5.004  12.687 -0.5328  0.6077  1.5164
  113CHL1   C1214579   2.068   4.824  12.849 -0.7895  0.5331 -0.4770
  113CHL1  H12A14580   1.990   4.876  12.790 -2.4049 -0.1327  0.9792
  113CHL1  H12B14581   2.038   4.719  12.866  1.8868 -0.4134 -1.1510
  113CHL1   C1114582   2.066   4.885  12.985  0.3973  0.1405 -0.2189
  113CHL1  H11A14583   2.108   4.986  12.966 -0.2684  0.1523 -1.8068
  113CHL1  H11B14584   1.959   4.900  13.013 -0.1765 -2.5928 -0.6609
  113CHL1    C914585   2.166   4.821  13.084  0.0157  0.1207 -0.1197
  113CHL1    H914586   2.133   4.720  13.117 -3.0563  1.6403  1.9742
  113CHL1   C1014587   2.174   4.893  13.218 -0.1727  0.4950  0.0559
  113CHL1   C1914588   2.198   5.043  13.188  0.7158  0.0299  1.0363
  113CHL1  H19A14589   2.111   5.102  13.153  0.9832 -0.3684 -0.3706
  113CHL1  H19B14590   2.199   5.090  13.289 -1.1960 -0.9195  1.5344
  113CHL1  H19C14591   2.288   5.071  13.128  0.2608 -0.5529  0.0547
  113CHL1    C114592   2.038   4.877  13.295 -0.1625  0.2337 -0.3441
  113CHL1   H1A14593   1.964   4.937  13.238  1.4852  3.0630  0.3282
  113CHL1   H1B14594   2.007   4.770  13.293 -2.0635  0.7425 -2.5526
  113CHL1    C214595   2.033   4.923  13.441  0.2696 -0.0159 -0.0369
  113CHL1   H2A14596   1.938   4.884  13.483  0.8647  0.4889  1.8926
  113CHL1   H2B14597   2.038   5.034  13.442 -0.1136  0.0066  1.5271
  113CHL1   C2014598   2.202   4.798  12.515  0.2088  0.4022  0.0781
  113CHL1   H2014599   2.232   4.905  12.507  0.2303  0.4065  0.2169
  113CHL1   C2114600   2.046   4.812  12.494  0.3069  0.0457 -0.1550
  113CHL1  H21A14601   2.017   4.853  12.394 -0.4202 -0.4481 -0.1539
  113CHL1  H21B14602   2.006   4.881  12.571  2.6784 -0.4924  1.6460
  113CHL1  H21C14603   1.998   4.714  12.515 -2.2530  1.2629  0.0768
  113CHL1   C2214604   2.254   4.718  12.392 -0.8789  0.4386  0.3371
  113CHL1  H22A14605   2.213   4.761  12.299 -0.8538 -1.4502 -0.5990
  113CHL1  H22B14606   2.364   4.727  12.400 -0.9831  0.5112  2.3195
  113CHL1   C2314607   2.210   4.568  12.389  0.0741 -0.1940 -0.1633
  113CHL1  H23A14608   2.237   4.516  12.484 -3.5137 -0.9218  0.5982
  113CHL1  H23B14609   2.100   4.562  12.378  0.0603  2.3033 -2.2471
  113CHL1   C2414610   2.293   4.490  12.281 -0.5629  0.0916  0.1276
  113CHL1  H24A14611   2.277   4.543  12.185 -1.2099  0.3597  0.3755
  113CHL1  H24B14612   2.398   4.494  12.318  0.0535  1.6779 -1.6221
  113CHL1   C2514613   2.237   4.346  12.258  0.4752 -0.3280  0.8180
  113CHL1   H2514614   2.127   4.362  12.250  0.2485 -2.1863 -0.5105
  113CHL1   C2614615   2.290   4.287  12.126 -0.2021  0.0881 -1.1499
  113CHL1  H26A14616   2.289   4.361  12.043 -1.2164  1.7722  0.2713
  113CHL1  H26B14617   2.396   4.254  12.132  0.6270  2.3476 -2.1722
  113CHL1  H26C14618   2.225   4.200  12.102 -0.3325 -0.3014  0.5152
  113CHL1   C2714619   2.253   4.255  12.382 -0.4842 -0.0855  0.3467
  113CHL1  H27A14620   2.185   4.169  12.363 -2.1676  0.5518  2.8192
  113CHL1  H27B14621   2.352   4.209  12.402 -1.1259 -0.4213  3.3388
  113CHL1  H27C14622   2.214   4.306  12.473  0.5232  0.7935  0.3020
  114CHL1    C314623   5.712   0.103  13.422 -0.8992 -0.7750  0.2219
  114CHL1    H314624   5.631   0.130  13.350  0.5775  0.4605 -1.0545
  114CHL1    O314625   5.686   0.169  13.542  0.3783 -0.1822 -0.3081
  114CHL1   H3'14626   5.725   0.112  13.609 -0.0665 -0.5399 -0.3500
  114CHL1    C414627   5.725  -0.056  13.442  0.1698  0.2669  0.1020
  114CHL1   H4A14628   5.802  -0.080  13.518  1.3672 -0.3323 -1.2381
  114CHL1   H4B14629   5.632  -0.093  13.491 -0.1197 -0.6819 -1.0967
  114CHL1    C514630   5.742  -0.129  13.306 -0.0135 -0.2845 -0.2450
  114CHL1    C614631   5.655  -0.221  13.261  0.0620  0.2319 -0.4009
  114CHL1    H614632   5.569  -0.256  13.319  1.0036 -3.0589 -0.7977
  114CHL1    C714633   5.679  -0.290  13.127  0.0259  0.0092 -0.0406
  114CHL1   H7A14634   5.657  -0.398  13.135  1.6381 -0.4079 -0.8400
  114CHL1   H7B14635   5.604  -0.242  13.061 -2.0470  0.2247  2.3176
  114CHL1    C814636   5.822  -0.270  13.067 -0.1733  0.2721 -0.3641
  114CHL1    H814637   5.892  -0.346  13.107 -0.1582 -0.8476 -2.3948
  114CHL1   C1414638   5.808  -0.290  12.917 -0.3364 -0.5801  0.1657
  114CHL1   H1414639   5.755  -0.202  12.874  3.5766  1.4103 -0.9742
  114CHL1   C1514640   5.733  -0.417  12.864 -0.0644 -0.1539 -0.2411
  114CHL1  H15A14641   5.763  -0.511  12.916  1.2340  0.9304  1.0694
  114CHL1  H15B14642   5.623  -0.404  12.866 -0.0739 -0.2164 -0.3909
  114CHL1   C1614643   5.781  -0.425  12.723  0.4211  0.4581 -0.6540
  114CHL1  H16A14644   5.840  -0.517  12.703 -0.7938 -0.0662 -1.9572
  114CHL1  H16B14645   5.701  -0.414  12.647  0.1288  1.9285 -0.1671
  114CHL1   C1714646   5.897  -0.321  12.703 -0.0991 -0.3962 -0.1523
  114CHL1   H1714647   5.853  -0.223  12.675  1.8268 -0.0049 -2.1022
  114CHL1   C1314648   5.949  -0.294  12.849  0.1219  1.0932  0.2728
  114CHL1   C1814649   6.034  -0.416  12.889  0.9164 -0.9180 -0.8458
  114CHL1  H18A14650   5.992  -0.515  12.861  1.6946 -1.6135  0.3404
  114CHL1  H18B14651   6.139  -0.410  12.856  1.0138  2.7311 -0.3375
  114CHL1  H18C14652   6.044  -0.402  12.999 -1.0181  1.2612 -0.8547
  114CHL1   C1214653   6.020  -0.151  12.870 -0.1786  0.1757 -0.2674
  114CHL1  H12A14654   6.127  -0.149  12.842 -0.2242  3.0754 -0.4970
  114CHL1  H12B14655   5.961  -0.074  12.815 -0.0504  2.5667  2.7059
  114CHL1   C1114656   6.016  -0.112  13.017  1.1382 -0.2564 -0.5272
  114CHL1  H11A14657   6.081  -0.174  13.082  0.1207 -0.3991  0.3724
  114CHL1  H11B14658   6.047  -0.005  13.022 -0.3709  0.2711 -1.7347
  114CHL1    C914659   5.877  -0.130  13.087 -0.3299 -0.2345 -0.7674
  114CHL1    H914660   5.813  -0.067  13.021 -0.6829 -0.6343 -0.8119
  114CHL1   C1014661   5.868  -0.077  13.232 -0.5851 -0.1131  1.0756
  114CHL1   C1914662   5.990  -0.117  13.318  0.2269  0.6773 -0.1947
  114CHL1  H19A14663   5.999  -0.227  13.307 -0.4287  0.6228 -0.2658
  114CHL1  H19B14664   6.081  -0.077  13.269  1.3153 -2.3141 -0.8371
  114CHL1  H19C14665   5.980  -0.082  13.423 -2.2991 -0.7582  0.1231
  114CHL1    C114666   5.864   0.080  13.219 -0.3445 -0.6672 -0.4612
  114CHL1   H1A14667   5.956   0.122  13.172 -1.1751  1.1858 -0.4828
  114CHL1   H1B14668   5.779   0.106  13.153  0.4947  1.9674 -0.6271
  114CHL1    C214669   5.841   0.156  13.353  0.3933  0.0032  0.2494
  114CHL1   H2A14670   5.831   0.265  13.331 -0.2974 -0.2733 -0.8831
  114CHL1   H2B14671   5.938   0.146  13.406  0.7368 -2.9998 -0.7622
  114CHL1   C2014672   5.998  -0.361  12.594 -0.2592  0.6365 -0.7949
  114CHL1   H2014673   6.057  -0.449  12.628  0.3228  1.3831  0.1600
  114CHL1   C2114674   6.096  -0.240  12.581  1.0671 -0.1854  0.8183
  114CHL1  H21A14675   6.164  -0.248  12.494  0.9657  2.0300  0.4649
  114CHL1  H21B14676   6.159  -0.223  12.671 -0.7438  0.2841  2.0556
  114CHL1  H21C14677   6.020  -0.159  12.573 -0.8997 -2.0903 -2.4105
  114CHL1   C2214678   5.935  -0.389  12.460 -0.4446  0.2050  0.1006
  114CHL1  H22A14679   5.857  -0.468  12.458 -0.4740  0.1786  1.3285
  114CHL1  H22B14680   5.892  -0.299  12.411  0.0039  0.7845  0.7505
  114CHL1   C2314681   6.043  -0.438  12.365  0.2056 -0.0382 -0.0372
  114CHL1  H23A14682   6.119  -0.363  12.332  1.7195 -2.6865 -3.1628
  114CHL1  H23B14683   6.090  -0.521  12.423 -0.6247  0.6271  1.6795
  114CHL1   C2414684   5.959  -0.487  12.239  0.1979  0.4396  0.0011
  114CHL1  H24A14685   5.877  -0.553  12.275 -2.2773  2.9391 -0.7073
  114CHL1  H24B14686   5.906  -0.401  12.194  0.8684  1.1890  0.6217
  114CHL1   C2514687   6.034  -0.570  12.137  0.5876  0.0794  0.5282
  114CHL1   H2514688   6.116  -0.502  12.105 -0.0777  1.5360  1.7825
  114CHL1   C2614689   6.091  -0.694  12.199 -0.1145  0.6845  0.1283
  114CHL1  H26A14690   6.009  -0.740  12.257  0.8802 -2.2642 -0.6232
  114CHL1  H26B14691   6.108  -0.772  12.121 -0.1469  0.0437  0.7492
  114CHL1  H26C14692   6.180  -0.688  12.265 -1.3201  0.2150  1.8539
  114CHL1   C2714693   5.945  -0.603  12.014 -0.4289  0.5867 -0.2949
  114CHL1  H27A14694   5.848  -0.651  12.042  0.2883 -2.6151 -2.7255
  114CHL1  H27B14695   5.912  -0.510  11.962 -1.6923  0.5382  0.3820
  114CHL1  H27C14696   6.001  -0.670  11.946 -1.8279  1.0481 -1.9905
  115CHL1    C314697   2.658   0.975  13.417 -0.4514 -0.0356  0.1308
  115CHL1    H314698   2.582   0.911  13.368 -0.3818  1.0833 -1.5383
  115CHL1    O314699   2.623   0.979  13.552  0.4637 -0.0206 -0.1501
  115CHL1   H3'14700   2.574   1.060  13.569 -0.0652 -0.2192 -0.7013
  115CHL1    C414701   2.795   0.904  13.406  0.1960 -0.6323  0.4220
  115CHL1   H4A14702   2.869   0.958  13.469  0.4893 -0.5054 -0.0227
  115CHL1   H4B14703   2.797   0.798  13.441 -0.8032 -0.2655  1.6127
  115CHL1    C514704   2.846   0.909  13.261 -0.0404 -0.4342 -0.0292
  115CHL1    C614705   2.888   0.797  13.196  0.1725  0.2973 -0.8801
  115CHL1    H614706   2.892   0.701  13.250 -1.2917  1.1605  0.8891
  115CHL1    C714707   2.938   0.793  13.057  0.1113  0.2772 -0.4840
  115CHL1   H7A14708   3.024   0.723  13.043  0.0832  0.0752  0.3090
  115CHL1   H7B14709   2.854   0.747  13.000 -1.2305  0.2789  1.4189
  115CHL1    C814710   2.963   0.928  12.994 -0.3315 -0.5152  0.0672
  115CHL1    H814711   3.061   0.966  13.030  0.8375 -3.8015  0.7410
  115CHL1   C1414712   2.962   0.914  12.846 -0.4173 -0.3650  0.7198
  115CHL1   H1414713   2.860   0.878  12.821 -0.0352 -2.6862  2.1215
  115CHL1   C1514714   3.059   0.803  12.789  0.4967  0.1617  0.3299
  115CHL1  H15A14715   3.155   0.796  12.844 -0.5588 -0.6106  2.1880
  115CHL1  H15B14716   2.993   0.714  12.792  1.9953 -1.1101 -1.7797
  115CHL1   C1614717   3.076   0.848  12.641  0.3955  0.0355 -0.5347
  115CHL1  H16A14718   3.182   0.860  12.610  0.2390 -0.7580 -1.4252
  115CHL1  H16B14719   3.023   0.781  12.570  0.4696 -0.9963  0.3538
  115CHL1   C1714720   2.995   0.983  12.629 -0.2430 -0.0645 -0.6523
  115CHL1   H1714721   2.891   0.952  12.608 -1.0711  0.6012  2.1064
  115CHL1   C1314722   2.985   1.044  12.767  0.2252  0.1974 -0.0373
  115CHL1   C1814723   3.122   1.113  12.808  0.2525  0.1221  0.2970
  115CHL1  H18A14724   3.212   1.052  12.786 -0.2070 -0.3956 -0.1741
  115CHL1  H18B14725   3.138   1.204  12.746 -1.2382  1.5487  1.8877
  115CHL1  H18C14726   3.123   1.135  12.917  2.4332 -0.0036  0.3414
  115CHL1   C1214727   2.863   1.136  12.799 -0.1432 -0.0773 -0.2560
  115CHL1  H12A14728   2.881   1.240  12.767  0.4518 -0.3037 -0.6692
  115CHL1  H12B14729   2.773   1.083  12.760 -3.0142  2.6480  2.1381
  115CHL1   C1114730   2.836   1.152  12.950  0.0115 -0.4517 -0.5503
  115CHL1  H11A14731   2.907   1.228  12.988  0.0898 -1.4517  1.4816
  115CHL1  H11B14732   2.735   1.198  12.951  0.9431  1.6956 -0.4429
  115CHL1    C914733   2.849   1.021  13.034 -0.5320 -0.1095  0.5548
  115CHL1    H914734   2.757   0.969  13.000  0.5562 -0.0693 -2.8832
  115CHL1   C1014735   2.840   1.045  13.193 -0.3795 -0.0838 -0.0930
  115CHL1   C1914736   2.964   1.122  13.238 -0.1122  0.4736 -1.5358
  115CHL1  H19A14737   3.052   1.055  13.233 -1.9338 -2.0335 -2.3048
  115CHL1  H19B14738   2.983   1.219  13.189 -0.6486  1.1167 -0.5074
  115CHL1  H19C14739   2.949   1.147  13.345  2.6543  2.0028 -1.4277
  115CHL1    C114740   2.714   1.119  13.220  0.5197 -0.8867 -0.0762
  115CHL1   H1A14741   2.724   1.222  13.181 -2.1429  0.0280  1.3869
  115CHL1   H1B14742   2.633   1.082  13.154  0.3371 -1.3567  0.4019
  115CHL1    C214743   2.663   1.120  13.364 -0.3866  0.6927  0.1760
  115CHL1   H2A14744   2.560   1.162  13.367 -0.4902  0.5249 -0.7333
  115CHL1   H2B14745   2.734   1.177  13.427 -0.2820  0.7694 -0.0082
  115CHL1   C2014746   3.049   1.079  12.516  0.1167  0.3378  0.2340
  115CHL1   H2014747   3.151   1.106  12.550  0.8897  1.8778 -2.9462
  115CHL1   C2114748   2.973   1.216  12.498 -0.1321  0.0921 -0.3944
  115CHL1  H21A14749   2.863   1.215  12.514  0.2890 -0.5510  3.2067
  115CHL1  H21B14750   3.012   1.266  12.406  3.3425  0.3636  1.0669
  115CHL1  H21C14751   2.995   1.294  12.573 -1.5982 -1.1326  1.4026
  115CHL1   C2214752   3.071   1.005  12.381 -0.1616 -0.2348  0.4554
  115CHL1  H22A14753   3.135   1.056  12.306  0.5100 -1.9609 -0.2066
  115CHL1  H22B14754   3.128   0.909  12.388  0.4280  0.1428  0.9579
  115CHL1   C2314755   2.932   0.982  12.309 -0.0363 -0.2655  0.5527
  115CHL1  H23A14756   2.940   0.876  12.275  2.4736 -0.4523  1.4815
  115CHL1  H23B14757   2.847   0.991  12.380 -0.4542  3.2628 -0.2136
  115CHL1   C2414758   2.898   1.075  12.193 -0.6165 -0.2370  0.0833
  115CHL1  H24A14759   2.876   1.176  12.235  0.7117 -0.8921  2.5880
  115CHL1  H24B14760   2.978   1.092  12.117  0.4437 -1.4679  0.8787
  115CHL1   C2514761   2.760   1.044  12.120  0.4016  0.3684 -0.1026
  115CHL1   H2514762   2.682   1.036  12.198  0.4687 -0.1088 -0.0814
  115CHL1   C2614763   2.732   1.157  12.029 -0.3357  0.1930 -0.0443
  115CHL1  H26A14764   2.656   1.125  11.954 -0.5471 -1.9534  0.9970
  115CHL1  H26B14765   2.707   1.248  12.088 -0.2887  0.4632 -0.4390
  115CHL1  H26C14766   2.825   1.181  11.974 -0.2498  1.1154  0.4810
  115CHL1   C2714767   2.781   0.915  12.032  0.3608  0.4060  0.3392
  115CHL1  H27A14768   2.806   0.827  12.095  2.2940  0.5043 -0.2403
  115CHL1  H27B14769   2.692   0.885  11.971  1.8428 -3.8175 -0.0510
  115CHL1  H27C14770   2.857   0.928  11.952 -0.4221  0.3974 -0.4294
  116CHL1    C314771   3.875   0.233  13.769 -0.1702  0.2420  0.5968
  116CHL1    H314772   3.793   0.158  13.758  1.1442 -1.3214  0.9453
  116CHL1    O314773   3.865   0.268  13.910  0.0987 -0.1628 -0.0890
  116CHL1   H3'14774   3.938   0.330  13.922  0.2880 -0.8307  2.7402
  116CHL1    C414775   4.009   0.160  13.755 -0.4840  1.0227  0.4694
  116CHL1   H4A14776   4.092   0.222  13.795  0.0957  1.4862 -1.3512
  116CHL1   H4B14777   4.007   0.074  13.824  1.5118  0.6853  0.1686
  116CHL1    C514778   4.039   0.123  13.609  0.6679  0.2680  0.0848
  116CHL1    C614779   4.077   0.000  13.575  0.2148  0.1610  0.9137
  116CHL1    H614780   4.120  -0.072  13.646  0.3413 -0.0985  0.5743
  116CHL1    C714781   4.092  -0.040  13.432  0.3609 -1.1090  0.3912
  116CHL1   H7A14782   4.181  -0.104  13.417 -0.4714 -1.7533 -2.4288
  116CHL1   H7B14783   4.002  -0.095  13.398  0.4802 -0.7406 -0.5633
  116CHL1    C814784   4.101   0.080  13.329  0.0979  0.1242 -0.6151
  116CHL1    H814785   4.198   0.131  13.348 -0.0499  0.7266 -1.4535
  116CHL1   C1414786   4.080   0.031  13.190 -0.1140 -0.3590  0.5720
  116CHL1   H1414787   3.980  -0.018  13.198 -0.7517  0.4489 -1.5734
  116CHL1   C1514788   4.167  -0.087  13.141  0.2265  0.1934 -0.1633
  116CHL1  H15A14789   4.275  -0.079  13.167 -0.1202 -1.2045  1.9408
  116CHL1  H15B14790   4.126  -0.183  13.179 -0.8956  1.7789  2.9528
  116CHL1   C1614791   4.147  -0.081  12.984 -0.5193  0.3169  0.3928
  116CHL1  H16A14792   4.247  -0.066  12.937 -0.8814  0.5976 -0.3008
  116CHL1  H16B14793   4.105  -0.178  12.951  0.4737 -0.3143  0.9317
  116CHL1   C1714794   4.051   0.041  12.954 -0.4315  0.2307  1.1052
  116CHL1   H1714795   3.950  -0.002  12.970 -0.1425  0.3091  3.4342
  116CHL1   C1314796   4.069   0.133  13.076 -0.1076 -0.9030 -0.4870
  116CHL1   C1814797   4.204   0.215  13.069 -0.1429 -0.3644  0.4138
  116CHL1  H18A14798   4.288   0.143  13.058  0.0168 -0.6471  2.9334
  116CHL1  H18B14799   4.202   0.282  12.981 -1.9436  2.3959  2.3988
  116CHL1  H18C14800   4.211   0.285  13.155  0.2248  0.7169 -0.4707
  116CHL1   C1214801   3.953   0.228  13.110  0.3241  0.5670  0.2503
  116CHL1  H12A14802   3.964   0.315  13.042  1.0409  0.2787 -0.0155
  116CHL1  H12B14803   3.861   0.169  13.092  1.3878 -0.9248 -0.4979
  116CHL1   C1114804   3.963   0.288  13.247  0.0772 -0.1079 -0.1896
  116CHL1  H11A14805   4.036   0.372  13.250 -1.6916  1.6347 -2.7923
  116CHL1  H11B14806   3.863   0.334  13.262  0.1823 -0.2498  1.0968
  116CHL1    C914807   3.993   0.181  13.357 -0.3135  0.7769 -0.2170
  116CHL1    H914808   3.899   0.122  13.356  1.5682 -2.5325  0.9214
  116CHL1   C1014809   4.004   0.230  13.503  0.3099  0.6050 -0.1926
  116CHL1   C1914810   4.115   0.338  13.513  0.5314 -0.0243  0.3638
  116CHL1  H19A14811   4.105   0.426  13.445  2.0100  1.8558  2.4284
  116CHL1  H19B14812   4.128   0.379  13.615  1.7068  0.5348  0.0095
  116CHL1  H19C14813   4.217   0.297  13.494 -0.0246 -1.9895  1.3994
  116CHL1    C114814   3.867   0.294  13.534 -0.3709  0.1653 -0.6663
  116CHL1   H1A14815   3.842   0.370  13.458 -1.6987  1.6816  1.1827
  116CHL1   H1B14816   3.783   0.221  13.534 -0.4229  0.2225 -1.1692
  116CHL1    C214817   3.852   0.352  13.678  0.1012  0.6344 -0.2428
  116CHL1   H2A14818   3.753   0.400  13.689 -0.6586 -0.3758 -2.1994
  116CHL1   H2B14819   3.927   0.431  13.701  1.5531 -1.3141  2.4670
  116CHL1   C2014820   4.065   0.095  12.810  0.3618  0.2939 -0.3966
  116CHL1   H2014821   4.141   0.176  12.804 -0.0334  0.7029 -0.0440
  116CHL1   C2114822   3.929   0.153  12.764  0.1790 -0.4535 -0.2914
  116CHL1  H21A14823   3.854   0.071  12.753 -0.6692  0.3046 -0.2826
  116CHL1  H21B14824   3.929   0.211  12.670  1.0473  0.8457  0.4761
  116CHL1  H21C14825   3.887   0.216  12.846 -0.2604 -0.1455 -0.7487
  116CHL1   C2214826   4.111  -0.004  12.704 -0.4761  0.0330 -0.5352
  116CHL1  H22A14827   4.216  -0.036  12.718 -0.2401  1.3941  1.2880
  116CHL1  H22B14828   4.043  -0.091  12.717 -0.6072 -0.1104 -2.0602
  116CHL1   C2314829   4.109   0.058  12.563 -0.1235  0.5197 -0.0969
  116CHL1  H23A14830   4.001   0.066  12.536 -0.1598  1.0183  0.1874
  116CHL1  H23B14831   4.151   0.160  12.553 -1.3934  0.8427 -3.7739
  116CHL1   C2414832   4.183  -0.019  12.456  0.1975  0.1875  0.4199
  116CHL1  H24A14833   4.292  -0.003  12.467  0.8399 -2.3882 -1.3686
  116CHL1  H24B14834   4.171  -0.129  12.463  1.2561  0.1091  1.2776
  116CHL1   C2514835   4.155   0.031  12.306 -0.4541  0.3194 -1.1415
  116CHL1   H2514836   4.049   0.004  12.289 -0.6044 -0.1292  0.3418
  116CHL1   C2614837   4.163   0.183  12.281  0.1159 -0.8650  0.2811
  116CHL1  H26A14838   4.260   0.217  12.322  0.9223 -1.1109 -1.3411
  116CHL1  H26B14839   4.176   0.220  12.177  2.3275  0.5128  0.9760
  116CHL1  H26C14840   4.086   0.248  12.329  0.8798 -0.3810  0.8777
  116CHL1   C2714841   4.238  -0.052  12.201 -0.3331  0.0968 -0.5283
  116CHL1  H27A14842   4.192  -0.057  12.100 -0.2789  0.0343 -0.5493
  116CHL1  H27B14843   4.345  -0.024  12.208 -0.2987 -0.2498  0.5635
  116CHL1  H27C14844   4.218  -0.156  12.234  0.8164 -0.2194 -0.8133
  117CHL1    C314845   5.516   0.730  13.513  0.3043 -0.6515 -0.2094
  117CHL1    H314846   5.485   0.837  13.516 -0.7207 -0.9713  0.9039
  117CHL1    O314847   5.514   0.673  13.646 -0.4241 -0.1384  0.0385
  117CHL1   H3'14848   5.528   0.578  13.649 -0.9414 -0.2418  3.2776
  117CHL1    C414849   5.412   0.658  13.428 -0.0170  0.8785  0.3269
  117CHL1   H4A14850   5.439   0.550  13.432  2.2869  1.4351  0.8292
  117CHL1   H4B14851   5.309   0.669  13.470 -0.3153  1.2873 -0.4908
  117CHL1    C514852   5.412   0.698  13.283 -0.2815  0.0101  0.8431
  117CHL1    C614853   5.297   0.743  13.230  0.4393 -0.4213  0.1976
  117CHL1    H614854   5.213   0.768  13.297  2.1917 -0.4538  2.5293
  117CHL1    C714855   5.280   0.778  13.087 -0.9324  0.3650 -0.1908
  117CHL1   H7A14856   5.188   0.732  13.044 -2.5677  3.0380  0.2330
  117CHL1   H7B14857   5.265   0.887  13.075  0.3803  0.6507  0.6061
  117CHL1    C814858   5.407   0.745  13.012  0.6454 -0.1453  0.1464
  117CHL1    H814859   5.401   0.638  12.981  0.1808 -0.0801  0.0053
  117CHL1   C1414860   5.406   0.820  12.880 -0.2046  0.5590  0.5136
  117CHL1   H1414861   5.401   0.929  12.902  1.7147  0.7915 -0.0904
  117CHL1   C1514862   5.274   0.791  12.806 -0.1518  0.4847 -0.2654
  117CHL1  H15A14863   5.257   0.683  12.787  0.7246  0.5489 -1.5302
  117CHL1  H15B14864   5.184   0.842  12.848 -0.6869 -0.6168 -0.0423
  117CHL1   C1614865   5.316   0.848  12.665  0.6363  0.5856  0.2485
  117CHL1  H16A14866   5.294   0.779  12.580 -0.6906  0.8713  0.3407
  117CHL1  H16B14867   5.256   0.939  12.644  0.2240  0.3438  0.3526
  117CHL1   C1714868   5.470   0.882  12.670 -0.0317  0.3675 -0.5364
  117CHL1   H1714869   5.474   0.989  12.702 -0.8638 -0.0622  1.1417
  117CHL1   C1314870   5.525   0.798  12.783  0.6609 -0.0131  0.2181
  117CHL1   C1814871   5.542   0.649  12.742  1.0858  0.1137 -0.2077
  117CHL1  H18A14872   5.580   0.592  12.829 -0.0619  0.8966  0.8260
  117CHL1  H18B14873   5.447   0.607  12.703  0.0420  2.6243 -0.6179
  117CHL1  H18C14874   5.616   0.635  12.660 -0.0801 -2.9399 -0.8459
  117CHL1   C1214875   5.645   0.851  12.859 -0.2785 -0.0847 -0.3914
  117CHL1  H12A14876   5.728   0.825  12.790 -2.2158 -0.4003 -2.7287
  117CHL1  H12B14877   5.646   0.960  12.881  0.2937 -0.7537  3.7630
  117CHL1   C1114878   5.661   0.796  13.000  0.5027 -0.1477 -0.3832
  117CHL1  H11A14879   5.693   0.690  12.991  0.6267 -0.1114 -0.3663
  117CHL1  H11B14880   5.739   0.852  13.056 -0.6462  1.0688  0.0605
  117CHL1    C914881   5.535   0.787  13.085  0.3617  0.1455 -0.2060
  117CHL1    H914882   5.525   0.893  13.117 -0.0184 -0.1991  0.8624
  117CHL1   C1014883   5.550   0.703  13.212 -0.7055 -0.6046 -0.9362
  117CHL1   C1914884   5.593   0.563  13.179  0.2396 -0.6164  0.2110
  117CHL1  H19A14885   5.591   0.499  13.270 -0.1984  0.6179  1.0905
  117CHL1  H19B14886   5.533   0.508  13.102 -2.0316  0.5426  1.0488
  117CHL1  H19C14887   5.698   0.558  13.142  0.9631  1.6463  1.7795
  117CHL1    C114888   5.659   0.757  13.310  0.4794  0.6111 -0.1440
  117CHL1   H1A14889   5.761   0.728  13.276  0.4256  1.2628 -0.8989
  117CHL1   H1B14890   5.657   0.868  13.305 -0.0859  0.5793 -0.8998
  117CHL1    C214891   5.657   0.722  13.460 -0.1123  0.1219 -0.1947
  117CHL1   H2A14892   5.712   0.787  13.532 -2.1235  0.9037  0.6986
  117CHL1   H2B14893   5.691   0.617  13.473  3.0363  1.1730  1.1624
  117CHL1   C2014894   5.551   0.896  12.533 -0.2587 -0.1300  0.3260
  117CHL1   H2014895   5.654   0.863  12.554  0.5183  1.1570 -1.2484
  117CHL1   C2114896   5.563   1.049  12.503 -0.3626 -0.0365  0.2864
  117CHL1  H21A14897   5.610   1.102  12.588 -0.0448 -0.8354  0.6184
  117CHL1  H21B14898   5.460   1.089  12.491 -0.1071  0.5764  0.0671
  117CHL1  H21C14899   5.622   1.062  12.410  0.4614 -0.8713  0.6792
  117CHL1   C2214900   5.487   0.816  12.415 -0.6173 -0.0383 -0.8996
  117CHL1  H22A14901   5.457   0.718  12.458  0.6785  0.6597  1.8279
  117CHL1  H22B14902   5.401   0.868  12.369  0.2320  2.2824 -0.0043
  117CHL1   C2314903   5.586   0.789  12.299 -0.3681 -0.1548 -0.2472
  117CHL1  H23A14904   5.618   0.891  12.271  1.8241  0.0231  2.4603
  117CHL1  H23B14905   5.682   0.739  12.326 -1.4142 -0.8170  2.7485
  117CHL1   C2414906   5.510   0.712  12.188 -0.4067 -0.1672 -0.4326
  117CHL1  H24A14907   5.428   0.658  12.241 -2.1325  1.5138 -1.2607
  117CHL1  H24B14908   5.481   0.800  12.127  2.3150  2.8637  2.3018
  117CHL1   C2514909   5.592   0.613  12.104  0.4316  0.2785 -0.3313
  117CHL1   H2514910   5.637   0.536  12.170 -0.2864 -0.7135 -0.9613
  117CHL1   C2614911   5.513   0.542  11.999 -0.0434  0.6665 -0.1112
  117CHL1  H26A14912   5.494   0.608  11.912 -0.2649 -0.4251 -0.9118
  117CHL1  H26B14913   5.566   0.451  11.964  0.0725  0.1935  1.2286
  117CHL1  H26C14914   5.415   0.508  12.038 -0.4531  2.1340  0.2130
  117CHL1   C2714915   5.708   0.690  12.041 -0.3441  0.1217  0.1301
  117CHL1  H27A14916   5.786   0.692  12.121 -2.0206  1.2285  1.8308
  117CHL1  H27B14917   5.748   0.632  11.956  2.3172 -1.9616  2.6011
  117CHL1  H27C14918   5.675   0.794  12.019  1.2397  0.9872  1.5479
  118CHL1    C314919   1.137   1.327  13.839  0.0887 -0.3933  0.1001
  118CHL1    H314920   1.058   1.399  13.809 -0.7152 -1.3354 -0.0792
  118CHL1    O314921   1.131   1.321  13.984  0.0842 -0.0170  0.1639
  118CHL1   H3'14922   1.199   1.256  14.001  0.0231 -0.0171  0.4048
  118CHL1    C414923   1.090   1.186  13.795  0.0174 -0.2496 -0.3541
  118CHL1   H4A14924   1.153   1.109  13.844  0.2848 -0.1196 -0.4920
  118CHL1   H4B14925   0.990   1.166  13.840  0.0744  1.6729  0.7382
  118CHL1    C514926   1.100   1.163  13.644 -0.5736 -0.2367 -0.5616
  118CHL1    C614927   1.000   1.116  13.568 -0.1256 -0.1915 -0.0022
  118CHL1    H614928   0.908   1.078  13.615 -0.7819 -0.2437 -1.2992
  118CHL1    C714929   1.014   1.080  13.422 -0.8937 -0.5210 -0.0365
  118CHL1   H7A14930   0.998   0.972  13.403  1.2091 -1.0281  0.8580
  118CHL1   H7B14931   0.938   1.134  13.362 -0.8433 -0.1722  0.2130
  118CHL1    C814932   1.155   1.110  13.360  0.0790  0.3120  0.4102
  118CHL1    H814933   1.223   1.025  13.381 -2.2573 -1.7608  0.0613
  118CHL1   C1414934   1.136   1.130  13.211 -0.2576 -0.7034 -0.5659
  118CHL1   H1414935   1.072   1.220  13.202 -1.1672 -1.3809 -1.0204
  118CHL1   C1514936   1.060   1.027  13.121 -0.1795  0.1325  0.0420
  118CHL1  H15A14937   1.091   0.922  13.140  0.7249  0.1402 -1.2348
  118CHL1  H15B14938   0.950   1.022  13.134 -0.3414  3.3879  0.6953
  118CHL1   C1614939   1.098   1.074  12.973  0.0052 -0.0584  0.2537
  118CHL1  H16A14940   1.140   0.994  12.908  0.1189 -0.2123  0.5139
  118CHL1  H16B14941   1.003   1.109  12.928  0.9424  0.8071 -1.1257
  118CHL1   C1714942   1.200   1.194  12.986  0.0646  0.1577  0.5576
  118CHL1   H1714943   1.133   1.282  12.996  1.4841  1.2032  1.2610
  118CHL1   C1314944   1.260   1.176  13.125 -0.1557 -0.4644 -0.3104
  118CHL1   C1814945   1.354   1.053  13.124  0.3809  0.7084  0.0674
  118CHL1  H18A14946   1.399   1.031  13.223 -0.5873 -3.7336 -0.2684
  118CHL1  H18B14947   1.300   0.959  13.098  0.2884  0.4315  1.2301
  118CHL1  H18C14948   1.447   1.063  13.063  0.6682  2.2727  0.7157
  118CHL1   C1214949   1.331   1.290  13.190 -0.0879  0.5811 -0.7800
  118CHL1  H12A14950   1.431   1.281  13.143 -1.4054 -2.4669 -3.3685
  118CHL1  H12B14951   1.294   1.394  13.172  2.5458  1.5897 -0.8928
  118CHL1   C1114952   1.351   1.276  13.342  0.1171 -0.4789 -0.7492
  118CHL1  H11A14953   1.424   1.196  13.366  1.2671  0.7749  0.1197
  118CHL1  H11B14954   1.388   1.374  13.378  0.7960 -0.1024 -2.3972
  118CHL1    C914955   1.218   1.234  13.421  0.1453 -0.1864  0.0726
  118CHL1    H914956   1.145   1.315  13.399  0.9235  0.0776 -1.8034
  118CHL1   C1014957   1.232   1.217  13.574  0.6301  0.1857  0.6683
  118CHL1   C1914958   1.337   1.113  13.613 -0.0390 -0.7055 -0.1112
  118CHL1  H19A14959   1.433   1.143  13.567 -0.6972  0.2480 -0.9023
  118CHL1  H19B14960   1.341   1.099  13.723  0.1534 -0.0936 -0.0330
  118CHL1  H19C14961   1.298   1.017  13.573  0.8579 -0.2754 -2.1165
  118CHL1    C114962   1.270   1.354  13.626  0.3149  0.2060 -0.3140
  118CHL1   H1A14963   1.374   1.366  13.590  0.8873 -1.6921  0.5611
  118CHL1   H1B14964   1.204   1.427  13.574 -0.5760 -0.2067  0.1970
  118CHL1    C214965   1.275   1.368  13.780  0.2134 -0.5662 -0.1200
  118CHL1   H2A14966   1.289   1.473  13.813 -0.5143  0.2828 -2.3127
  118CHL1   H2B14967   1.363   1.313  13.819 -1.0315 -2.4271  0.1967
  118CHL1   C2014968   1.294   1.203  12.865 -0.0228 -0.7317 -0.1681
  118CHL1   H2014969   1.348   1.107  12.847 -0.3243 -0.8696 -0.3460
  118CHL1   C2114970   1.383   1.319  12.883 -0.2773 -0.2251  0.0702
  118CHL1  H21A14971   1.328   1.408  12.920 -1.1078 -0.2154 -1.1132
  118CHL1  H21B14972   1.423   1.350  12.784 -2.8566  0.1529 -0.9326
  118CHL1  H21C14973   1.475   1.300  12.942  0.6638 -0.8554 -1.5167
  118CHL1   C2214974   1.227   1.210  12.718 -0.4540  0.0142 -0.6664
  118CHL1  H22A14975   1.158   1.123  12.719  1.9138 -1.9588 -0.1460
  118CHL1  H22B14976   1.184   1.312  12.715 -1.5066 -0.4116 -0.6199
  118CHL1   C2314977   1.324   1.181  12.604 -0.1589  0.2890  0.8008
  118CHL1  H23A14978   1.384   1.272  12.581  0.4035  0.6194  3.3460
  118CHL1  H23B14979   1.399   1.106  12.637 -0.1261  0.6180  1.4726
  118CHL1   C2414980   1.252   1.120  12.478 -0.1112 -0.0508 -0.3006
  118CHL1  H24A14981   1.211   1.022  12.510  0.0857  0.1663  0.6369
  118CHL1  H24B14982   1.171   1.191  12.453 -0.3483 -0.3099 -0.2713
  118CHL1   C2514983   1.348   1.104  12.356  1.0204 -0.3263 -0.1291
  118CHL1   H2514984   1.393   1.204  12.339 -0.5255  0.7700  1.8097
  118CHL1   C2614985   1.473   1.017  12.390  0.0426  0.3590  0.3592
  118CHL1  H26A14986   1.539   1.063  12.466  0.3288  0.7727 -0.1355
  118CHL1  H26B14987   1.449   0.918  12.436 -2.6997  1.3776  1.3568
  118CHL1  H26C14988   1.531   1.013  12.296 -0.0738 -0.7840  0.3202
  118CHL1   C2714989   1.279   1.060  12.220 -0.2777  0.0356 -0.5059
  118CHL1  H27A14990   1.243   0.956  12.239  3.4816 -1.1963  0.9891
  118CHL1  H27B14991   1.199   1.128  12.184  1.9362  1.7403 -2.5479
  118CHL1  H27C14992   1.355   1.069  12.139  0.1458 -2.2829 -0.4473
  119CHL1    C314993   2.537   0.481  13.329 -0.7286  0.0992 -0.4060
  119CHL1    H314994   2.548   0.371  13.332 -1.2565  0.0521  2.6572
  119CHL1    O314995   2.514   0.516  13.466  0.2748 -0.6773 -0.1422
  119CHL1   H3'14996   2.592   0.477  13.506  0.5784 -1.6306 -1.5523
  119CHL1    C414997   2.659   0.566  13.281 -0.5744  0.5858 -0.4429
  119CHL1   H4A14998   2.642   0.671  13.311  1.3018  0.4313  1.4444
  119CHL1   H4B14999   2.747   0.538  13.343 -0.9355  1.6966  0.6044
  119CHL1    C515000   2.678   0.545  13.131 -0.0648  0.5457  0.5905
  119CHL1    C615001   2.792   0.492  13.083 -0.2676  0.0432 -0.0438
  119CHL1    H615002   2.870   0.468  13.157 -0.3382  0.7304  0.2642
  119CHL1    C715003   2.815   0.464  12.936  0.4868  1.0788  0.1136
  119CHL1   H7A15004   2.920   0.482  12.903  0.7154 -2.6119 -1.6867
  119CHL1   H7B15005   2.800   0.356  12.916  0.6437  0.5953  2.2854
  119CHL1    C815006   2.709   0.534  12.841  0.1467  0.5279  0.1320
  119CHL1    H815007   2.744   0.640  12.844 -0.3900  0.6995  0.5408
  119CHL1   C1415008   2.721   0.476  12.703 -0.0815  0.0362 -0.2753
  119CHL1   H1415009   2.683   0.371  12.710  1.5922 -0.5470  0.6778
  119CHL1   C1515010   2.861   0.463  12.648  0.0822 -0.1858  0.2194
  119CHL1  H15A15011   2.926   0.550  12.672 -1.2054  0.1258  2.8200
  119CHL1  H15B15012   2.910   0.370  12.686  0.0921 -0.0242  0.6040
  119CHL1   C1615013   2.837   0.455  12.498 -0.1631 -0.5060  0.1575
  119CHL1  H16A15014   2.886   0.538  12.442  0.5620 -1.0474 -0.0141
  119CHL1  H16B15015   2.862   0.359  12.448  1.1954  0.4529 -1.0735
  119CHL1   C1715016   2.680   0.473  12.474 -0.0976  0.1804 -0.5460
  119CHL1   H1715017   2.634   0.373  12.459  0.5281  0.1713 -2.7195
  119CHL1   C1315018   2.628   0.545  12.599 -0.6919  0.1899 -0.1656
  119CHL1   C1815019   2.658   0.696  12.576 -0.3184  0.1347 -0.1051
  119CHL1  H18A15020   2.579   0.744  12.513  0.6499  1.6581 -0.1969
  119CHL1  H18B15021   2.650   0.751  12.672 -0.3283  2.4200 -1.3320
  119CHL1  H18C15022   2.757   0.721  12.532 -0.1438  1.5128  1.0253
  119CHL1   C1215023   2.484   0.516  12.644 -0.4465 -0.5379 -0.1337
  119CHL1  H12A15024   2.404   0.561  12.582  0.1733  1.4614  0.4557
  119CHL1  H12B15025   2.465   0.407  12.654  0.1877 -0.5691  0.9971
  119CHL1   C1115026   2.461   0.565  12.784  0.6286 -0.1859 -0.9788
  119CHL1  H11A15027   2.464   0.675  12.767 -0.7635 -0.0817 -0.7228
  119CHL1  H11B15028   2.359   0.542  12.822  1.4925  0.9931  2.4014
  119CHL1    C915029   2.567   0.519  12.893  0.1013 -0.0799  0.3087
  119CHL1    H915030   2.546   0.410  12.905 -2.1444  0.1856 -0.5880
  119CHL1   C1015031   2.557   0.578  13.035 -0.6113  0.4862 -0.2653
  119CHL1   C1915032   2.553   0.733  13.032  0.1885 -0.2967  0.0266
  119CHL1  H19A15033   2.632   0.772  12.965 -0.2178  1.9621  0.7926
  119CHL1  H19B15034   2.455   0.767  12.992  0.6757  0.5694 -0.4485
  119CHL1  H19C15035   2.559   0.774  13.135 -0.6141  0.7682 -0.3335
  119CHL1    C115036   2.433   0.516  13.099 -0.4124 -0.3619  0.5557
  119CHL1   H1A15037   2.349   0.572  13.055  0.7564  1.4670  0.5626
  119CHL1   H1B15038   2.424   0.406  13.081  1.8723 -0.8878  2.1337
  119CHL1    C215039   2.415   0.534  13.252  0.3872 -0.3607 -0.1725
  119CHL1   H2A15040   2.327   0.474  13.283  1.1832 -0.4685  2.0745
  119CHL1   H2B15041   2.388   0.639  13.275  0.5803 -0.4825  0.6409
  119CHL1   C2015042   2.646   0.530  12.329 -0.5490 -0.1866  0.3066
  119CHL1   H2015043   2.693   0.630  12.318 -1.0541  0.0329  0.0921
  119CHL1   C2115044   2.490   0.546  12.313 -0.0645 -0.6278 -0.0310
  119CHL1  H21A15045   2.455   0.616  12.392  2.5088  0.3673  0.3339
  119CHL1  H21B15046   2.436   0.453  12.338 -0.6349 -0.4371 -0.5280
  119CHL1  H21C15047   2.455   0.581  12.213 -2.1135 -0.4191  0.7131
  119CHL1   C2215048   2.696   0.438  12.218  0.4805 -0.3720  0.2303
  119CHL1  H22A15049   2.806   0.427  12.233  0.5747 -0.0598 -0.2168
  119CHL1  H22B15050   2.644   0.342  12.235 -0.0933 -0.2893 -0.9318
  119CHL1   C2315051   2.677   0.484  12.072  0.6820  0.8315 -0.3133
  119CHL1  H23A15052   2.567   0.471  12.061  0.1734 -0.0182  4.1969
  119CHL1  H23B15053   2.694   0.593  12.060 -1.0703  1.0845 -0.7181
  119CHL1   C2415054   2.758   0.399  11.973  0.1726 -0.2878 -0.4047
  119CHL1  H24A15055   2.757   0.290  11.993 -3.4914 -0.5665 -1.4223
  119CHL1  H24B15056   2.706   0.415  11.876 -1.8375  1.8059  0.9192
  119CHL1   C2515057   2.905   0.442  11.949  0.6391  0.2972 -0.5904
  119CHL1   H2515058   2.957   0.415  12.043 -0.2803  0.3433 -0.0550
  119CHL1   C2615059   2.966   0.358  11.839  0.9877 -0.4932  0.3628
  119CHL1  H26A15060   2.932   0.381  11.735  1.2517 -2.4399 -0.1928
  119CHL1  H26B15061   3.075   0.373  11.849  1.0459 -0.7264  0.0768
  119CHL1  H26C15062   2.943   0.251  11.857  0.5537 -0.5608 -0.5238
  119CHL1   C2715063   2.908   0.592  11.919  0.5586  0.7016  0.2348
  119CHL1  H27A15064   2.879   0.650  12.010 -0.7638  0.5659 -0.0911
  119CHL1  H27B15065   3.011   0.623  11.893 -0.2879  1.4237 -2.5568
  119CHL1  H27C15066   2.837   0.621  11.840 -0.7112  0.3487  1.2091
  120CHL1    C315067   1.004   0.750  13.915 -0.1541 -0.7319  0.4082
  120CHL1    H315068   0.964   0.846  13.877  2.1064  0.8436  1.7329
  120CHL1    O315069   1.006   0.749  14.055 -0.0491  0.0504  0.1892
  120CHL1   H3'15070   0.920   0.719  14.086  0.7556 -1.5215  1.0193
  120CHL1    C415071   0.932   0.631  13.851 -0.1382  0.3973 -0.1025
  120CHL1   H4A15072   0.962   0.531  13.889 -2.0070 -0.2647 -0.2787
  120CHL1   H4B15073   0.827   0.643  13.884  0.3275  4.6002  0.3685
  120CHL1    C515074   0.947   0.644  13.698 -0.2089  0.2457 -0.8244
  120CHL1    C615075   0.839   0.670  13.623  0.6715  0.1601 -0.7769
  120CHL1    H615076   0.740   0.673  13.672  1.6734 -2.0172  1.6180
  120CHL1    C715077   0.844   0.662  13.476 -0.6632 -0.3037  0.0889
  120CHL1   H7A15078   0.765   0.591  13.446  0.2068 -1.8219  1.2542
  120CHL1   H7B15079   0.836   0.759  13.423  0.6458 -0.8110 -1.1162
  120CHL1    C815080   0.975   0.598  13.414 -0.0604 -0.5578  0.4418
  120CHL1    H815081   0.972   0.488  13.426 -0.2327 -0.4272  1.7788
  120CHL1   C1415082   0.974   0.636  13.267 -0.0458 -0.2935 -0.0265
  120CHL1   H1415083   0.969   0.747  13.267  1.0661 -0.1924  1.9201
  120CHL1   C1515084   0.860   0.589  13.181  0.2950  0.0727  0.6724
  120CHL1  H15A15085   0.835   0.484  13.207  0.0186  0.0825  0.4490
  120CHL1  H15B15086   0.771   0.654  13.194 -0.2851 -0.2114 -1.4313
  120CHL1   C1615087   0.917   0.595  13.041  0.9110 -0.2309  0.2765
  120CHL1  H16A15088   0.909   0.495  12.994  0.5986  0.6833 -1.7653
  120CHL1  H16B15089   0.861   0.676  12.988  1.3834  0.6493  1.0933
  120CHL1   C1715090   1.070   0.642  13.049 -0.0378  0.3990 -0.8519
  120CHL1   H1715091   1.064   0.753  13.046  1.4573  0.4782 -1.9407
  120CHL1   C1315092   1.107   0.599  13.195 -0.6620 -0.4978  0.3589
  120CHL1   C1815093   1.137   0.448  13.187  0.3005  0.0156  0.3208
  120CHL1  H18A15094   1.082   0.404  13.101 -1.5319  1.6799  0.5803
  120CHL1  H18B15095   1.242   0.441  13.151  0.9273  1.1630  1.8525
  120CHL1  H18C15096   1.120   0.407  13.288 -3.8446 -0.0222 -0.2364
  120CHL1   C1215097   1.224   0.669  13.269 -0.8806 -0.3513 -0.0371
  120CHL1  H12A15098   1.317   0.632  13.222 -0.9224 -0.2826 -0.1731
  120CHL1  H12B15099   1.217   0.780  13.258 -2.3202 -0.1082  2.5940
  120CHL1   C1115100   1.228   0.632  13.420 -0.3931 -0.6958  0.0471
  120CHL1  H11A15101   1.251   0.524  13.428  0.8233 -0.3088  2.4487
  120CHL1  H11B15102   1.308   0.682  13.479 -0.5288  0.0494 -0.3789
  120CHL1    C915103   1.090   0.669  13.489  0.1973 -0.4267 -0.3547
  120CHL1    H915104   1.078   0.777  13.465 -0.6606 -0.5680 -0.5952
  120CHL1   C1015105   1.086   0.640  13.643 -1.3763  0.5421  0.0078
  120CHL1   C1915106   1.140   0.499  13.661 -0.1012  0.1591 -0.4719
  120CHL1  H19A15107   1.084   0.431  13.594 -0.2663  0.2749 -0.4508
  120CHL1  H19B15108   1.250   0.490  13.649 -0.2202  0.5303 -2.0807
  120CHL1  H19C15109   1.118   0.451  13.759 -0.3007 -2.8185 -1.8836
  120CHL1    C115110   1.176   0.737  13.720 -0.4129 -0.0914  0.1591
  120CHL1   H1A15111   1.282   0.721  13.689 -0.6513  2.7152 -2.5535
  120CHL1   H1B15112   1.151   0.839  13.686  0.7096  0.5690  1.2146
  120CHL1    C215113   1.153   0.731  13.874 -1.0347  0.1755  0.2280
  120CHL1   H2A15114   1.219   0.811  13.914  0.3990 -1.2831  0.8877
  120CHL1   H2B15115   1.192   0.632  13.904 -0.8661  0.1301 -0.1323
  120CHL1   C2015116   1.147   0.606  12.924 -0.3387  0.0355 -0.4316
  120CHL1   H2015117   1.153   0.497  12.902  1.4104  0.1594 -0.7205
  120CHL1   C2115118   1.281   0.672  12.934  0.4268 -0.5648 -1.1580
  120CHL1  H21A15119   1.276   0.778  12.965 -1.5160 -0.2475 -2.3457
  120CHL1  H21B15120   1.330   0.674  12.834  2.2349  1.5318 -0.2877
  120CHL1  H21C15121   1.341   0.602  12.995 -2.2372 -2.4615 -0.5227
  120CHL1   C2215122   1.068   0.670  12.803  0.3354  0.5397  0.5287
  120CHL1  H22A15123   0.964   0.632  12.803  0.8363 -1.0095  2.8255
  120CHL1  H22B15124   1.071   0.778  12.829 -1.7481  0.7084  0.2480
  120CHL1   C2315125   1.129   0.654  12.658  0.0067  0.0181  0.0419
  120CHL1  H23A15126   1.225   0.709  12.651  0.8606 -1.3710  0.5532
  120CHL1  H23B15127   1.157   0.547  12.655 -1.9152 -0.5018 -0.6715
  120CHL1   C2415128   1.038   0.693  12.542  0.6742  0.7366  0.3129
  120CHL1  H24A15129   0.938   0.645  12.551  1.8549 -1.7693  1.0538
  120CHL1  H24B15130   1.022   0.803  12.539 -1.5298  0.4516 -2.2027
  120CHL1   C2515131   1.086   0.638  12.410  0.7441 -0.6989  1.0792
  120CHL1   H2515132   1.190   0.676  12.401 -0.0336  1.4223  0.5096
  120CHL1   C2615133   1.085   0.485  12.390  0.0971  0.8808 -0.0255
  120CHL1  H26A15134   1.112   0.465  12.284  2.0935  2.4138  0.1553
  120CHL1  H26B15135   1.161   0.433  12.452 -1.0232 -0.3447  0.3965
  120CHL1  H26C15136   0.984   0.445  12.417  0.9434 -1.1233  0.3251
  120CHL1   C2715137   0.994   0.692  12.293  0.1805  0.3271  0.5663
  120CHL1  H27A15138   0.888   0.659  12.292 -0.0412  1.0159  0.0036
  120CHL1  H27B15139   0.981   0.802  12.294 -2.5672  0.1616 -1.5163
  120CHL1  H27C15140   1.032   0.665  12.192 -0.4966 -1.2181  0.6922
  121CHL1    C315141   5.811   3.868  11.345  0.0496 -0.2031  0.4266
  121CHL1    H315142   5.892   3.792  11.350 -1.5287 -1.8739  3.4167
  121CHL1    O315143   5.805   3.946  11.221  0.6583  0.2337  0.1114
  121CHL1   H3'15144   5.838   3.882  11.159  0.8639 -0.7645  1.2054
  121CHL1    C415145   5.670   3.806  11.369  0.0846 -0.5761 -0.4519
  121CHL1   H4A15146   5.591   3.876  11.335 -1.8325 -1.8144  1.2138
  121CHL1   H4B15147   5.669   3.719  11.300 -1.3591  0.0648 -1.2892
  121CHL1    C515148   5.658   3.759  11.512 -0.6373 -0.2492  0.1527
  121CHL1    C615149   5.611   3.641  11.539 -0.2742  0.6107 -0.1817
  121CHL1    H615150   5.587   3.573  11.456  0.1754 -1.8072  1.5651
  121CHL1    C715151   5.593   3.591  11.681 -0.1823 -0.4574 -0.0347
  121CHL1   H7A15152   5.496   3.537  11.689  0.6644 -2.0409 -0.1021
  121CHL1   H7B15153   5.672   3.515  11.697  1.0863  0.6612 -0.8491
  121CHL1    C815154   5.601   3.702  11.788 -0.2030  0.5228 -0.3818
  121CHL1    H815155   5.497   3.742  11.796 -1.6898 -3.0729  0.7434
  121CHL1   C1415156   5.619   3.647  11.937 -0.1672  0.4174  0.0575
  121CHL1   H1415157   5.719   3.599  11.936 -0.3863 -0.1030 -2.3035
  121CHL1   C1515158   5.521   3.535  11.989 -0.0725  0.3827  0.8922
  121CHL1  H15A15159   5.417   3.562  11.962  0.3027  0.9590 -0.0335
  121CHL1  H15B15160   5.531   3.441  11.930  1.0819  1.0627 -0.0441
  121CHL1   C1615161   5.556   3.518  12.139 -0.7798  0.2107 -0.0651
  121CHL1  H16A15162   5.465   3.496  12.199  0.5368 -0.5049  1.7313
  121CHL1  H16B15163   5.618   3.426  12.140 -1.8832 -0.5543 -0.1829
  121CHL1   C1715164   5.631   3.651  12.175 -0.3197 -0.7696  0.1388
  121CHL1   H1715165   5.740   3.632  12.187  0.0513  0.2369 -1.3235
  121CHL1   C1315166   5.621   3.746  12.053 -0.7297 -0.0345 -0.1487
  121CHL1   C1815167   5.490   3.832  12.054  0.9942  0.3718 -0.6460
  121CHL1  H18A15168   5.468   3.894  11.965 -1.3640  0.1383 -0.2902
  121CHL1  H18B15169   5.405   3.765  12.081  0.2861  0.9573 -1.3729
  121CHL1  H18C15170   5.497   3.904  12.139  1.1172 -1.5617  1.0551
  121CHL1   C1215171   5.743   3.830  12.021  0.2437  1.3346 -0.1992
  121CHL1  H12A15172   5.750   3.915  12.093  0.2998  0.0943  1.3033
  121CHL1  H12B15173   5.838   3.772  12.024 -0.5904 -0.1449  3.7862
  121CHL1   C1115174   5.740   3.897  11.883 -0.1343 -0.1642 -0.1631
  121CHL1  H11A15175   5.662   3.977  11.885 -0.2304 -0.2651  0.1803
  121CHL1  H11B15176   5.840   3.943  11.867 -0.4170 -0.0457 -1.8155
  121CHL1    C915177   5.715   3.795  11.768 -0.6045 -0.6740  0.6015
  121CHL1    H915178   5.808   3.734  11.760  0.3052  0.7326  0.1678
  121CHL1   C1015179   5.693   3.861  11.624  0.4033 -0.0685 -0.6821
  121CHL1   C1915180   5.581   3.969  11.635  0.3815 -0.2340 -0.7183
  121CHL1  H19A15181   5.617   4.062  11.684 -0.9651 -1.4644  2.9119
  121CHL1  H19B15182   5.546   4.001  11.535  0.5297  1.1890 -0.3365
  121CHL1  H19C15183   5.500   3.921  11.693  0.4283  1.0100  0.4136
  121CHL1    C115184   5.825   3.937  11.588 -0.2771 -0.0565  0.2527
  121CHL1   H1A15185   5.841   4.021  11.660  3.1103 -0.7882  0.4945
  121CHL1   H1B15186   5.910   3.871  11.616  0.7432  0.6764 -0.9995
  121CHL1    C215187   5.839   3.983  11.446  0.5155  0.3643 -0.1919
  121CHL1   H2A15188   5.940   4.028  11.432  0.1419  1.3235  0.0973
  121CHL1   H2B15189   5.757   4.056  11.432  0.2979  0.4478  1.3156
  121CHL1   C2015190   5.590   3.715  12.308  0.0327  0.0338 -0.5971
  121CHL1   H2015191   5.485   3.748  12.294 -0.7683 -2.1021  0.0430
  121CHL1   C2115192   5.676   3.834  12.350  0.3846  0.4088  0.2791
  121CHL1  H21A15193   5.671   3.859  12.458 -2.7257  1.9214 -0.1258
  121CHL1  H21B15194   5.654   3.926  12.293  1.8537  0.0366 -0.9566
  121CHL1  H21C15195   5.782   3.808  12.329  0.3493  0.9065 -0.5631
  121CHL1   C2215196   5.591   3.615  12.426  0.0075 -0.8686  0.5968
  121CHL1  H22A15197   5.549   3.522  12.382 -3.4209  1.6484 -2.0016
  121CHL1  H22B15198   5.694   3.598  12.465  0.0808 -0.8643  0.4056
  121CHL1   C2315199   5.496   3.651  12.536 -0.9237 -0.3740 -0.3185
  121CHL1  H23A15200   5.515   3.750  12.582  0.2532  0.3052 -2.1653
  121CHL1  H23B15201   5.392   3.646  12.497 -1.1223  1.4779 -0.1167
  121CHL1   C2415202   5.511   3.547  12.650  0.1673  0.4196  0.2882
  121CHL1  H24A15203   5.472   3.458  12.596 -0.0067  0.8447 -0.2975
  121CHL1  H24B15204   5.618   3.543  12.678  0.3948  0.7482 -0.5143
  121CHL1   C2515205   5.414   3.583  12.768 -0.0026 -0.3332  0.7520
  121CHL1   H2515206   5.321   3.628  12.728  0.5769  0.8078  0.6456
  121CHL1   C2615207   5.382   3.452  12.841 -0.4389 -0.2132  0.1842
  121CHL1  H26A15208   5.335   3.485  12.937 -1.4423  0.3501 -0.4890
  121CHL1  H26B15209   5.315   3.379  12.792  1.7529 -1.7468 -0.7067
  121CHL1  H26C15210   5.479   3.400  12.861  1.0465  2.5420  0.7708
  121CHL1   C2715211   5.482   3.671  12.871  0.0778  0.1556  0.1544
  121CHL1  H27A15212   5.420   3.690  12.962 -0.9296  2.5810 -0.9644
  121CHL1  H27B15213   5.581   3.628  12.896 -0.0677  0.5318  1.4979
  121CHL1  H27C15214   5.500   3.773  12.832 -1.0926  0.0118 -0.8267
  122CHL1    C315215   4.946   3.595  10.780  0.3377 -0.7165 -0.0950
  122CHL1    H315216   5.043   3.630  10.820 -0.2507 -1.7433  2.4080
  122CHL1    O315217   4.952   3.571  10.637  0.0531  0.0399 -0.4136
  122CHL1   H3'15218   5.038   3.535  10.612  0.5391  1.6657 -1.2357
  122CHL1    C415219   4.905   3.471  10.862  0.3959  0.1655 -0.4586
  122CHL1   H4A15220   4.808   3.431  10.824  0.2667  0.1589 -0.1204
  122CHL1   H4B15221   4.970   3.382  10.846 -0.7151 -1.0851  1.5277
  122CHL1    C515222   4.899   3.505  11.010  0.8634  0.2720 -0.1793
  122CHL1    C615223   4.977   3.443  11.105 -0.2641 -0.0703  0.4177
  122CHL1    H615224   5.050   3.367  11.075  0.5824  0.9616 -0.2087
  122CHL1    C715225   4.961   3.461  11.258  0.7465 -0.5901 -0.1377
  122CHL1   H7A15226   4.974   3.363  11.309  0.5513 -1.1333 -1.1106
  122CHL1   H7B15227   5.044   3.528  11.290  1.7992 -2.6567  1.7085
  122CHL1    C815228   4.823   3.526  11.282 -0.5071 -0.9857 -0.1007
  122CHL1    H815229   4.747   3.450  11.255  0.7270 -3.0051  1.7558
  122CHL1   C1415230   4.813   3.559  11.431  0.4045 -0.7459  0.5934
  122CHL1   H1415231   4.894   3.635  11.438  0.3101 -0.6983  1.2324
  122CHL1   C1515232   4.849   3.457  11.530  1.1208  0.5049 -0.4576
  122CHL1  H15A15233   4.809   3.356  11.508 -3.4100  1.9023  0.3113
  122CHL1  H15B15234   4.958   3.457  11.549  0.6984 -2.1898  2.8476
  122CHL1   C1615235   4.790   3.504  11.659  0.5005  0.1654  0.9927
  122CHL1  H16A15236   4.723   3.422  11.692  2.0320 -1.7840 -0.4943
  122CHL1  H16B15237   4.870   3.524  11.734  3.0297  1.7033 -1.8683
  122CHL1   C1715238   4.723   3.639  11.624  0.6474  0.4417 -0.1659
  122CHL1   H1715239   4.808   3.711  11.627  0.4776  0.6133  0.9542
  122CHL1   C1315240   4.692   3.639  11.478 -0.2390 -0.0489 -0.3872
  122CHL1   C1815241   4.559   3.568  11.456 -0.5276 -0.1904  0.0603
  122CHL1  H18A15242   4.539   3.543  11.350  2.2304 -1.1825 -0.3109
  122CHL1  H18B15243   4.552   3.478  11.520  1.1348  1.4418  2.8033
  122CHL1  H18C15244   4.474   3.633  11.487 -1.8044 -1.0430 -1.5289
  122CHL1   C1215245   4.699   3.778  11.406 -0.1860  0.1985  0.7574
  122CHL1  H12A15246   4.626   3.859  11.426  0.7416  1.2609 -0.0601
  122CHL1  H12B15247   4.802   3.817  11.421  0.2044 -1.0637  1.5006
  122CHL1   C1115248   4.700   3.750  11.251 -0.4384  0.0082  0.3988
  122CHL1  H11A15249   4.600   3.712  11.222 -0.0225  0.2450 -1.5091
  122CHL1  H11B15250   4.707   3.846  11.196  1.8280  0.6415  1.6483
  122CHL1    C915251   4.815   3.657  11.198 -0.2755 -0.3020 -0.6431
  122CHL1    H915252   4.907   3.718  11.215 -1.4862  1.2906  0.4556
  122CHL1   C1015253   4.801   3.615  11.048  0.2759 -0.3019 -0.1889
  122CHL1   C1915254   4.660   3.552  11.025  0.5958 -0.4091  0.3641
  122CHL1  H19A15255   4.633   3.481  11.105 -1.3015  0.9233  0.9821
  122CHL1  H19B15256   4.581   3.628  11.041  1.5069 -0.0111  3.7098
  122CHL1  H19C15257   4.642   3.504  10.926 -2.2353 -0.0176  0.6218
  122CHL1    C115258   4.819   3.737  10.952  0.4720 -0.2605 -0.3867
  122CHL1   H1A15259   4.738   3.813  10.956  1.0608  0.3937 -0.8046
  122CHL1   H1B15260   4.910   3.792  10.983 -0.6545  2.2623 -1.2342
  122CHL1    C215261   4.832   3.709  10.802 -0.3264 -0.3388  0.0461
  122CHL1   H2A15262   4.860   3.802  10.748  0.7786 -0.1953  0.8325
  122CHL1   H2B15263   4.734   3.668  10.770  0.0357 -0.5836 -0.7862
  122CHL1   C2015264   4.621   3.674  11.735  0.1915  0.9440 -0.0840
  122CHL1   H2015265   4.533   3.606  11.737 -0.1504  1.3752 -0.2379
  122CHL1   C2115266   4.567   3.810  11.698  0.4784  0.0835 -0.4192
  122CHL1  H21A15267   4.653   3.875  11.674 -0.7242  2.1353  0.4993
  122CHL1  H21B15268   4.518   3.862  11.784  1.9760  1.7406 -0.5083
  122CHL1  H21C15269   4.505   3.810  11.606  3.3463  2.3514 -2.5365
  122CHL1   C2215270   4.686   3.670  11.878 -0.3388  0.3147  0.7159
  122CHL1  H22A15271   4.742   3.575  11.892  1.0110  0.8981 -0.4892
  122CHL1  H22B15272   4.754   3.757  11.890  2.2177 -0.9932 -2.6404
  122CHL1   C2315273   4.577   3.690  11.991  0.2746 -0.4987  0.0541
  122CHL1  H23A15274   4.524   3.788  11.985  0.6624 -0.3782 -2.4377
  122CHL1  H23B15275   4.499   3.612  11.973 -0.5019  0.5229 -1.2083
  122CHL1   C2415276   4.653   3.667  12.122 -0.0431  0.1885 -0.2859
  122CHL1  H24A15277   4.703   3.568  12.116  1.5054  0.9061  0.0400
  122CHL1  H24B15278   4.739   3.735  12.143  0.7397 -0.3795 -1.5308
  122CHL1   C2515279   4.569   3.674  12.251 -0.7224  0.1123 -0.6613
  122CHL1   H2515280   4.481   3.607  12.246  0.4091 -1.3936 -1.0664
  122CHL1   C2615281   4.646   3.619  12.372 -0.0452 -0.2688  0.1080
  122CHL1  H26A15282   4.640   3.509  12.383 -0.4038 -0.2578  0.0282
  122CHL1  H26B15283   4.752   3.654  12.369  0.0221 -0.4244  0.6052
  122CHL1  H26C15284   4.589   3.659  12.459 -0.3967 -0.7418  0.0935
  122CHL1   C2715285   4.516   3.812  12.274  0.0409  0.4474 -0.6636
  122CHL1  H27A15286   4.449   3.846  12.192 -1.4828  0.2278  0.4317
  122CHL1  H27B15287   4.461   3.813  12.371  0.5972  0.4201 -0.3438
  122CHL1  H27C15288   4.600   3.883  12.286 -1.6339  2.6689 -1.4017
  123CHL1    C315289   0.108   3.838  10.819  0.3369 -0.2810 -0.5638
  123CHL1    H315290   0.170   3.930  10.823  1.4374 -1.0324  1.8641
  123CHL1    O315291   0.099   3.786  10.688 -0.3338  0.1036  0.2130
  123CHL1   H3'15292   0.045   3.852  10.644  2.5051  1.9235 -0.8292
  123CHL1    C415293   0.168   3.731  10.914 -0.0601 -0.0366  0.1008
  123CHL1   H4A15294   0.113   3.635  10.910 -0.5979  0.2678  0.2047
  123CHL1   H4B15295   0.261   3.697  10.863 -0.2477  1.7488 -1.5772
  123CHL1    C515296   0.173   3.767  11.060  0.7116 -0.2681  0.4252
  123CHL1    C615297   0.286   3.745  11.126  0.6206  0.4736  0.0456
  123CHL1    H615298   0.375   3.707  11.072 -0.1792  0.0836 -1.0273
  123CHL1    C715299   0.304   3.784  11.267  1.1419  0.0183 -0.1567
  123CHL1   H7A15300   0.375   3.718  11.322 -2.6409 -4.3314  0.0994
  123CHL1   H7B15301   0.345   3.887  11.275  0.6849  0.1192  1.0536
  123CHL1    C815302   0.163   3.790  11.339  0.2107 -0.1584  0.5561
  123CHL1    H815303   0.124   3.686  11.345 -0.7532  0.2087  0.8540
  123CHL1   C1415304   0.183   3.841  11.484  0.2930 -0.1697  0.0493
  123CHL1   H1415305   0.201   3.950  11.475 -2.9704  0.4022 -0.6767
  123CHL1   C1515306   0.290   3.781  11.580 -0.0875 -0.1959 -0.7153
  123CHL1  H15A15307   0.298   3.674  11.551 -2.2957 -0.8253  0.7332
  123CHL1  H15B15308   0.382   3.842  11.569 -1.4127  1.7049 -1.6690
  123CHL1   C1615309   0.234   3.806  11.722 -0.0820  0.0312  0.1933
  123CHL1  H16A15310   0.227   3.707  11.772 -0.3330 -1.2349 -2.2208
  123CHL1  H16B15311   0.298   3.878  11.779  0.1940  0.5813 -0.7786
  123CHL1   C1715312   0.101   3.882  11.701  0.1208  0.1385 -0.2095
  123CHL1   H1715313   0.130   3.989  11.692  0.9204  0.0410  0.9639
  123CHL1   C1315314   0.053   3.841  11.561 -0.0276  0.1150 -0.2602
  123CHL1   C1815315  -0.001   3.697  11.571  0.8286 -0.1301  0.2462
  123CHL1  H18A15316   0.071   3.615  11.593 -0.1343 -1.4782 -1.3070
  123CHL1  H18B15317  -0.085   3.699  11.644  2.8894  1.5080  2.7311
  123CHL1  H18C15318  -0.037   3.660  11.472  1.1022  0.6900 -0.1652
  123CHL1   C1215319  -0.055   3.934  11.494  0.5187  0.1194 -0.5400
  123CHL1  H12A15320  -0.148   3.928  11.553  1.1448 -0.8575  0.3785
  123CHL1  H12B15321  -0.017   4.039  11.495 -0.7559  0.6441 -2.1181
  123CHL1   C1115322  -0.077   3.905  11.346  0.2233 -0.1323 -0.5544
  123CHL1  H11A15323  -0.136   3.813  11.326 -3.9925  2.2770 -0.2021
  123CHL1  H11B15324  -0.139   3.982  11.296 -0.8047 -0.4563  0.1947
  123CHL1    C915325   0.058   3.881  11.264 -0.7469 -0.0846 -0.3510
  123CHL1    H915326   0.113   3.977  11.253  0.2983 -0.7837 -1.5034
  123CHL1   C1015327   0.040   3.825  11.119 -0.3189  0.5097  0.2087
  123CHL1   C1915328  -0.055   3.702  11.112  1.0962  0.0575  0.2571
  123CHL1  H19A15329  -0.052   3.646  11.016  1.8172  0.8535 -0.1910
  123CHL1  H19B15330  -0.038   3.652  11.210  0.1077  3.2722  2.2147
  123CHL1  H19C15331  -0.158   3.741  11.119  0.9009 -0.1387 -1.1830
  123CHL1    C115332  -0.004   3.943  11.020  0.0749  0.9740 -0.1965
  123CHL1   H1A15333  -0.100   3.993  11.046 -0.5214  0.3305 -1.1183
  123CHL1   H1B15334   0.074   4.022  11.023  0.6576  0.3952  1.7256
  123CHL1    C215335  -0.026   3.888  10.877  0.1944  0.2210  0.2364
  123CHL1   H2A15336  -0.062   3.975  10.819  0.1856 -0.2662 -0.5014
  123CHL1   H2B15337  -0.106   3.811  10.873  1.1894 -0.7802 -1.3656
  123CHL1   C2015338   0.008   3.874  11.825  0.2419  0.2741 -0.5718
  123CHL1   H2015339  -0.030   3.770  11.840  2.7989 -0.6267  0.2058
  123CHL1   C2115340  -0.109   3.968  11.811 -0.2039 -0.6091 -0.2500
  123CHL1  H21A15341  -0.188   3.921  11.749 -0.9768 -1.7927  1.5679
  123CHL1  H21B15342  -0.078   4.069  11.779  0.8824 -1.0058 -0.5031
  123CHL1  H21C15343  -0.160   3.972  11.909 -0.0870 -1.6283 -0.1367
  123CHL1   C2215344   0.075   3.899  11.969  0.4504 -0.0992 -0.0490
  123CHL1  H22A15345   0.011   3.884  12.058  1.0918  1.7099  0.7485
  123CHL1  H22B15346   0.144   3.814  11.991 -0.7358 -0.9607  0.4256
  123CHL1   C2315347   0.140   4.036  11.980 -0.1243  0.1798 -0.5856
  123CHL1  H23A15348   0.248   4.023  11.957  0.0556  1.2128 -0.3917
  123CHL1  H23B15349   0.100   4.104  11.902  0.5016  1.2587  0.0131
  123CHL1   C2415350   0.116   4.094  12.123  0.0640  1.0054 -0.1335
  123CHL1  H24A15351   0.157   4.197  12.129 -1.4911  1.5516  2.5694
  123CHL1  H24B15352   0.007   4.106  12.143  0.2546  1.6410  0.5622
  123CHL1   C2515353   0.197   4.008  12.226  0.3629  0.5247  0.0775
  123CHL1   H2515354   0.165   3.902  12.211  0.0294  0.8690 -1.9604
  123CHL1   C2615355   0.350   3.984  12.211 -0.4291 -0.0989  0.4445
  123CHL1  H26A15356   0.366   3.945  12.108  0.9523  0.1098  0.5643
  123CHL1  H26B15357   0.407   4.080  12.212 -0.9999  0.2499  1.2685
  123CHL1  H26C15358   0.399   3.912  12.279  1.3870  1.0233  0.3962
  123CHL1   C2715359   0.155   4.047  12.364 -0.0193  0.0106 -0.7854
  123CHL1  H27A15360   0.161   4.157  12.377  1.6562 -0.0207 -1.0726
  123CHL1  H27B15361   0.052   4.009  12.385  0.3119 -0.4507  0.0423
  123CHL1  H27C15362   0.217   3.991  12.438 -0.9543  0.6325  0.5172
  124CHL1    C315363   4.988   4.668  10.732 -0.4397 -0.1283  0.8272
  124CHL1    H315364   5.080   4.729  10.747 -0.6896  0.2778  0.7298
  124CHL1    O315365   4.989   4.617  10.599 -0.3784 -0.1448 -0.7047
  124CHL1   H3'15366   4.952   4.686  10.542  1.0014  0.9799 -0.2930
  124CHL1    C415367   5.007   4.547  10.825 -0.2665 -0.3545 -0.7020
  124CHL1   H4A15368   4.920   4.477  10.813 -0.5671 -0.3577  1.1747
  124CHL1   H4B15369   5.098   4.496  10.786  0.1041  0.0706 -0.4016
  124CHL1    C515370   5.027   4.592  10.968 -0.9042  0.5083  0.7309
  124CHL1    C615371   5.131   4.552  11.043 -0.6497 -0.4635 -0.5888
  124CHL1    H615372   5.213   4.487  11.009 -0.1506  0.3170 -0.8900
  124CHL1    C715373   5.124   4.573  11.192 -0.5237  0.2657  0.0843
  124CHL1   H7A15374   5.151   4.477  11.242 -0.2491  0.9460  1.2894
  124CHL1   H7B15375   5.205   4.643  11.221  1.8754 -2.0702 -0.6210
  124CHL1    C815376   4.987   4.628  11.250  0.0746 -0.3713 -0.4008
  124CHL1    H815377   4.917   4.542  11.250  0.6428 -0.8469 -0.4555
  124CHL1   C1415378   5.005   4.685  11.392  0.1984  0.6731 -0.0160
  124CHL1   H1415379   5.072   4.773  11.382  0.3921  0.6278  0.7960
  124CHL1   C1515380   5.072   4.602  11.497 -0.4720 -1.0087 -0.6498
  124CHL1  H15A15381   5.051   4.492  11.498 -1.6182 -0.9043  3.1565
  124CHL1  H15B15382   5.181   4.605  11.479 -0.3980 -2.3515 -0.5750
  124CHL1   C1615383   5.035   4.666  11.629  0.2524 -0.0659 -0.0965
  124CHL1  H16A15384   4.979   4.595  11.693  0.3786  0.9306  1.1537
  124CHL1  H16B15385   5.127   4.691  11.686 -0.4176 -0.5093  1.1995
  124CHL1   C1715386   4.944   4.792  11.590 -0.3490 -0.6362 -0.7539
  124CHL1   H1715387   5.013   4.878  11.577  0.7172 -1.4598 -0.7047
  124CHL1   C1315388   4.887   4.746  11.459 -0.1194  0.2685  0.1396
  124CHL1   C1815389   4.779   4.638  11.488 -0.9680 -0.0465 -0.1613
  124CHL1  H18A15390   4.760   4.593  11.388  0.1667  1.9158 -1.3305
  124CHL1  H18B15391   4.798   4.557  11.561  2.1649  0.0307 -0.7380
  124CHL1  H18C15392   4.680   4.685  11.505  0.1224  2.2284  0.2729
  124CHL1   C1215393   4.829   4.851  11.361 -0.6278 -0.8827 -0.2873
  124CHL1  H12A15394   4.736   4.891  11.406  0.5726  1.7562  0.0279
  124CHL1  H12B15395   4.895   4.940  11.359 -2.3836  0.4554 -1.7584
  124CHL1   C1115396   4.803   4.803  11.219 -0.4449  0.1763  1.0581
  124CHL1  H11A15397   4.716   4.735  11.230 -2.5433  2.5470  0.0584
  124CHL1  H11B15398   4.757   4.879  11.153  0.0721  1.8989  2.6210
  124CHL1    C915399   4.928   4.732  11.159  0.2097 -0.0811  0.7157
  124CHL1    H915400   5.006   4.809  11.146 -1.0200  0.9239 -1.1167
  124CHL1   C1015401   4.903   4.668  11.018 -0.2522  0.4426  0.0434
  124CHL1   C1915402   4.791   4.567  11.021 -0.1563  0.0623  0.5701
  124CHL1  H19A15403   4.771   4.514  10.926  2.0865  2.9120 -1.6800
  124CHL1  H19B15404   4.820   4.483  11.089  0.0107 -0.5377 -0.2308
  124CHL1  H19C15405   4.701   4.618  11.060  0.6836  0.4961  2.0269
  124CHL1    C115406   4.874   4.785  10.925  0.3814 -0.1989  0.3445
  124CHL1   H1A15407   4.777   4.833  10.950  0.4658  0.9866 -1.4587
  124CHL1   H1B15408   4.957   4.859  10.934  0.2483  0.0809 -0.6556
  124CHL1    C215409   4.867   4.748  10.772 -0.1696  0.1033 -0.6153
  124CHL1   H2A15410   4.864   4.840  10.710 -0.2891  0.4366 -0.1261
  124CHL1   H2B15411   4.777   4.686  10.753  0.1639 -0.1134 -1.5417
  124CHL1   C2015412   4.859   4.827  11.707  0.2440 -0.2191  0.1211
  124CHL1   H2015413   4.793   4.740  11.724 -0.1075 -0.4937 -2.2960
  124CHL1   C2115414   4.770   4.956  11.676 -0.5089  0.3758  0.1212
  124CHL1  H21A15415   4.825   5.032  11.617  1.2235 -0.5005  0.5337
  124CHL1  H21B15416   4.730   4.998  11.770  1.0758 -1.1385  1.5305
  124CHL1  H21C15417   4.684   4.932  11.609 -0.5661  1.3503 -0.1610
  124CHL1   C2215418   4.937   4.855  11.838  0.5891  0.9131  0.0314
  124CHL1  H22A15419   4.863   4.846  11.921 -0.8010 -1.1732 -1.3524
  124CHL1  H22B15420   5.007   4.771  11.856 -2.5451 -1.4199  2.4865
  124CHL1   C2315421   5.008   4.990  11.844  0.1750 -0.4559 -0.1876
  124CHL1  H23A15422   5.065   5.012  11.751  0.6167 -1.1189 -0.0788
  124CHL1  H23B15423   4.923   5.063  11.849  0.4110 -0.0775 -1.3633
  124CHL1   C2415424   5.103   5.011  11.966 -0.3076  0.0322  0.4404
  124CHL1  H24A15425   5.179   4.931  11.951 -1.9724 -1.6507  0.6068
  124CHL1  H24B15426   5.137   5.117  11.966 -1.1859  0.3237 -0.6580
  124CHL1   C2515427   5.033   4.997  12.108 -0.5944 -0.1524  1.0155
  124CHL1   H2515428   4.992   4.894  12.122  2.3088 -1.4497  0.5637
  124CHL1   C2615429   5.147   5.021  12.200 -1.0486  0.5607 -0.7394
  124CHL1  H26A15430   5.185   5.125  12.195 -2.2381  0.9587 -1.9516
  124CHL1  H26B15431   5.112   5.017  12.305  0.0989  0.0184 -0.3649
  124CHL1  H26C15432   5.234   4.952  12.187 -0.4892  1.5113 -2.3810
  124CHL1   C2715433   4.916   5.095  12.135  0.0831  0.1447  0.1937
  124CHL1  H27A15434   4.939   5.197  12.097 -0.7565  0.9642  1.7743
  124CHL1  H27B15435   4.823   5.057  12.088 -0.8383  2.1535  0.3014
  124CHL1  H27C15436   4.892   5.108  12.243 -3.0936  2.1838 -0.6216
  125CHL1    C315437   5.386   5.115  10.274 -0.1672  1.5488 -0.7217
  125CHL1    H315438   5.410   5.216  10.314  0.1741  2.8377 -3.9535
  125CHL1    O315439   5.411   5.098  10.134  0.2983 -0.4841 -0.3703
  125CHL1   H3'15440   5.390   5.182  10.093 -1.5104 -0.8189 -0.2043
  125CHL1    C415441   5.480   5.014  10.345 -0.2030  0.9074 -0.3811
  125CHL1   H4A15442   5.459   4.910  10.312  2.2784 -0.0953  0.8746
  125CHL1   H4B15443   5.588   5.028  10.321  0.0964 -1.4436 -0.6645
  125CHL1    C515444   5.468   5.035  10.491 -0.3819  0.3291  0.1310
  125CHL1    C615445   5.575   5.076  10.571 -0.6422  0.0797 -0.0980
  125CHL1    H615446   5.674   5.097  10.527  0.0117  0.7466  1.6071
  125CHL1    C715447   5.564   5.096  10.718  0.3778  0.1077 -0.5695
  125CHL1   H7A15448   5.654   5.058  10.771  0.0024 -0.3313 -0.2401
  125CHL1   H7B15449   5.559   5.206  10.729 -0.7764  0.1778 -1.5264
  125CHL1    C815450   5.431   5.032  10.779 -0.7360 -0.6264 -0.7370
  125CHL1    H815451   5.442   4.922  10.778  1.7144 -0.4598  0.5679
  125CHL1   C1415452   5.410   5.088  10.920  0.2998 -0.1182 -0.3113
  125CHL1   H1415453   5.393   5.197  10.908 -2.1870 -0.3823  0.2813
  125CHL1   C1515454   5.520   5.074  11.030  0.0755 -0.2633 -0.1772
  125CHL1  H15A15455   5.556   4.970  11.022  0.1260 -0.7228  3.9151
  125CHL1  H15B15456   5.607   5.143  11.024 -0.0387 -0.1493 -0.6311
  125CHL1   C1615457   5.444   5.100  11.159 -0.1436  0.5102  0.2948
  125CHL1  H16A15458   5.469   5.027  11.239  1.7117 -0.2021 -0.8568
  125CHL1  H16B15459   5.489   5.193  11.200  3.1315 -1.1664  0.8158
  125CHL1   C1715460   5.295   5.114  11.130  0.0747  0.3452 -0.2216
  125CHL1   H1715461   5.278   5.223  11.115  0.5509  0.2165 -1.8688
  125CHL1   C1315462   5.280   5.047  10.992 -0.1053  0.4181 -0.9160
  125CHL1   C1815463   5.293   4.892  11.013  0.7570  0.3696 -0.6768
  125CHL1  H18A15464   5.303   4.846  10.912  0.0622 -0.1655 -0.5084
  125CHL1  H18B15465   5.373   4.870  11.086 -1.1763  0.0884  1.4655
  125CHL1  H18C15466   5.194   4.855  11.049  0.1404 -0.4729 -3.0247
  125CHL1   C1215467   5.165   5.096  10.904 -0.9909 -0.1532  0.8250
  125CHL1  H12A15468   5.065   5.061  10.936 -1.3794  0.4479  0.2876
  125CHL1  H12B15469   5.168   5.207  10.900 -1.1244 -0.1370  1.1162
  125CHL1   C1115470   5.183   5.034  10.767  0.3256 -0.1656 -0.1219
  125CHL1  H11A15471   5.176   4.923  10.769 -0.3109 -0.1285 -0.2077
  125CHL1  H11B15472   5.092   5.074  10.717  0.8939 -0.6000 -1.5517
  125CHL1    C915473   5.313   5.072  10.691 -0.4257 -0.2211 -0.4055
  125CHL1    H915474   5.324   5.182  10.702  0.3883 -0.3409  0.0808
  125CHL1   C1015475   5.323   5.017  10.545  0.1639 -0.2108  0.4629
  125CHL1   C1915476   5.275   4.869  10.538  0.0738  0.6317  0.1628
  125CHL1  H19A15477   5.165   4.873  10.551  0.0329  0.0577 -0.0124
  125CHL1  H19B15478   5.295   4.833  10.434  0.4851 -0.0092  0.4609
  125CHL1  H19C15479   5.337   4.815  10.612  1.5337 -0.6156 -1.8614
  125CHL1    C115480   5.225   5.097  10.463  0.4607 -0.5876 -0.5677
  125CHL1   H1A15481   5.125   5.076  10.507  1.9290 -2.1346  2.2671
  125CHL1   H1B15482   5.227   5.203  10.497  1.5962 -0.0919 -2.0327
  125CHL1    C215483   5.244   5.085  10.309  0.1530  0.2566  0.4921
  125CHL1   H2A15484   5.169   5.151  10.262 -0.3790  0.7614  1.9798
  125CHL1   H2B15485   5.221   4.987  10.263 -0.7303  0.5614  0.2796
  125CHL1   C2015486   5.193   5.072  11.230 -0.4094  0.6699 -0.0480
  125CHL1   H2015487   5.173   4.965  11.210  3.0417 -0.5259  1.9928
  125CHL1   C2115488   5.071   5.162  11.213 -0.4949  0.6301  0.0139
  125CHL1  H21A15489   4.991   5.131  11.284 -0.3410 -2.3101 -0.9636
  125CHL1  H21B15490   5.025   5.145  11.113  1.0472 -1.9330 -0.3395
  125CHL1  H21C15491   5.084   5.268  11.246  0.4631 -0.0089  1.8475
  125CHL1   C2215492   5.229   5.079  11.379 -0.2264 -0.3491 -0.3737
  125CHL1  H22A15493   5.140   5.061  11.443 -1.1915 -0.3922 -1.6680
  125CHL1  H22B15494   5.312   5.007  11.392  0.2431 -0.2214 -2.3463
  125CHL1   C2315495   5.282   5.220  11.423  0.5685 -0.1707  0.5366
  125CHL1  H23A15496   5.339   5.268  11.340 -2.5802  2.2423 -0.3955
  125CHL1  H23B15497   5.195   5.283  11.451  0.6256  0.5978 -0.8875
  125CHL1   C2415498   5.362   5.229  11.546  0.2276 -0.0905 -0.1018
  125CHL1  H24A15499   5.323   5.162  11.625  2.8863 -1.2188  0.3550
  125CHL1  H24B15500   5.460   5.183  11.522 -0.7363 -1.4433 -1.6950
  125CHL1   C2515501   5.383   5.373  11.594 -0.5148 -0.3616  0.4320
  125CHL1   H2515502   5.280   5.396  11.629 -0.1308 -0.2221  1.5131
  125CHL1   C2615503   5.475   5.383  11.712 -0.5355 -0.4604  0.9571
  125CHL1  H26A15504   5.580   5.373  11.680 -0.4933  1.7213  0.1990
  125CHL1  H26B15505   5.463   5.486  11.753  0.5593 -0.0026  0.1776
  125CHL1  H26C15506   5.459   5.298  11.782  0.9373 -2.7019 -1.2710
  125CHL1   C2715507   5.436   5.462  11.485 -0.3359 -0.3990  0.4355
  125CHL1  H27A15508   5.518   5.410  11.430  0.5165  0.6664  0.6706
  125CHL1  H27B15509   5.356   5.491  11.414 -1.6309 -0.8065  1.6789
  125CHL1  H27C15510   5.474   5.552  11.539 -0.5504 -0.8022  1.2835
  126CHL1    C315511   3.394   4.537  10.495 -0.1481 -1.1012  0.9007
  126CHL1    H315512   3.479   4.587  10.547  1.6193 -1.0379 -1.8011
  126CHL1    O315513   3.440   4.531  10.358  0.1795  0.0826 -0.6111
  126CHL1   H3'15514   3.372   4.490  10.305 -0.1527 -0.1342 -0.0196
  126CHL1    C415515   3.369   4.398  10.558  1.1328 -0.1990  0.0679
  126CHL1   H4A15516   3.303   4.346  10.485  1.8984  3.7910 -3.9017
  126CHL1   H4B15517   3.467   4.345  10.553  1.8482  1.1545 -2.5166
  126CHL1    C515518   3.296   4.403  10.687 -0.2732  0.1785 -0.6350
  126CHL1    C615519   3.337   4.333  10.794 -0.1365 -0.1717  0.7513
  126CHL1    H615520   3.431   4.277  10.782  0.2965  0.4641  1.0905
  126CHL1    C715521   3.273   4.335  10.925 -0.4847  0.1240 -0.3723
  126CHL1   H7A15522   3.268   4.236  10.975 -0.7877  0.9421  1.2918
  126CHL1   H7B15523   3.341   4.399  10.985 -0.0644 -1.0804  0.4732
  126CHL1    C815524   3.132   4.393  10.928 -0.5213 -0.1481 -0.2446
  126CHL1    H815525   3.075   4.311  10.879  0.4155 -1.3729  0.6344
  126CHL1   C1415526   3.088   4.422  11.067 -0.3226  0.4544  0.3243
  126CHL1   H1415527   3.148   4.510  11.101 -0.7500  1.3212 -1.0846
  126CHL1   C1515528   3.115   4.318  11.177 -0.8132  0.2036 -0.2803
  126CHL1  H15A15529   3.096   4.218  11.133  0.4663 -0.6025  0.9232
  126CHL1  H15B15530   3.220   4.313  11.214 -1.2609  0.6569  1.1404
  126CHL1   C1615531   3.021   4.365  11.287 -0.7887  0.4130 -0.3920
  126CHL1  H16A15532   2.958   4.277  11.313 -0.1623 -0.6180 -2.1764
  126CHL1  H16B15533   3.072   4.407  11.377 -0.6787  1.6332 -1.0156
  126CHL1   C1715534   2.931   4.481  11.232  0.1385  0.7200 -0.4233
  126CHL1   H1715535   2.973   4.579  11.262  1.7020  0.2229 -0.8867
  126CHL1   C1315536   2.946   4.466  11.080  0.3284 -1.2987 -0.1603
  126CHL1   C1815537   2.844   4.366  11.020  1.0889 -0.0972 -0.3562
  126CHL1  H18A15538   2.742   4.410  11.021  0.2274 -1.8573  2.7440
  126CHL1  H18B15539   2.873   4.338  10.917  2.4535  0.6140 -0.1897
  126CHL1  H18C15540   2.837   4.276  11.084 -0.5461 -0.5014 -1.0694
  126CHL1   C1215541   2.936   4.596  10.992 -0.4525 -0.0440  0.3379
  126CHL1  H12A15542   2.830   4.628  11.000 -0.2558  0.7822 -0.2826
  126CHL1  H12B15543   2.987   4.679  11.044  0.3002 -1.6172  2.2729
  126CHL1   C1115544   2.985   4.579  10.849  0.5316 -0.6823 -1.0055
  126CHL1  H11A15545   2.905   4.528  10.791 -1.6157  0.1930  1.0015
  126CHL1  H11B15546   2.997   4.682  10.809  0.1629 -0.6625 -1.0710
  126CHL1    C915547   3.126   4.518  10.839  0.0799  0.7971 -0.1400
  126CHL1    H915548   3.197   4.588  10.889  0.0831  0.4844  0.2989
  126CHL1   C1015549   3.178   4.502  10.696 -0.1616 -0.8867  0.4367
  126CHL1   C1915550   3.069   4.440  10.603 -0.3325  0.6542 -0.9460
  126CHL1  H19A15551   3.029   4.351  10.656  1.4054  0.5191  0.2206
  126CHL1  H19B15552   2.984   4.511  10.597 -1.0855 -0.0357  0.8887
  126CHL1  H19C15553   3.108   4.415  10.502 -1.3085  2.7946 -1.9180
  126CHL1    C115554   3.216   4.644  10.641 -0.4194  1.0730  0.0359
  126CHL1   H1A15555   3.125   4.708  10.644 -0.1698  1.4581 -0.5316
  126CHL1   H1B15556   3.292   4.691  10.707  0.3256  1.2923 -0.9620
  126CHL1    C215557   3.280   4.634  10.502  1.3812 -0.1952  0.1596
  126CHL1   H2A15558   3.317   4.736  10.478 -1.2125  0.6025 -0.8322
  126CHL1   H2B15559   3.207   4.608  10.423  0.3522 -0.8034  1.2701
  126CHL1   C2015560   2.789   4.486  11.293  0.2621  0.1692  0.6615
  126CHL1   H2015561   2.726   4.397  11.269 -2.3569  1.4724  2.2612
  126CHL1   C2115562   2.704   4.609  11.242  0.0445  0.3575  0.3315
  126CHL1  H21A15563   2.662   4.585  11.142  0.5938  0.8759 -0.0275
  126CHL1  H21B15564   2.770   4.698  11.248 -0.9127  1.0652  0.4993
  126CHL1  H21C15565   2.618   4.611  11.313  0.5733  0.2043  0.9872
  126CHL1   C2215566   2.789   4.478  11.445 -0.7717  0.3926  0.0555
  126CHL1  H22A15567   2.689   4.467  11.491 -0.5653 -2.0226  0.0750
  126CHL1  H22B15568   2.849   4.389  11.475 -0.6242  0.4147 -0.1693
  126CHL1   C2315569   2.856   4.603  11.514  0.0684  0.0512  0.2161
  126CHL1  H23A15570   2.965   4.594  11.495  0.5740 -1.7488  3.2982
  126CHL1  H23B15571   2.800   4.690  11.473  1.0199 -0.5422 -2.6159
  126CHL1   C2415572   2.827   4.590  11.664  0.2222  0.0752  0.1303
  126CHL1  H24A15573   2.716   4.588  11.670  0.2324  1.8257  1.4974
  126CHL1  H24B15574   2.862   4.489  11.694 -0.5673 -0.5226 -0.8736
  126CHL1   C2515575   2.890   4.704  11.739  0.7200 -0.4978 -0.1985
  126CHL1   H2515576   2.997   4.710  11.711  0.9883  0.8493  1.0149
  126CHL1   C2615577   2.815   4.836  11.720 -0.5361  0.2989 -0.2803
  126CHL1  H26A15578   2.872   4.919  11.768 -3.0191  1.6036  0.5730
  126CHL1  H26B15579   2.808   4.854  11.610  0.4561  1.9163 -0.1176
  126CHL1  H26C15580   2.711   4.838  11.757 -0.6974  3.6025 -0.6266
  126CHL1   C2715581   2.886   4.677  11.888 -0.3007 -0.3666 -0.0809
  126CHL1  H27A15582   2.781   4.675  11.923 -0.3705 -0.7175 -0.3079
  126CHL1  H27B15583   2.944   4.583  11.897 -0.5428 -0.4372  0.8059
  126CHL1  H27C15584   2.928   4.759  11.951 -1.3154 -0.2064  0.4094
  127CHL1    C315585   3.826   5.907   9.770  0.7597 -0.3749  0.6504
  127CHL1    H315586   3.934   5.915   9.746  0.9026 -0.5518  1.2350
  127CHL1    O315587   3.765   5.892   9.637  0.0092  0.3948 -0.5752
  127CHL1   H3'15588   3.673   5.877   9.662  0.4367  1.6128  2.0493
  127CHL1    C415589   3.799   5.777   9.851  0.2085 -0.3583  0.0639
  127CHL1   H4A15590   3.690   5.764   9.861  0.2036  0.1427  0.7667
  127CHL1   H4B15591   3.835   5.693   9.788  0.7820  0.7444 -1.1246
  127CHL1    C515592   3.853   5.796   9.994  0.3823 -0.2951  0.5712
  127CHL1    C615593   3.951   5.715  10.044  0.0709 -0.5699  0.3086
  127CHL1    H615594   3.992   5.637   9.978  0.7489  1.0023 -1.1929
  127CHL1    C715595   4.008   5.737  10.180  0.1241  0.1930 -0.3508
  127CHL1   H7A15596   4.029   5.637  10.224  1.1084  0.8378  0.7222
  127CHL1   H7B15597   4.106   5.791  10.180  0.1261  0.1976 -0.0042
  127CHL1    C815598   3.907   5.817  10.275 -0.0320  0.0075 -0.1914
  127CHL1    H815599   3.814   5.758  10.293 -0.3308 -0.2217 -2.2934
  127CHL1   C1415600   3.979   5.851  10.409 -0.6961 -0.0928 -0.2907
  127CHL1   H1415601   4.071   5.906  10.379  1.3413 -2.2825  1.5298
  127CHL1   C1515602   4.037   5.736  10.486  0.4162  1.2733  0.4943
  127CHL1  H15A15603   3.957   5.659  10.480 -0.9616  2.7617 -3.0375
  127CHL1  H15B15604   4.130   5.705  10.432 -0.4691  0.5622 -0.6789
  127CHL1   C1615605   4.069   5.798  10.624 -0.2843 -0.7596 -0.8220
  127CHL1  H16A15606   4.008   5.732  10.690 -2.7124 -0.2952 -2.4596
  127CHL1  H16B15607   4.174   5.805  10.659 -0.0459  1.0928 -1.7930
  127CHL1   C1715608   3.992   5.940  10.627  0.2691 -0.4830 -0.2576
  127CHL1   H1715609   4.068   6.020  10.617  0.1410 -0.3116  0.1402
  127CHL1   C1315610   3.896   5.934  10.505 -0.4742 -0.1233  0.4834
  127CHL1   C1815611   3.761   5.856  10.537 -0.8355  0.0065  0.1247
  127CHL1  H18A15612   3.691   5.905  10.608 -1.6057 -1.3673  0.3494
  127CHL1  H18B15613   3.707   5.833  10.443 -0.4858  0.5915 -0.2199
  127CHL1  H18C15614   3.778   5.757  10.585 -0.8171  1.3141  3.0541
  127CHL1   C1215615   3.878   6.071  10.430 -0.6080 -0.1416  0.4336
  127CHL1  H12A15616   3.814   6.140  10.489  0.9209  3.2536 -1.5839
  127CHL1  H12B15617   3.974   6.121  10.404 -0.6931 -0.1664  0.0656
  127CHL1   C1115618   3.800   6.045  10.299 -0.2196  0.5182 -0.1167
  127CHL1  H11A15619   3.698   6.010  10.324 -0.6438 -0.5042 -2.9046
  127CHL1  H11B15620   3.802   6.143  10.247 -0.5405  0.6752  0.1611
  127CHL1    C915621   3.869   5.950  10.204 -0.0236  0.1512  0.0023
  127CHL1    H915622   3.964   6.001  10.178  0.2304 -0.9984 -1.4388
  127CHL1   C1015623   3.798   5.923  10.069  0.5532  0.1139  0.5459
  127CHL1   C1915624   3.650   5.894  10.100  0.0333 -0.6282  0.1951
  127CHL1  H19A15625   3.591   5.856  10.014  0.8921 -0.9792 -0.2537
  127CHL1  H19B15626   3.641   5.806  10.168 -0.1612  0.1458  1.1913
  127CHL1  H19C15627   3.597   5.983  10.139 -1.1012 -0.4550 -1.6113
  127CHL1    C115628   3.826   6.041   9.977  0.3426 -0.7016  0.2289
  127CHL1   H1A15629   3.778   6.123  10.035  0.5519 -1.3698  1.3713
  127CHL1   H1B15630   3.935   6.058   9.978  0.0879  1.2933 -0.0754
  127CHL1    C215631   3.770   6.039   9.835  0.4649  0.3679 -0.4760
  127CHL1   H2A15632   3.796   6.122   9.766  1.5423  0.7467  0.3573
  127CHL1   H2B15633   3.661   6.023   9.847  0.4683 -0.3735 -1.3142
  127CHL1   C2015634   3.928   5.970  10.763  0.0150  0.0064  0.2855
  127CHL1   H2015635   3.861   5.887  10.795 -0.9027  1.2162  1.6236
  127CHL1   C2115636   3.857   6.108  10.762 -0.2415  0.1191  0.1815
  127CHL1  H21A15637   3.768   6.098  10.695 -0.9830  1.2504  0.9564
  127CHL1  H21B15638   3.919   6.189  10.719 -0.1177 -1.9134 -3.9892
  127CHL1  H21C15639   3.818   6.129  10.863  3.1593  0.7350  1.4907
  127CHL1   C2215640   4.033   5.957  10.880  0.1647 -0.0304 -1.0709
  127CHL1  H22A15641   4.099   5.868  10.875 -0.6171 -0.5515 -3.0405
  127CHL1  H22B15642   4.102   6.044  10.872  0.3548 -0.1048 -0.3517
  127CHL1   C2315643   3.976   5.956  11.021 -0.0238 -0.1179 -1.0679
  127CHL1  H23A15644   3.931   6.051  11.056 -0.3142 -0.6901  0.1705
  127CHL1  H23B15645   3.893   5.883  11.025  0.8457 -1.0931 -0.2634
  127CHL1   C2415646   4.077   5.917  11.130 -0.0155  0.2452  0.2873
  127CHL1  H24A15647   4.116   5.815  11.109  2.5737  0.8488  1.7956
  127CHL1  H24B15648   4.162   5.988  11.130  0.0341  0.1888 -0.2140
  127CHL1   C2515649   4.032   5.928  11.278 -0.6030  0.6872 -0.8414
  127CHL1   H2515650   3.980   6.025  11.298 -1.4791  0.2980 -1.1991
  127CHL1   C2615651   3.926   5.827  11.317  0.1599 -0.2546 -0.1412
  127CHL1  H26A15652   3.867   5.879  11.395 -1.1538  1.1937 -1.9885
  127CHL1  H26B15653   3.859   5.813  11.229  0.5829 -2.6005 -0.1635
  127CHL1  H26C15654   3.964   5.728  11.350  0.9487  0.0746 -0.0523
  127CHL1   C2715655   4.152   5.906  11.372 -0.1065 -0.2548 -0.1636
  127CHL1  H27A15656   4.133   5.885  11.479  2.3025 -1.9276  0.0121
  127CHL1  H27B15657   4.214   5.820  11.338  1.5484  1.3864 -1.5322
  127CHL1  H27C15658   4.217   5.996  11.371 -0.7185  0.1931 -0.5840
  128CHL1    C315659   4.867   1.048   9.818  0.2499 -1.0016 -0.4113
  128CHL1    H315660   4.788   0.970   9.825 -0.3083 -0.3591  0.8157
  128CHL1    O315661   4.888   1.065   9.685  0.2376 -0.2443  0.4131
  128CHL1   H3'15662   4.921   0.981   9.651 -1.3419 -1.1646  1.0118
  128CHL1    C415663   4.810   1.184   9.878 -0.4271 -0.8388 -0.3601
  128CHL1   H4A15664   4.879   1.267   9.851 -0.2531 -0.8921 -0.0895
  128CHL1   H4B15665   4.717   1.217   9.827  0.6200  0.1316 -1.7019
  128CHL1    C515666   4.801   1.179  10.030  0.4077  0.0330  0.2044
  128CHL1    C615667   4.688   1.214  10.096 -0.1747 -0.3132  0.6296
  128CHL1    H615668   4.598   1.243  10.039  1.7404  2.4021 -1.2500
  128CHL1    C715669   4.683   1.213  10.243  0.5444  0.4097 -0.5161
  128CHL1   H7A15670   4.619   1.292  10.285  0.9822 -0.4801  1.9896
  128CHL1   H7B15671   4.643   1.121  10.291  0.9107  1.1064  1.2006
  128CHL1    C815672   4.825   1.224  10.310  0.4970 -0.1945  0.2564
  128CHL1    H815673   4.880   1.319  10.295  2.1553 -1.2781 -0.9352
  128CHL1   C1415674   4.810   1.198  10.458  0.1319 -0.2217  0.6913
  128CHL1   H1415675   4.769   1.095  10.457  0.0899 -0.2885 -2.6871
  128CHL1   C1515676   4.699   1.282  10.533 -0.4720  0.4914  0.3216
  128CHL1  H15A15677   4.706   1.390  10.508  2.0438  0.0951 -1.0646
  128CHL1  H15B15678   4.598   1.239  10.517 -0.2661 -0.7309  1.9989
  128CHL1   C1615679   4.748   1.260  10.681  0.3033 -0.5384 -0.0623
  128CHL1  H16A15680   4.762   1.365  10.713 -1.0672  0.6927 -3.1235
  128CHL1  H16B15681   4.671   1.213  10.746  0.6745 -1.1813 -0.0833
  128CHL1   C1715682   4.881   1.181  10.682  0.2583  0.2722 -0.1098
  128CHL1   H1715683   4.854   1.074  10.683  0.1107  0.3075 -0.2330
  128CHL1   C1315684   4.940   1.195  10.536 -0.3610 -0.0436 -1.1855
  128CHL1   C1815685   5.004   1.331  10.524 -0.4503 -0.8568  0.6474
  128CHL1  H18A15686   4.931   1.413  10.539  0.2431 -0.2655  0.8991
  128CHL1  H18B15687   5.088   1.347  10.595 -1.2355 -0.9122  1.5970
  128CHL1  H18C15688   5.045   1.356  10.423  0.4772  1.5244  1.5323
  128CHL1   C1215689   5.020   1.075  10.485  0.0423 -0.0372  0.2641
  128CHL1  H12A15690   5.108   1.049  10.547 -0.7364 -1.0007  1.0036
  128CHL1  H12B15691   4.949   0.990  10.484  0.9222 -0.7840  0.1761
  128CHL1   C1115692   5.044   1.093  10.335  0.4049 -0.7722  0.2087
  128CHL1  H11A15693   5.122   1.171  10.325 -0.1594 -0.1801  0.3571
  128CHL1  H11B15694   5.094   1.000  10.300  1.1137 -0.0251 -0.8110
  128CHL1    C915695   4.918   1.114  10.252 -0.4098  0.8445 -0.5145
  128CHL1    H915696   4.858   1.021  10.263 -0.3498  0.8816  0.1569
  128CHL1   C1015697   4.935   1.132  10.104  0.2366 -0.2858  0.7210
  128CHL1   C1915698   5.045   1.241  10.078 -0.1845  0.2509  0.1270
  128CHL1  H19A15699   5.029   1.323  10.151  5.9915  2.1038 -0.0120
  128CHL1  H19B15700   5.145   1.193  10.086 -0.5385 -0.7727 -1.2298
  128CHL1  H19C15701   5.049   1.278   9.974  0.2049  1.0589  0.4264
  128CHL1    C115702   4.971   0.994  10.040 -0.0255  0.1704 -0.1786
  128CHL1   H1A15703   5.069   0.969  10.087  0.1779 -1.8323 -1.5142
  128CHL1   H1B15704   4.901   0.915  10.075  1.2839 -0.7712  0.4254
  128CHL1    C215705   4.993   1.000   9.887  0.4713 -0.1425 -0.0975
  128CHL1   H2A15706   5.023   0.906   9.837  0.5236  0.8288 -1.9682
  128CHL1   H2B15707   5.060   1.088   9.872 -0.9152  1.1215  0.8031
  128CHL1   C2015708   4.960   1.216  10.805 -0.8509  0.3997 -0.4326
  128CHL1   H2015709   4.992   1.322  10.813 -1.2027  0.5036 -0.3985
  128CHL1   C2115710   5.093   1.128  10.799 -0.3732  0.5298  0.0438
  128CHL1  H21A15711   5.156   1.159  10.713  1.4006 -1.8130  0.3789
  128CHL1  H21B15712   5.070   1.020  10.808 -0.2054  0.4816 -0.0963
  128CHL1  H21C15713   5.147   1.159  10.891 -0.1453  2.5839 -0.7258
  128CHL1   C2215714   4.877   1.184  10.934  1.0293 -0.8578  0.5376
  128CHL1  H22A15715   4.801   1.264  10.951  0.2087 -0.9496 -2.2402
  128CHL1  H22B15716   4.831   1.085  10.917 -0.6552  0.3231 -2.6673
  128CHL1   C2315717   4.946   1.188  11.066 -0.3365  0.1095  0.3387
  128CHL1  H23A15718   5.032   1.118  11.067 -0.1027  0.3504  2.6114
  128CHL1  H23B15719   5.001   1.283  11.082  1.2806 -0.4410 -1.5850
  128CHL1   C2415720   4.857   1.149  11.183 -0.1214 -0.0802  0.1304
  128CHL1  H24A15721   4.773   1.217  11.208 -0.5053 -0.1347 -0.9602
  128CHL1  H24B15722   4.812   1.050  11.165  1.9801 -1.1151  0.2916
  128CHL1   C2515723   4.926   1.116  11.319  0.5707 -0.2304  0.5429
  128CHL1   H2515724   5.013   1.052  11.296  1.3021  1.2871 -1.1722
  128CHL1   C2615725   4.978   1.240  11.386 -0.8930  0.4223 -0.7126
  128CHL1  H26A15726   5.073   1.274  11.340  0.8542 -2.1220  0.7948
  128CHL1  H26B15727   4.907   1.324  11.374 -1.6551 -0.1852 -0.5317
  128CHL1  H26C15728   5.006   1.216  11.490  0.6363  1.4792 -0.8514
  128CHL1   C2715729   4.826   1.046  11.416 -0.0378  0.5772 -0.7368
  128CHL1  H27A15730   4.786   0.950  11.376  1.4387 -0.2171 -0.3709
  128CHL1  H27B15731   4.880   1.015  11.508 -2.2206  0.9414  0.7430
  128CHL1  H27C15732   4.744   1.116  11.440 -1.4517 -1.0842 -0.4684
  129CHL1    C315733   5.494   5.614  10.264  0.0660  0.1602  0.2907
  129CHL1    H315734   5.597   5.574  10.273  0.5689  0.6683 -2.4714
  129CHL1    O315735   5.470   5.589  10.130  0.4189  0.4437  0.2657
  129CHL1   H3'15736   5.528   5.652  10.087 -0.0875  0.7425  0.0102
  129CHL1    C415737   5.393   5.539  10.358 -0.3544  0.1282 -0.1610
  129CHL1   H4A15738   5.298   5.592  10.335  0.9290  2.2093 -0.9714
  129CHL1   H4B15739   5.384   5.434  10.321  0.8161 -0.1741  0.3421
  129CHL1    C515740   5.428   5.558  10.501  0.0756 -0.0139 -0.1546
  129CHL1    C615741   5.446   5.445  10.574  0.1372  0.2791 -0.5686
  129CHL1    H615742   5.420   5.348  10.529 -1.2033 -0.2248  1.1675
  129CHL1    C715743   5.455   5.454  10.725  0.2450 -0.1993 -0.1147
  129CHL1   H7A15744   5.380   5.394  10.780 -0.0579  1.9122  1.9043
  129CHL1   H7B15745   5.554   5.410  10.751 -0.3043 -1.2773  0.2160
  129CHL1    C815746   5.456   5.601  10.786 -0.2422 -0.0474  0.9835
  129CHL1    H815747   5.348   5.626  10.786 -0.3176 -0.2867 -0.4662
  129CHL1   C1415748   5.520   5.610  10.921  0.4794 -0.4219  0.3591
  129CHL1   H1415749   5.620   5.571  10.896  0.4189  0.4790 -1.4434
  129CHL1   C1515750   5.468   5.516  11.036  0.3078 -0.2473 -0.1919
  129CHL1  H15A15751   5.363   5.505  11.003  0.4519  0.2816 -0.8561
  129CHL1  H15B15752   5.518   5.417  11.038 -0.7265 -0.8029  3.2104
  129CHL1   C1615753   5.507   5.594  11.158  0.4672 -0.9180 -0.3228
  129CHL1  H16A15754   5.417   5.604  11.224  0.8357 -1.5522  0.2901
  129CHL1  H16B15755   5.587   5.545  11.217  2.6252  1.2106 -1.3379
  129CHL1   C1715756   5.572   5.731  11.122  0.8799 -0.0315  0.2749
  129CHL1   H1715757   5.678   5.703  11.106  0.9468 -0.1243  0.8339
  129CHL1   C1315758   5.517   5.752  10.977 -0.3070  0.1611  0.0899
  129CHL1   C1815759   5.381   5.810  10.998  0.2230 -0.6183 -0.3053
  129CHL1  H18A15760   5.391   5.915  11.033  2.5819 -1.5590  2.1370
  129CHL1  H18B15761   5.335   5.812  10.897  0.7573  1.1347 -0.5502
  129CHL1  H18C15762   5.316   5.757  11.070  1.9290 -3.2761 -0.5902
  129CHL1   C1215763   5.609   5.834  10.885  0.0962  1.0254 -0.0913
  129CHL1  H12A15764   5.625   5.940  10.916  0.5847  1.6307 -2.2359
  129CHL1  H12B15765   5.715   5.801  10.879  0.6622  1.4998  3.9526
  129CHL1   C1115766   5.541   5.836  10.742  0.0767 -0.3688  0.3464
  129CHL1  H11A15767   5.443   5.888  10.740 -0.6562 -1.7122  0.2137
  129CHL1  H11B15768   5.610   5.889  10.673 -0.3406  1.8786  1.5603
  129CHL1    C915769   5.514   5.700  10.687 -0.6288  0.0864 -0.2477
  129CHL1    H915770   5.617   5.663  10.670 -0.1091  0.6007  1.5687
  129CHL1   C1015771   5.449   5.701  10.551 -0.1797  0.3654  0.0914
  129CHL1   C1915772   5.301   5.760  10.554  0.0923 -0.0499 -0.0203
  129CHL1  H19A15773   5.298   5.859  10.605 -2.0601 -0.2604  0.3434
  129CHL1  H19B15774   5.262   5.772  10.451 -0.4743  0.1872  0.2174
  129CHL1  H19C15775   5.226   5.698  10.607 -0.0046 -0.3820 -0.5384
  129CHL1    C115776   5.544   5.766  10.449  0.5080 -0.3369 -0.2446
  129CHL1   H1A15777   5.548   5.876  10.469  1.1512 -0.7236  1.9875
  129CHL1   H1B15778   5.647   5.726  10.460 -0.2439 -2.8666 -1.7867
  129CHL1    C215779   5.495   5.757  10.302  0.1781  0.2607  0.4082
  129CHL1   H2A15780   5.572   5.820  10.252  0.5967 -0.8125 -0.3365
  129CHL1   H2B15781   5.394   5.801  10.285 -1.7456 -4.0651 -0.7771
  129CHL1   C2015782   5.558   5.830  11.237  0.5990 -0.4307  0.1951
  129CHL1   H2015783   5.453   5.853  11.267  1.4825  2.0179  1.7553
  129CHL1   C2115784   5.620   5.968  11.196  0.1715  0.7495 -0.2582
  129CHL1  H21A15785   5.728   5.948  11.179 -0.1329 -0.5945 -0.7682
  129CHL1  H21B15786   5.612   6.031  11.287 -2.6465 -0.3520  0.3320
  129CHL1  H21C15787   5.564   6.020  11.116 -2.4223  0.1220  1.0689
  129CHL1   C2215788   5.630   5.779  11.363  1.0347 -0.7508  1.0332
  129CHL1  H22A15789   5.585   5.682  11.394 -0.3158 -0.0055  1.4990
  129CHL1  H22B15790   5.735   5.754  11.335  1.1481 -0.4446  1.1873
  129CHL1   C2315791   5.614   5.860  11.492  0.4777  0.4234 -0.8247
  129CHL1  H23A15792   5.659   5.960  11.473  0.8910  0.4676  0.3643
  129CHL1  H23B15793   5.508   5.876  11.521  0.8647 -1.9094  2.3954
  129CHL1   C2415794   5.681   5.799  11.620 -0.1846  0.4672 -0.1710
  129CHL1  H24A15795   5.638   5.698  11.637 -1.3464  1.0306  0.3288
  129CHL1  H24B15796   5.788   5.786  11.591 -0.0695  0.3451  0.3023
  129CHL1   C2515797   5.647   5.889  11.748 -0.6113  0.0606  1.0422
  129CHL1   H2515798   5.536   5.904  11.749 -0.7748 -0.9306  2.5652
  129CHL1   C2615799   5.701   5.815  11.871 -0.4148  0.0634 -0.0801
  129CHL1  H26A15800   5.675   5.883  11.955 -1.0782 -1.5795  1.1011
  129CHL1  H26B15801   5.657   5.713  11.874 -0.6658 -0.2237 -4.8335
  129CHL1  H26C15802   5.812   5.822  11.872 -0.4625  0.9304 -0.2151
  129CHL1   C2715803   5.703   6.031  11.728 -0.2802  0.5606  0.1995
  129CHL1  H27A15804   5.675   6.072  11.629 -0.6641  2.8292  1.1601
  129CHL1  H27B15805   5.665   6.106  11.801 -0.0174  0.6615  0.2324
  129CHL1  H27C15806   5.814   6.029  11.728 -0.2409  1.7316  0.0529
  130CHL1    C315807   3.669   6.524   9.890 -0.0681  0.2813  0.0565
  130CHL1    H315808   3.733   6.614   9.901  1.5551 -0.9237  1.0743
  130CHL1    O315809   3.659   6.484   9.750  0.1417 -0.3221 -0.3186
  130CHL1   H3'15810   3.619   6.398   9.738 -0.9874 -0.0372  1.1238
  130CHL1    C415811   3.741   6.403   9.961 -0.2709  0.3443 -0.1674
  130CHL1   H4A15812   3.683   6.311   9.939  2.7060 -1.0830 -2.9504
  130CHL1   H4B15813   3.836   6.382   9.907  0.7344 -0.8201  1.9206
  130CHL1    C515814   3.759   6.440  10.110  0.3715  0.1497  0.4142
  130CHL1    C615815   3.881   6.447  10.165  0.3058  0.5929 -0.6071
  130CHL1    H615816   3.967   6.427  10.100 -0.0255  1.0068 -1.1805
  130CHL1    C715817   3.904   6.483  10.305 -0.0283 -0.5748 -0.2993
  130CHL1   H7A15818   3.979   6.417  10.354 -0.2114  0.1783  1.0419
  130CHL1   H7B15819   3.942   6.587  10.312  0.1045 -0.3169 -3.4491
  130CHL1    C815820   3.776   6.467  10.394 -0.1640 -0.3397 -0.5603
  130CHL1    H815821   3.758   6.358  10.404  1.3184 -0.5553  0.0171
  130CHL1   C1415822   3.797   6.527  10.537  0.3387  0.5953  0.2876
  130CHL1   H1415823   3.824   6.635  10.527  2.7957  0.2653  2.3845
  130CHL1   C1515824   3.916   6.467  10.618  0.2533 -0.5828 -0.0092
  130CHL1  H15A15825   3.919   6.357  10.600  0.9824 -0.4746 -0.5871
  130CHL1  H15B15826   4.017   6.505  10.590 -0.3917  1.5324  0.4119
  130CHL1   C1615827   3.870   6.487  10.766 -0.0405  0.1169 -0.2013
  130CHL1  H16A15828   3.855   6.396  10.828  0.0843 -0.4797 -1.0314
  130CHL1  H16B15829   3.948   6.548  10.817  0.6601  0.3225 -1.4813
  130CHL1   C1715830   3.736   6.567  10.753 -0.4042  0.2450 -0.5359
  130CHL1   H1715831   3.751   6.674  10.732 -3.1949  0.1766 -3.7886
  130CHL1   C1315832   3.671   6.524  10.621  1.0185  0.0782 -0.2807
  130CHL1   C1815833   3.618   6.379  10.638  0.4398 -0.0342 -0.0728
  130CHL1  H18A15834   3.562   6.342  10.550  1.0744 -2.0049  0.2911
  130CHL1  H18B15835   3.700   6.305  10.651  1.5934  1.2988  0.5063
  130CHL1  H18C15836   3.541   6.376  10.718 -1.3777  1.8449 -1.6207
  130CHL1   C1215837   3.557   6.610  10.559 -0.4197  0.3413  0.0102
  130CHL1  H12A15838   3.464   6.607  10.619  0.2813  1.0002  1.1697
  130CHL1  H12B15839   3.600   6.711  10.546 -0.7176  0.6601  1.3209
  130CHL1   C1115840   3.530   6.561  10.411 -0.2990 -0.5803 -0.7748
  130CHL1  H11A15841   3.467   6.470  10.406  0.3357 -1.0709 -0.0715
  130CHL1  H11B15842   3.470   6.644  10.368  0.5418 -1.1271 -3.1884
  130CHL1    C915843   3.656   6.541  10.322 -0.0373  0.5067  0.3436
  130CHL1    H915844   3.700   6.642  10.303 -0.9501  1.2127  1.7837
  130CHL1   C1015845   3.625   6.469  10.184 -0.2018 -0.2493  0.6164
  130CHL1   C1915846   3.546   6.339  10.194 -0.6400  0.5081 -0.0326
  130CHL1  H19A15847   3.593   6.259  10.255 -1.4800 -1.6169 -1.9874
  130CHL1  H19B15848   3.451   6.361  10.246  0.0308  1.6811  0.7556
  130CHL1  H19C15849   3.516   6.297  10.095  0.8659 -0.8049  0.0298
  130CHL1    C115850   3.538   6.567  10.099  0.4379 -0.7343 -0.9036
  130CHL1   H1A15851   3.439   6.571  10.149  0.0666  3.0585 -1.6682
  130CHL1   H1B15852   3.591   6.664  10.112 -2.4989  0.7178  1.2251
  130CHL1    C215853   3.528   6.534   9.953 -0.7635 -0.4540  0.9145
  130CHL1   H2A15854   3.465   6.608   9.899 -2.5878 -1.5551  1.4391
  130CHL1   H2B15855   3.468   6.441   9.941 -0.7209 -0.2718 -0.8567
  130CHL1   C2015856   3.662   6.554  10.889 -0.9438 -0.3022  0.1146
  130CHL1   H2015857   3.652   6.448  10.919  1.2233 -0.1110  1.7373
  130CHL1   C2115858   3.518   6.609  10.880 -0.1375  0.1342  0.1096
  130CHL1  H21A15859   3.481   6.615  10.985 -1.1926  1.0850 -0.2959
  130CHL1  H21B15860   3.460   6.538  10.817  2.2986 -3.9006  2.0460
  130CHL1  H21C15861   3.520   6.712  10.837 -0.2726  0.2876  0.4653
  130CHL1   C2215862   3.741   6.638  10.993  0.3988  0.4596 -0.1843
  130CHL1  H22A15863   3.846   6.656  10.962 -0.0371  1.4332 -1.1414
  130CHL1  H22B15864   3.705   6.743  10.997  0.2318  0.4620 -1.4277
  130CHL1   C2315865   3.740   6.565  11.129  0.4469 -0.4111 -0.1081
  130CHL1  H23A15866   3.655   6.598  11.193  1.3934 -1.2885  1.6814
  130CHL1  H23B15867   3.709   6.459  11.111 -1.8100  0.0828  0.4885
  130CHL1   C2415868   3.868   6.572  11.214  0.0106  0.0672 -0.3041
  130CHL1  H24A15869   3.949   6.508  11.173  1.5642  2.0781 -0.5363
  130CHL1  H24B15870   3.899   6.679  11.211  1.7945 -0.3258  1.4883
  130CHL1   C2515871   3.845   6.538  11.365 -0.0929  0.3630 -0.5357
  130CHL1   H2515872   3.753   6.585  11.403 -1.0139 -2.3508  0.8450
  130CHL1   C2615873   3.831   6.384  11.376 -0.3870  0.2912  0.1264
  130CHL1  H26A15874   3.739   6.365  11.317 -0.1409 -0.2712 -0.0814
  130CHL1  H26B15875   3.913   6.328  11.328  1.2288  1.2011  1.7111
  130CHL1  H26C15876   3.825   6.348  11.481  2.4042 -1.5488 -0.2561
  130CHL1   C2715877   3.965   6.581  11.450 -0.4918 -0.4361  0.0716
  130CHL1  H27A15878   3.943   6.562  11.558  1.3025 -0.8029  0.4176
  130CHL1  H27B15879   4.059   6.528  11.422 -1.4596 -1.4874 -1.2962
  130CHL1  H27C15880   3.983   6.691  11.447  0.2860 -0.5169  1.0088
  131CHL1    C315881   1.862   5.041   9.971  0.0765 -0.5734  0.1421
  131CHL1    H315882   1.814   5.132   9.927 -0.7498  0.3965  2.8083
  131CHL1    O315883   1.870   4.946   9.867 -0.5822  0.0222 -0.5264
  131CHL1   H3'15884   1.778   4.936   9.840 -1.4172 -0.5271  2.1852
  131CHL1    C415885   2.003   5.078  10.007  0.1996 -0.0351 -0.2371
  131CHL1   H4A15886   2.066   4.987   9.999  0.9380  0.5422 -1.3518
  131CHL1   H4B15887   2.033   5.135   9.917 -1.0531 -0.2710 -0.8203
  131CHL1    C515888   2.018   5.142  10.140  0.4121 -0.0013 -0.4810
  131CHL1    C615889   2.071   5.261  10.162  0.0952  0.0028  0.3096
  131CHL1    H615890   2.114   5.319  10.079  1.2984  0.5351  1.2812
  131CHL1    C715891   2.087   5.320  10.298  0.4168 -1.1931  0.3016
  131CHL1   H7A15892   2.177   5.384  10.307 -2.0355  2.8564 -1.0780
  131CHL1   H7B15893   2.003   5.392  10.311 -0.2024 -1.8481  0.0508
  131CHL1    C815894   2.087   5.219  10.414  0.1141 -0.1357 -0.1713
  131CHL1    H815895   2.178   5.157  10.396 -0.4988 -1.3656  0.8439
  131CHL1   C1415896   2.085   5.283  10.546  0.5785 -0.0890 -0.4045
  131CHL1   H1415897   1.988   5.337  10.546 -0.4915 -1.5923  4.1593
  131CHL1   C1515898   2.203   5.369  10.592 -0.2946 -0.3581  0.6402
  131CHL1  H15A15899   2.302   5.319  10.587 -0.8177 -1.3409 -0.4434
  131CHL1  H15B15900   2.201   5.464  10.534  0.6128 -1.8050 -1.9369
  131CHL1   C1615901   2.185   5.384  10.748 -0.2299  0.0710 -0.0749
  131CHL1  H16A15902   2.276   5.351  10.803  1.6110  0.4348 -2.6824
  131CHL1  H16B15903   2.162   5.491  10.763 -1.5945  0.1011 -1.8991
  131CHL1   C1715904   2.065   5.284  10.782  0.2188  0.0436 -0.1949
  131CHL1   H1715905   1.974   5.347  10.771 -1.2771 -2.0699 -0.3017
  131CHL1   C1315906   2.067   5.182  10.666 -0.3009  0.0101  1.3133
  131CHL1   C1815907   2.187   5.089  10.681  0.3037  0.1221  0.6723
  131CHL1  H18A15908   2.158   5.012  10.756 -2.3469 -1.6161 -1.9481
  131CHL1  H18B15909   2.210   5.036  10.586 -0.1084  1.9264 -0.4832
  131CHL1  H18C15910   2.276   5.144  10.718 -0.3257 -0.1559  2.7531
  131CHL1   C1215911   1.936   5.097  10.653 -0.3263  0.4738 -0.0956
  131CHL1  H12A15912   1.929   5.014  10.726 -0.8242  1.5270  1.0799
  131CHL1  H12B15913   1.846   5.162  10.655 -0.6576  0.1611 -2.1157
  131CHL1   C1115914   1.938   5.036  10.510 -0.3477 -0.3096  0.1351
  131CHL1  H11A15915   2.020   4.962  10.522  0.2663  0.6811  2.4541
  131CHL1  H11B15916   1.840   4.987  10.494 -1.5947  1.8278  0.8919
  131CHL1    C915917   1.959   5.132  10.393 -0.1014  0.0845 -0.3905
  131CHL1    H915918   1.877   5.207  10.389  1.2105  1.6234  0.4171
  131CHL1   C1015919   1.950   5.064  10.262 -0.3995 -0.1128 -0.2273
  131CHL1   C1915920   2.031   4.929  10.265 -0.5470  0.6403  0.3283
  131CHL1  H19A15921   1.996   4.857  10.342  1.1992 -2.5929 -1.6607
  131CHL1  H19B15922   2.015   4.873  10.170  0.4760 -0.6598  0.8851
  131CHL1  H19C15923   2.140   4.949  10.274 -0.8128  2.6202 -0.4638
  131CHL1    C115924   1.802   5.046  10.230  0.3744 -0.6410 -0.4041
  131CHL1   H1A15925   1.743   4.992  10.308  0.4419  0.2823  0.2991
  131CHL1   H1B15926   1.760   5.148  10.228  1.9544  0.1380  1.7701
  131CHL1    C215927   1.775   4.985  10.086  0.4873 -0.0908  0.2804
  131CHL1   H2A15928   1.665   4.985  10.074  0.5931  1.0915 -0.8929
  131CHL1   H2B15929   1.807   4.879  10.090 -0.4583 -0.5068 -1.8511
  131CHL1   C2015930   2.074   5.241  10.925 -0.4961  0.3415  0.5080
  131CHL1   H2015931   2.148   5.158  10.930  1.9828  2.4160  0.1753
  131CHL1   C2115932   1.937   5.193  10.966 -0.2110  0.2519  0.6436
  131CHL1  H21A15933   1.946   5.148  11.067  0.0918 -1.5880 -0.1688
  131CHL1  H21B15934   1.891   5.124  10.892  0.4692 -0.6360  1.0315
  131CHL1  H21C15935   1.879   5.288  10.971 -1.2281 -0.4210  3.5561
  131CHL1   C2215936   2.126   5.345  11.033 -0.2367  0.2340  0.3909
  131CHL1  H22A15937   2.233   5.363  11.009 -0.5642  1.0985 -0.5049
  131CHL1  H22B15938   2.084   5.447  11.015 -1.2408 -0.5544 -2.2185
  131CHL1   C2315939   2.114   5.310  11.185 -0.4644  0.3285  0.3883
  131CHL1  H23A15940   2.012   5.328  11.223 -1.5487  1.1638 -2.6867
  131CHL1  H23B15941   2.138   5.204  11.212  0.3113  1.1499  3.3769
  131CHL1   C2415942   2.193   5.401  11.282  0.7974  0.2088  0.1617
  131CHL1  H24A15943   2.300   5.390  11.252  1.0332  0.6235  0.8307
  131CHL1  H24B15944   2.162   5.506  11.265 -0.8136 -0.1654  0.6868
  131CHL1   C2515945   2.207   5.362  11.434 -0.6084 -0.0130 -0.3781
  131CHL1   H2515946   2.234   5.254  11.438  0.5395  0.0730 -3.1951
  131CHL1   C2615947   2.308   5.450  11.517  0.1517  0.1496  0.0766
  131CHL1  H26A15948   2.320   5.408  11.620  1.7129  0.6203  0.1150
  131CHL1  H26B15949   2.407   5.452  11.468 -0.3596  0.1554 -0.9913
  131CHL1  H26C15950   2.258   5.549  11.524  2.5462  1.6090 -2.0943
  131CHL1   C2715951   2.069   5.375  11.504  0.6182  0.2780 -0.2333
  131CHL1  H27A15952   2.043   5.483  11.503  1.7185  0.5656  0.5823
  131CHL1  H27B15953   1.994   5.305  11.461  1.1904 -2.2058  2.5172
  131CHL1  H27C15954   2.082   5.347  11.610  2.5789 -1.7501 -0.9303
  132CHL1    C315955   6.203   0.840  10.311 -0.1710 -0.0750 -0.5068
  132CHL1    H315956   6.104   0.888  10.324 -0.3174 -0.6460  0.5408
  132CHL1    O315957   6.239   0.830  10.178  0.2588  0.1739  0.2563
  132CHL1   H3'15958   6.227   0.736  10.159  1.0408  0.2806 -0.8608
  132CHL1    C415959   6.307   0.942  10.375  0.6770 -0.0317 -0.1714
  132CHL1   H4A15960   6.413   0.915  10.360  0.8315  0.7971 -0.6291
  132CHL1   H4B15961   6.300   1.042  10.328  2.4289 -0.4468 -1.3844
  132CHL1    C515962   6.283   0.943  10.527 -0.3187  0.0749  0.1656
  132CHL1    C615963   6.260   1.062  10.586 -0.0060  0.1545  0.2315
  132CHL1    H615964   6.256   1.157  10.530 -2.1405  0.2192  0.4134
  132CHL1    C715965   6.234   1.081  10.734  0.1097 -0.1449  0.4326
  132CHL1   H7A15966   6.294   1.165  10.774  1.4510 -1.6234  1.6979
  132CHL1   H7B15967   6.124   1.099  10.736  0.0485 -0.5336  2.1213
  132CHL1    C815968   6.269   0.953  10.812  0.0547  0.4416 -0.5451
  132CHL1    H815969   6.379   0.945  10.819 -0.0027  1.0037  1.3205
  132CHL1   C1415970   6.216   0.968  10.947  0.7341 -0.3033  0.0958
  132CHL1   H1415971   6.106   0.977  10.934  0.2457 -2.3751  2.1020
  132CHL1   C1515972   6.250   1.091  11.029 -0.0056 -0.1035 -0.7461
  132CHL1  H15A15973   6.360   1.099  11.043 -0.3074  2.3511  0.6327
  132CHL1  H15B15974   6.212   1.186  10.988  1.4760  1.7073  1.7954
  132CHL1   C1615975   6.195   1.057  11.166 -0.1152  0.0844  0.5098
  132CHL1  H16A15976   6.270   1.076  11.245  1.5835 -0.2060 -0.9656
  132CHL1  H16B15977   6.104   1.119  11.178  0.7210  1.4334  0.0961
  132CHL1   C1715978   6.152   0.905  11.165  0.6776  0.5840 -0.6803
  132CHL1   H1715979   6.046   0.926  11.141  0.3585 -0.1433  0.0691
  132CHL1   C1315980   6.225   0.843  11.037 -0.3818 -0.8192 -0.4953
  132CHL1   C1815981   6.374   0.820  11.078 -0.3065  0.5079  0.6955
  132CHL1  H18A15982   6.382   0.728  11.139 -0.1065  0.3163  0.3874
  132CHL1  H18B15983   6.430   0.813  10.982  0.4237  0.4277  1.1258
  132CHL1  H18C15984   6.418   0.900  11.142 -0.1186  0.3985  0.7025
  132CHL1   C1215985   6.162   0.719  10.980  0.4115 -0.3260 -0.3816
  132CHL1  H12A15986   6.193   0.634  11.046 -0.5690  0.7257  1.5238
  132CHL1  H12B15987   6.052   0.724  10.971  0.5217  0.1715 -1.5524
  132CHL1   C1115988   6.209   0.700  10.840 -0.1045  0.4010  0.4564
  132CHL1  H11A15989   6.317   0.676  10.856 -0.3711 -0.7322  0.6373
  132CHL1  H11B15990   6.147   0.617  10.800 -0.9397  0.5922  1.3248
  132CHL1    C915991   6.213   0.826  10.747 -0.8728 -0.0288  0.0686
  132CHL1    H915992   6.105   0.843  10.731 -0.7326  0.4930 -0.3530
  132CHL1   C1015993   6.274   0.805  10.602 -0.1711  0.6422 -0.3278
  132CHL1   C1915994   6.422   0.759  10.614 -0.4704  0.8264  0.0088
  132CHL1  H19A15995   6.440   0.657  10.655  0.2702  1.6830  1.9422
  132CHL1  H19B15996   6.467   0.752  10.513  1.5510  1.4255  0.8061
  132CHL1  H19C15997   6.485   0.833  10.668  0.2784 -0.5920  1.1331
  132CHL1    C115998   6.184   0.703  10.527  0.2322  0.2748  0.5133
  132CHL1   H1A15999   6.181   0.605  10.579 -1.3401 -1.1035 -1.9720
  132CHL1   H1B16000   6.079   0.739  10.537 -0.1613  0.1834 -2.4056
  132CHL1    C216001   6.208   0.699  10.371  0.4883  0.1461  0.1261
  132CHL1   H2A16002   6.134   0.631  10.324  1.6790  0.5912 -2.5393
  132CHL1   H2B16003   6.311   0.660  10.353  0.3886 -0.8514  1.5315
  132CHL1   C2016004   6.151   0.820  11.286  0.4080 -0.0011  0.2678
  132CHL1   H2016005   6.214   0.729  11.275  0.4424  0.2709 -2.2507
  132CHL1   C2116006   6.008   0.768  11.301  0.6564  0.2532  0.0906
  132CHL1  H21A16007   5.959   0.741  11.205 -1.7546  1.3457  0.9279
  132CHL1  H21B16008   5.940   0.841  11.348 -0.5949 -1.4742  1.1017
  132CHL1  H21C16009   6.012   0.685  11.376 -0.6437 -1.5461 -1.7186
  132CHL1   C2216010   6.207   0.881  11.412 -0.2374  0.7811 -0.5620
  132CHL1  H22A16011   6.313   0.902  11.384  0.0004  0.1849 -0.1300
  132CHL1  H22B16012   6.161   0.977  11.444  2.1620  1.6368  0.5903
  132CHL1   C2316013   6.213   0.780  11.533 -0.3170 -0.2653 -0.3246
  132CHL1  H23A16014   6.110   0.750  11.562 -0.0573 -2.3683 -1.3780
  132CHL1  H23B16015   6.269   0.689  11.502  0.2211 -0.9440  2.3438
  132CHL1   C2416016   6.301   0.832  11.655  0.0562  0.6399 -0.2856
  132CHL1  H24A16017   6.389   0.883  11.610 -0.5780  1.9830 -0.0704
  132CHL1  H24B16018   6.252   0.919  11.704  0.0190  0.7131 -0.4496
  132CHL1   C2516019   6.353   0.732  11.760  0.3536  0.4438 -0.1427
  132CHL1   H2516020   6.392   0.657  11.688 -2.3182  0.3624 -1.6194
  132CHL1   C2616021   6.468   0.777  11.852 -0.5119  0.5158  0.2325
  132CHL1  H26A16022   6.558   0.800  11.792 -1.4049  0.0377 -1.3508
  132CHL1  H26B16023   6.426   0.870  11.895  1.4112  0.9290  1.3273
  132CHL1  H26C16024   6.499   0.710  11.935  0.2431  0.2163 -0.2811
  132CHL1   C2716025   6.236   0.661  11.830  0.4260  0.3616 -0.0744
  132CHL1  H27A16026   6.286   0.595  11.904 -1.3252  3.0622  3.8281
  132CHL1  H27B16027   6.171   0.730  11.888 -2.3591 -0.7381 -1.6750
  132CHL1  H27C16028   6.181   0.594  11.760 -0.2420  0.0056  0.7668
  133CHL1    C316029   2.790   1.967  10.610 -0.1930  0.8249  0.6839
  133CHL1    H316030   2.708   1.894  10.625  1.4798 -1.2998 -0.0278
  133CHL1    O316031   2.814   1.995  10.473  0.1370 -0.9322 -0.0184
  133CHL1   H3'16032   2.729   2.019  10.437  0.2806  0.0634  0.2792
  133CHL1    C416033   2.774   2.097  10.678  0.0424 -0.2920 -0.4615
  133CHL1   H4A16034   2.861   2.162  10.657  0.5757 -0.7400  0.3184
  133CHL1   H4B16035   2.687   2.152  10.635 -0.6018  1.4937  2.7821
  133CHL1    C516036   2.771   2.076  10.827  0.4074  0.4844  0.2202
  133CHL1    C616037   2.682   2.140  10.901 -0.4859  0.3867  0.1373
  133CHL1    H616038   2.622   2.208  10.839  2.5859  1.9297 -1.3594
  133CHL1    C716039   2.666   2.133  11.049  0.5012 -0.3136 -0.0046
  133CHL1   H7A16040   2.659   2.237  11.087 -0.5216 -0.7863  1.1778
  133CHL1   H7B16041   2.579   2.069  11.073  1.8480 -1.6009  1.7205
  133CHL1    C816042   2.787   2.061  11.115  1.0089 -0.5755  0.1219
  133CHL1    H816043   2.859   2.144  11.126  0.4728 -0.1110  0.1999
  133CHL1   C1416044   2.737   2.013  11.252  0.1944  0.0732 -0.2043
  133CHL1   H1416045   2.654   1.940  11.234 -0.8711  0.7035  1.8532
  133CHL1   C1516046   2.666   2.107  11.351 -1.2783 -0.3870  0.3025
  133CHL1  H15A16047   2.726   2.201  11.356  0.7334 -1.6298  0.4306
  133CHL1  H15B16048   2.561   2.129  11.324 -0.6259  0.5352 -1.6545
  133CHL1   C1616049   2.670   2.033  11.489 -0.7003 -0.0405  0.3751
  133CHL1  H16A16050   2.721   2.097  11.564  0.3901 -1.8120  1.2265
  133CHL1  H16B16051   2.566   2.019  11.524 -0.6845 -0.3596  0.2969
  133CHL1   C1716052   2.760   1.912  11.466  0.0014 -0.3810  0.3372
  133CHL1   H1716053   2.698   1.830  11.424 -0.6682  0.1541  0.2654
  133CHL1   C1316054   2.843   1.936  11.334  0.5355 -0.6621 -0.0668
  133CHL1   C1816055   2.958   2.038  11.372  0.0314  0.5454  0.6404
  133CHL1  H18A16056   2.927   2.142  11.397  1.1263  1.3629 -1.2252
  133CHL1  H18B16057   3.012   1.990  11.457 -1.9923 -1.3437  0.9730
  133CHL1  H18C16058   3.017   2.042  11.278 -1.8525 -2.1864 -0.8031
  133CHL1   C1216059   2.901   1.823  11.253  0.1155 -0.3356 -0.4758
  133CHL1  H12A16060   2.988   1.769  11.295  1.3813  0.8823 -1.4374
  133CHL1  H12B16061   2.815   1.753  11.241  1.4593 -1.9121 -1.4778
  133CHL1   C1116062   2.942   1.862  11.116  0.0360 -0.0103  0.7905
  133CHL1  H11A16063   3.037   1.920  11.119 -0.7747  1.7350 -2.5878
  133CHL1  H11B16064   2.954   1.770  11.054 -2.1270  0.8184 -0.9954
  133CHL1    C916065   2.839   1.948  11.033 -0.2546  1.1210  0.5068
  133CHL1    H916066   2.757   1.874  11.018  0.3092 -0.0461  2.8271
  133CHL1   C1016067   2.879   1.988  10.891  0.8111 -0.0229  0.3546
  133CHL1   C1916068   3.002   2.089  10.891  0.5123 -0.1762  0.2948
  133CHL1  H19A16069   3.089   2.050  10.947 -0.1356 -0.8486  0.8448
  133CHL1  H19B16070   3.029   2.120  10.788 -0.2486 -0.6512 -0.0564
  133CHL1  H19C16071   2.970   2.182  10.944 -1.2765 -1.4649  1.5957
  133CHL1    C116072   2.905   1.854  10.808  0.1367  0.0441 -0.0568
  133CHL1   H1A16073   3.003   1.810  10.838 -0.4172 -0.4616  1.0892
  133CHL1   H1B16074   2.825   1.779  10.828 -0.6922  0.9493  0.1197
  133CHL1    C216075   2.911   1.891  10.658  0.1964  0.0828 -0.2790
  133CHL1   H2A16076   2.922   1.805  10.588 -0.4027  0.3546 -0.7081
  133CHL1   H2B16077   3.006   1.944  10.636  0.6145 -0.4167  0.2628
  133CHL1   C2016078   2.829   1.863  11.590  0.1710  0.7548 -0.0461
  133CHL1   H2016079   2.916   1.796  11.574 -0.4198 -0.1880  0.6163
  133CHL1   C2116080   2.714   1.787  11.669 -0.6413  0.2652 -0.3439
  133CHL1  H21A16081   2.677   1.692  11.625  0.1822 -0.7869  1.1098
  133CHL1  H21B16082   2.629   1.856  11.685  1.0581  2.2894  0.5176
  133CHL1  H21C16083   2.767   1.752  11.761 -1.2068 -0.1646 -0.1771
  133CHL1   C2216084   2.883   1.963  11.693  1.2645  0.1969 -0.0608
  133CHL1  H22A16085   2.945   2.038  11.640  0.3355  0.5760 -0.6287
  133CHL1  H22B16086   2.800   2.004  11.754  2.6246  0.0340  2.0081
  133CHL1   C2316087   2.994   1.909  11.787 -0.1359  0.2075 -0.5546
  133CHL1  H23A16088   2.933   1.843  11.852  1.6733 -1.1883 -0.1957
  133CHL1  H23B16089   3.068   1.850  11.729  0.2217  0.5899 -0.4948
  133CHL1   C2416090   3.081   2.017  11.864 -0.4645 -0.1491 -0.2920
  133CHL1  H24A16091   3.176   1.976  11.904 -0.6500 -0.5669 -0.2668
  133CHL1  H24B16092   3.110   2.097  11.793  4.1327 -0.8411  0.5085
  133CHL1   C2516093   3.001   2.098  11.964  0.4562  0.1449  0.1703
  133CHL1   H2516094   2.900   2.099  11.918 -0.2372 -0.4848  1.6199
  133CHL1   C2616095   2.979   2.010  12.090 -0.1046 -0.5869  0.4382
  133CHL1  H26A16096   3.075   2.003  12.147  0.9708  1.2360 -1.0434
  133CHL1  H26B16097   2.900   2.056  12.152  0.0720 -1.5810  1.4319
  133CHL1  H26C16098   2.946   1.907  12.065 -0.9872 -0.1010 -0.4371
  133CHL1   C2716099   3.057   2.238  11.996 -0.2623  0.2408  0.4243
  133CHL1  H27A16100   2.979   2.298  12.048 -0.0839  0.3797  0.5336
  133CHL1  H27B16101   3.154   2.249  12.050 -1.1439  1.2306  1.8953
  133CHL1  H27C16102   3.063   2.295  11.901  0.8083  0.5876  0.6804
  134CHL1    C316103   6.563   2.697  11.770  0.2682  0.6865  1.0820
  134CHL1    H316104   6.664   2.741  11.787 -0.3995  1.9602  1.9175
  134CHL1    O316105   6.574   2.598  11.673  0.0082  0.2778  0.3510
  134CHL1   H3'16106   6.496   2.616  11.621  0.6324 -2.2447 -1.6680
  134CHL1    C416107   6.541   2.628  11.903 -0.0794  0.1769 -0.7490
  134CHL1   H4A16108   6.443   2.577  11.895  0.1042 -0.1619 -0.9140
  134CHL1   H4B16109   6.626   2.559  11.924  0.6601  0.7110 -1.8991
  134CHL1    C516110   6.535   2.736  12.010  0.1696 -0.3465 -0.2951
  134CHL1    C616111   6.623   2.732  12.115  0.1191 -0.0121  1.3627
  134CHL1    H616112   6.674   2.636  12.130  0.4457 -0.4343 -1.7018
  134CHL1    C716113   6.632   2.835  12.224  0.0070  0.6328  0.1643
  134CHL1   H7A16114   6.658   2.797  12.325 -1.0960 -0.5808  0.0190
  134CHL1   H7B16115   6.714   2.902  12.193 -1.4629  3.9671  2.7594
  134CHL1    C816116   6.505   2.924  12.233  0.1875 -0.5613  0.4011
  134CHL1    H816117   6.423   2.859  12.270 -1.1208 -0.3503 -1.9698
  134CHL1   C1416118   6.525   3.044  12.329 -0.2338 -0.3632 -0.0434
  134CHL1   H1416119   6.605   3.107  12.284 -0.8150  0.1122 -0.4297
  134CHL1   C1516120   6.549   3.013  12.482  0.0351 -0.4818 -0.3407
  134CHL1  H15A16121   6.483   2.928  12.513  1.3232 -1.8645 -1.2710
  134CHL1  H15B16122   6.651   2.978  12.510  0.1018  0.7818  1.1305
  134CHL1   C1616123   6.507   3.142  12.549  0.4436  1.1730 -0.0620
  134CHL1  H16A16124   6.446   3.108  12.636 -0.6503 -3.2641 -2.2432
  134CHL1  H16B16125   6.596   3.192  12.592  0.7995  1.5615 -1.2190
  134CHL1   C1716126   6.446   3.239  12.448 -0.0449 -0.7096 -0.3122
  134CHL1   H1716127   6.532   3.300  12.413 -2.0536  1.5918 -1.5123
  134CHL1   C1316128   6.406   3.137  12.336  0.0241 -0.0498  0.8189
  134CHL1   C1816129   6.278   3.060  12.383 -0.0673 -0.3654  0.1953
  134CHL1  H18A16130   6.186   3.122  12.381 -0.2722 -0.6382  0.8200
  134CHL1  H18B16131   6.258   2.974  12.316  1.4128  0.3180 -1.1957
  134CHL1  H18C16132   6.294   3.028  12.489  2.8937 -0.2869 -0.1495
  134CHL1   C1216133   6.386   3.196  12.199  0.6665 -0.0087  0.6181
  134CHL1  H12A16134   6.307   3.273  12.209  1.0015  0.7033 -1.6495
  134CHL1  H12B16135   6.474   3.258  12.170  1.2759 -2.0953 -2.3399
  134CHL1   C1116136   6.364   3.089  12.090  0.0023  0.3628  0.2331
  134CHL1  H11A16137   6.267   3.037  12.103 -0.5932  0.9604 -1.4678
  134CHL1  H11B16138   6.368   3.137  11.990  0.0861 -0.6315 -0.2502
  134CHL1    C916139   6.471   2.977  12.092 -0.1308  0.8034  1.0379
  134CHL1    H916140   6.565   3.029  12.064 -0.6029  1.4985  0.7059
  134CHL1   C1016141   6.446   2.863  11.986  0.4666  1.0998  0.2367
  134CHL1   C1916142   6.306   2.794  12.008 -0.6107  0.7152 -0.0955
  134CHL1  H19A16143   6.301   2.764  12.115  0.6758 -1.0053 -0.4667
  134CHL1  H19B16144   6.233   2.871  11.978 -1.0301  0.1652 -0.5047
  134CHL1  H19C16145   6.285   2.703  11.948 -1.4369  0.9676 -0.2022
  134CHL1    C116146   6.463   2.912  11.842 -0.2156 -0.9242 -0.4211
  134CHL1   H1A16147   6.385   2.991  11.831  0.2061 -0.3634  0.4350
  134CHL1   H1B16148   6.566   2.955  11.838  0.3746 -1.9923  1.7200
  134CHL1    C216149   6.458   2.807  11.735 -0.0896 -0.0551  0.0679
  134CHL1   H2A16150   6.484   2.843  11.633 -0.8739 -1.8333 -0.8125
  134CHL1   H2B16151   6.354   2.769  11.727 -0.7581  1.3947  1.3224
  134CHL1   C2016152   6.333   3.333  12.497 -0.9045  0.6290  0.4536
  134CHL1   H2016153   6.262   3.351  12.413  0.1672 -0.6580 -0.7870
  134CHL1   C2116154   6.402   3.470  12.528 -0.3668 -0.0565  0.6304
  134CHL1  H21A16155   6.448   3.512  12.436  1.3335 -0.1640  1.3813
  134CHL1  H21B16156   6.479   3.458  12.607  0.0460 -0.4875  0.1650
  134CHL1  H21C16157   6.330   3.550  12.557  0.4931  1.3987 -1.0603
  134CHL1   C2216158   6.253   3.290  12.617 -0.0216  0.4623 -0.0124
  134CHL1  H22A16159   6.205   3.190  12.607 -0.9514  1.0446 -1.6233
  134CHL1  H22B16160   6.324   3.282  12.703  0.9447 -0.5871 -0.8735
  134CHL1   C2316161   6.137   3.382  12.658 -0.7107 -1.0366  0.1078
  134CHL1  H23A16162   6.177   3.485  12.665  0.0292 -1.1176 -2.1608
  134CHL1  H23B16163   6.064   3.381  12.574 -0.2566  1.1708 -0.3558
  134CHL1   C2416164   6.071   3.333  12.785 -0.1479  0.2493 -0.6540
  134CHL1  H24A16165   6.005   3.245  12.768  0.5424 -0.0905 -1.6842
  134CHL1  H24B16166   6.151   3.298  12.853 -1.7525 -0.9450  0.7167
  134CHL1   C2516167   5.986   3.450  12.853  0.9864 -0.1304  0.7322
  134CHL1   H2516168   6.059   3.532  12.868  1.0142 -0.1481  0.6926
  134CHL1   C2616169   5.857   3.489  12.779 -0.3087 -0.9468  0.3880
  134CHL1  H26A16170   5.878   3.540  12.683 -0.6329  0.8570  1.2465
  134CHL1  H26B16171   5.808   3.395  12.744 -3.2403  1.2010 -1.8011
  134CHL1  H26C16172   5.795   3.559  12.838  1.8949  2.6308 -1.2116
  134CHL1   C2716173   5.933   3.411  12.986 -0.4043  0.2469 -0.1677
  134CHL1  H27A16174   5.886   3.485  13.054  0.9308 -1.4822  2.8599
  134CHL1  H27B16175   5.860   3.328  12.974  1.9166 -2.0151  0.3563
  134CHL1  H27C16176   6.025   3.378  13.040 -1.0755 -2.6976 -0.6838
  135CHL1    C316177   0.683   2.473  11.168  0.4277  0.7348  0.1280
  135CHL1    H316178   0.781   2.422  11.180  0.1713  0.1180 -0.3382
  135CHL1    O316179   0.655   2.501  11.034  0.5719 -0.2531 -0.6165
  135CHL1   H3'16180   0.566   2.536  11.043  0.5755 -0.7679  2.5170
  135CHL1    C416181   0.582   2.368  11.221 -0.8703 -0.0503  0.4791
  135CHL1   H4A16182   0.486   2.401  11.176 -0.4086  1.4843  0.5672
  135CHL1   H4B16183   0.616   2.276  11.169  0.2961  0.6619 -0.0486
  135CHL1    C516184   0.579   2.366  11.368  0.0095 -0.1922 -0.4169
  135CHL1    C616185   0.597   2.254  11.440  0.2043  0.0855 -0.1800
  135CHL1    H616186   0.615   2.156  11.392 -0.7089 -1.3738  2.2656
  135CHL1    C716187   0.577   2.243  11.587 -0.0094  0.2155  0.4252
  135CHL1   H7A16188   0.514   2.155  11.610 -1.4340  0.5599 -1.8116
  135CHL1   H7B16189   0.676   2.237  11.638  0.0541 -1.0919  0.1823
  135CHL1    C816190   0.498   2.362  11.642  0.4760 -0.2829 -0.0301
  135CHL1    H816191   0.395   2.339  11.606 -0.1274  0.4534  1.1525
  135CHL1   C1416192   0.495   2.366  11.799 -0.2315 -0.5774 -0.5409
  135CHL1   H1416193   0.599   2.397  11.823 -0.2592 -1.2306  0.4781
  135CHL1   C1516194   0.462   2.244  11.878 -0.8915  0.4200 -0.9324
  135CHL1  H15A16195   0.380   2.188  11.829 -0.0639 -1.7668  0.0506
  135CHL1  H15B16196   0.548   2.178  11.903 -1.3513  0.1962  0.1363
  135CHL1   C1616197   0.396   2.297  12.006  0.2533 -0.1149 -0.4590
  135CHL1  H16A16198   0.293   2.257  12.015  0.8481 -1.3027  2.3662
  135CHL1  H16B16199   0.445   2.255  12.097 -0.4075  1.6732  0.7719
  135CHL1   C1716200   0.403   2.458  12.000  0.5867 -0.7066  0.1716
  135CHL1   H1716201   0.497   2.490  12.050  0.5428 -0.3372  0.0181
  135CHL1   C1316202   0.401   2.482  11.846 -0.5820  0.6731  0.1275
  135CHL1   C1816203   0.264   2.454  11.793  0.0892 -0.5803  0.4337
  135CHL1  H18A16204   0.230   2.355  11.830  2.4073 -1.4501  0.3994
  135CHL1  H18B16205   0.195   2.538  11.817  0.3709  1.2732 -4.1884
  135CHL1  H18C16206   0.263   2.457  11.682 -0.6742 -2.2016  0.3808
  135CHL1   C1216207   0.459   2.617  11.808 -0.3331 -0.4277  0.5710
  135CHL1  H12A16208   0.383   2.697  11.818 -0.1127 -0.1670  0.1771
  135CHL1  H12B16209   0.554   2.637  11.863 -0.6095 -0.9031  1.2412
  135CHL1   C1116210   0.466   2.618  11.652  0.6862 -0.2250 -0.0977
  135CHL1  H11A16211   0.363   2.622  11.611 -0.0464 -0.9303  1.6022
  135CHL1  H11B16212   0.520   2.708  11.615  1.0346  0.3894  1.7785
  135CHL1    C916213   0.547   2.496  11.592 -0.0069 -0.7318  0.3480
  135CHL1    H916214   0.649   2.507  11.635 -0.1038 -1.8034  0.8769
  135CHL1   C1016215   0.546   2.503  11.440 -0.1863 -0.5121  0.3792
  135CHL1   C1916216   0.413   2.569  11.386 -0.1835 -0.1174  0.1703
  135CHL1  H19A16217   0.417   2.676  11.415  0.4261  0.0456 -0.4748
  135CHL1  H19B16218   0.409   2.575  11.276  0.6451  0.0972  0.1402
  135CHL1  H19C16219   0.332   2.512  11.436  0.6012 -0.6726  0.8536
  135CHL1    C116220   0.660   2.590  11.392 -0.3547 -0.1810  0.2339
  135CHL1   H1A16221   0.638   2.693  11.428  0.9531  0.6325 -1.1760
  135CHL1   H1B16222   0.749   2.541  11.436  0.5092 -0.6883 -1.9134
  135CHL1    C216223   0.669   2.601  11.239 -0.4156 -0.2526 -0.2891
  135CHL1   H2A16224   0.750   2.673  11.212 -1.7364  0.5669 -2.2578
  135CHL1   H2B16225   0.584   2.663  11.206 -0.9255 -0.9256 -0.2664
  135CHL1   C2016226   0.290   2.517  12.087 -0.0492 -0.6168  0.3200
  135CHL1   H2016227   0.188   2.479  12.063 -0.6437 -0.4273  2.3728
  135CHL1   C2116228   0.278   2.675  12.070 -0.5490 -0.1604  0.2327
  135CHL1  H21A16229   0.232   2.694  11.971  1.0706  0.4278 -0.4297
  135CHL1  H21B16230   0.379   2.720  12.077  0.1779 -1.1474 -2.6894
  135CHL1  H21C16231   0.201   2.714  12.140 -1.9668 -2.4661  0.0690
  135CHL1   C2216232   0.319   2.465  12.235  0.4347 -0.3545  0.3765
  135CHL1  H22A16233   0.291   2.358  12.236 -3.6208  0.5446  1.6173
  135CHL1  H22B16234   0.422   2.482  12.272  0.2898 -3.5569  2.7424
  135CHL1   C2316235   0.223   2.523  12.348 -0.0756 -0.3680  0.3772
  135CHL1  H23A16236   0.246   2.630  12.367 -1.1481 -0.0678  0.0888
  135CHL1  H23B16237   0.114   2.529  12.325  0.4154  1.1879 -1.8987
  135CHL1   C2416238   0.244   2.458  12.488 -0.3454 -0.3928  0.5279
  135CHL1  H24A16239   0.219   2.350  12.477  0.4055 -0.5689  0.5444
  135CHL1  H24B16240   0.352   2.462  12.512 -0.5076 -0.4562  1.2862
  135CHL1   C2516241   0.160   2.519  12.604 -0.0798  0.3062  0.3954
  135CHL1   H2516242   0.170   2.444  12.685 -3.8658 -2.6157 -1.5228
  135CHL1   C2616243   0.198   2.661  12.647  0.2646 -0.1110  0.2464
  135CHL1  H26A16244   0.302   2.672  12.686  1.0332  1.8751 -2.1053
  135CHL1  H26B16245   0.184   2.735  12.565  1.2994  1.0203  1.0396
  135CHL1  H26C16246   0.125   2.691  12.726 -0.4481 -1.2967  0.0560
  135CHL1   C2716247   0.008   2.513  12.583  0.0390 -0.0802  0.0721
  135CHL1  H27A16248  -0.046   2.533  12.679 -2.1234  0.7840 -1.2409
  135CHL1  H27B16249  -0.019   2.595  12.513  1.8146 -0.7057 -1.4138
  135CHL1  H27C16250  -0.016   2.418  12.531 -2.0974  0.3253  0.2253
  136CHL1    C316251   5.757   1.059  10.508  0.4558  0.3452 -0.3172
  136CHL1    H316252   5.671   0.994  10.535  0.1860  1.7127  2.4909
  136CHL1    O316253   5.783   1.050  10.373  0.3119 -0.5870 -0.2300
  136CHL1   H3'16254   5.854   1.111  10.356  0.4715 -1.1039 -1.5563
  136CHL1    C416255   5.721   1.206  10.552 -0.3521  0.3519 -0.6358
  136CHL1   H4A16256   5.805   1.271  10.518  0.0866 -0.5501 -1.3145
  136CHL1   H4B16257   5.637   1.232  10.484 -0.7467  1.0409  0.0993
  136CHL1    C516258   5.691   1.223  10.701  0.3282 -0.8646  0.0586
  136CHL1    C616259   5.568   1.261  10.741  0.5272 -0.0123 -0.1831
  136CHL1    H616260   5.495   1.301  10.670  2.8890  1.2583 -2.0665
  136CHL1    C716261   5.530   1.267  10.889 -0.3661  0.3409  0.4156
  136CHL1   H7A16262   5.492   1.371  10.904  2.2804  1.4992 -0.3963
  136CHL1   H7B16263   5.454   1.194  10.925  1.5210 -0.7445  2.4321
  136CHL1    C816264   5.654   1.253  10.987  0.3310 -0.1674 -0.1171
  136CHL1    H816265   5.710   1.349  10.991 -1.1626  0.9247 -2.5139
  136CHL1   C1416266   5.619   1.225  11.134  0.2879 -0.0552  0.2829
  136CHL1   H1416267   5.563   1.129  11.129  1.8075 -1.2432  3.2552
  136CHL1   C1516268   5.519   1.319  11.199  0.0489 -0.0006 -0.6112
  136CHL1  H15A16269   5.550   1.425  11.190  0.0920  0.1246  0.7241
  136CHL1  H15B16270   5.416   1.298  11.163 -0.0617  1.6766 -1.3862
  136CHL1   C1616271   5.539   1.288  11.354  0.4907  0.5278 -0.0278
  136CHL1  H16A16272   5.558   1.381  11.413 -1.0560  0.6205  0.3511
  136CHL1  H16B16273   5.449   1.230  11.385  0.3435  0.7417 -0.0561
  136CHL1   C1716274   5.660   1.188  11.369 -0.0511  0.2722  0.2065
  136CHL1   H1716275   5.617   1.085  11.370  0.4327  0.0473  1.9825
  136CHL1   C1316276   5.731   1.200  11.234 -0.0045  0.8397  0.3071
  136CHL1   C1816277   5.823   1.322  11.239  0.4433  1.0492 -0.5403
  136CHL1  H18A16278   5.900   1.319  11.320 -1.4668 -1.1486  1.3591
  136CHL1  H18B16279   5.883   1.357  11.153  1.7668  0.9300  0.3085
  136CHL1  H18C16280   5.751   1.398  11.275 -1.3276 -1.3118  1.2286
  136CHL1   C1216281   5.805   1.082  11.182 -0.1072 -0.0361  0.1051
  136CHL1  H12A16282   5.897   1.065  11.242  0.2554  3.0221  0.5825
  136CHL1  H12B16283   5.737   0.994  11.184 -2.1424  1.4478 -0.7083
  136CHL1   C1116284   5.855   1.102  11.037  0.1987  0.0851 -0.0760
  136CHL1  H11A16285   5.936   1.178  11.030 -0.3661  0.7881  0.8485
  136CHL1  H11B16286   5.900   1.007  11.000  0.0005 -0.0093 -0.0759
  136CHL1    C916287   5.743   1.150  10.937  0.1328 -0.2815 -0.5034
  136CHL1    H916288   5.687   1.055  10.929  0.0299 -0.3252  0.6519
  136CHL1   C1016289   5.798   1.167  10.792  0.0638  0.5954 -0.3649
  136CHL1   C1916290   5.909   1.278  10.793  0.4173  0.2417  0.5286
  136CHL1  H19A16291   5.863   1.372  10.830 -0.0934  0.6030 -0.9412
  136CHL1  H19B16292   6.005   1.255  10.843  2.1006  1.5084 -1.9372
  136CHL1  H19C16293   5.944   1.298  10.689  1.1672  1.6116  1.0231
  136CHL1    C116294   5.855   1.027  10.745  0.2811 -0.6086 -0.2320
  136CHL1   H1A16295   5.950   1.006  10.799 -0.7143 -3.6351  0.5728
  136CHL1   H1B16296   5.776   0.953  10.771 -0.4222  0.2825  0.1932
  136CHL1    C216297   5.878   1.010  10.591 -0.0624 -0.0472 -0.1772
  136CHL1   H2A16298   5.902   0.905  10.563 -1.5075 -0.2217 -0.8484
  136CHL1   H2B16299   5.969   1.070  10.570  0.7267 -0.5369  1.6239
  136CHL1   C2016300   5.729   1.202  11.506 -0.8174  0.6601  0.7617
  136CHL1   H2016301   5.764   1.306  11.525  2.6026 -0.0475 -1.0247
  136CHL1   C2116302   5.862   1.118  11.512 -0.5295 -0.3542  0.6705
  136CHL1  H21A16303   5.843   1.014  11.479  0.1681 -1.2262  2.8187
  136CHL1  H21B16304   5.890   1.115  11.620 -0.7093  2.4809  0.8716
  136CHL1  H21C16305   5.945   1.164  11.455 -0.5930 -1.3725 -0.2714
  136CHL1   C2216306   5.636   1.167  11.627 -0.1583  0.3387 -0.2252
  136CHL1  H22A16307   5.540   1.222  11.621  0.2248  1.3583  2.0080
  136CHL1  H22B16308   5.606   1.060  11.631 -1.8141  0.7948  0.3156
  136CHL1   C2316309   5.684   1.215  11.765  0.0276 -0.1468 -0.0100
  136CHL1  H23A16310   5.781   1.164  11.784 -0.9250 -1.8399  0.5009
  136CHL1  H23B16311   5.704   1.324  11.759 -0.4123 -0.0392  0.4292
  136CHL1   C2416312   5.590   1.186  11.883  1.3177  0.0081  0.3229
  136CHL1  H24A16313   5.495   1.243  11.880  0.2874 -1.5267  1.8900
  136CHL1  H24B16314   5.557   1.080  11.895 -0.4481  0.4804 -0.0605
  136CHL1   C2516315   5.654   1.220  12.020 -0.0268 -0.2466  0.2882
  136CHL1   H2516316   5.710   1.316  12.011 -0.8833  0.3680  1.3405
  136CHL1   C2616317   5.556   1.241  12.141 -0.0558  0.0823  0.8256
  136CHL1  H26A16318   5.502   1.337  12.123 -1.3967 -0.8256 -0.1014
  136CHL1  H26B16319   5.477   1.164  12.149 -0.4264  0.2844 -0.5326
  136CHL1  H26C16320   5.607   1.238  12.240 -0.2771  1.3728  1.0041
  136CHL1   C2716321   5.746   1.106  12.066  0.4371 -0.1324 -0.2289
  136CHL1  H27A16322   5.826   1.085  11.991  0.4283 -1.0005 -0.0057
  136CHL1  H27B16323   5.802   1.124  12.160 -0.1029 -0.0142  0.0693
  136CHL1  H27C16324   5.673   1.025  12.087  1.0324 -0.4119  0.8684
  137CHL1    C316325   1.988   1.275   9.915 -1.3617 -0.1022 -0.4403
  137CHL1    H316326   2.024   1.371   9.957 -0.3662  0.4342 -2.3768
  137CHL1    O316327   1.959   1.298   9.781 -0.6265  0.4727 -0.1785
  137CHL1   H3'16328   1.881   1.349   9.759 -1.2020  0.0763  0.8952
  137CHL1    C416329   2.106   1.176   9.944 -0.9248  0.7544  0.0176
  137CHL1   H4A16330   2.091   1.080   9.890  0.1588 -0.7236  2.1440
  137CHL1   H4B16331   2.193   1.225   9.897 -1.7652  1.1187 -1.1907
  137CHL1    C516332   2.124   1.149  10.094  0.3387  0.2986  0.4906
  137CHL1    C616333   2.244   1.170  10.148  0.4112 -0.5040  0.3760
  137CHL1    H616334   2.334   1.189  10.088  0.6691 -1.2319  0.5160
  137CHL1    C716335   2.268   1.159  10.295 -0.2343 -0.7900  0.4419
  137CHL1   H7A16336   2.357   1.095  10.311  0.5868  0.7334  2.5309
  137CHL1   H7B16337   2.281   1.260  10.341 -0.6042 -0.8523  0.6935
  137CHL1    C816338   2.152   1.092  10.367 -0.9123  0.8352 -0.0831
  137CHL1    H816339   2.155   0.985  10.339  0.5204  0.7239  0.4278
  137CHL1   C1416340   2.171   1.114  10.513  0.1833  0.3396 -0.6991
  137CHL1   H1416341   2.159   1.221  10.538 -1.2572 -0.1740  1.0065
  137CHL1   C1516342   2.304   1.075  10.566 -0.2330 -0.9301  0.5025
  137CHL1  H15A16343   2.325   0.977  10.518 -0.7537 -0.2474 -1.2358
  137CHL1  H15B16344   2.387   1.148  10.548 -1.3116 -0.2414 -2.1831
  137CHL1   C1616345   2.286   1.061  10.717 -0.0364  0.5418  0.5130
  137CHL1  H16A16346   2.330   0.966  10.752 -0.8759 -1.4821 -3.3548
  137CHL1  H16B16347   2.334   1.143  10.775  1.4775 -0.4065  0.6359
  137CHL1   C1716348   2.132   1.059  10.746  0.4760  0.0745  0.2335
  137CHL1   H1716349   2.093   1.162  10.760 -0.3385 -0.3001  0.8603
  137CHL1   C1316350   2.080   1.031  10.601 -0.6014 -0.1719 -0.6357
  137CHL1   C1816351   2.083   0.880  10.579 -0.1887 -0.1027 -0.8872
  137CHL1  H18A16352   1.989   0.835  10.615  0.7594  0.5186  2.7398
  137CHL1  H18B16353   2.080   0.855  10.471 -1.9807 -2.3381 -0.3769
  137CHL1  H18C16354   2.169   0.838  10.636 -0.0274  1.1217 -0.1777
  137CHL1   C1216355   1.942   1.100  10.578 -0.5283  0.4255  0.1878
  137CHL1  H12A16356   1.860   1.060  10.640 -1.6115  2.4078  0.1292
  137CHL1  H12B16357   1.953   1.210  10.593  2.4876  0.3552 -0.8396
  137CHL1   C1116358   1.915   1.078  10.426  0.2849 -0.7120  0.4101
  137CHL1  H11A16359   1.911   0.967  10.421 -0.4859 -0.6441 -1.1832
  137CHL1  H11B16360   1.818   1.125  10.401  2.8174  3.5251 -2.6245
  137CHL1    C916361   2.019   1.137  10.328 -0.5080 -0.1932 -0.1773
  137CHL1    H916362   2.010   1.244  10.357 -1.7619 -0.0703 -0.9288
  137CHL1   C1016363   1.998   1.124  10.172 -0.1340  0.0160  0.7541
  137CHL1   C1916364   1.954   0.986  10.140 -0.4813 -0.3087 -0.4580
  137CHL1  H19A16365   2.013   0.904  10.185 -0.6072 -1.0875 -1.6522
  137CHL1  H19B16366   1.849   0.976  10.175 -0.5676 -0.6777 -0.8082
  137CHL1  H19C16367   1.944   0.955  10.033  0.3055 -1.6481 -0.1744
  137CHL1    C116368   1.884   1.217  10.133  0.1079  0.2027  0.2050
  137CHL1   H1A16369   1.786   1.197  10.182 -1.8947  2.9857 -2.2992
  137CHL1   H1B16370   1.899   1.322  10.167  1.0910  0.5990 -1.3622
  137CHL1    C216371   1.862   1.235   9.979  0.0852 -0.0634  0.0575
  137CHL1   H2A16372   1.779   1.308   9.963  1.0418  1.1556  0.5273
  137CHL1   H2B16373   1.834   1.136   9.937 -2.2253 -0.2999  1.9281
  137CHL1   C2016374   2.085   0.962  10.858 -0.0896 -0.0512 -0.1408
  137CHL1   H2016375   2.123   0.860  10.834 -2.9163 -0.6071 -2.9858
  137CHL1   C2116376   1.935   0.958  10.869 -0.2989 -0.1691 -0.0514
  137CHL1  H21A16377   1.894   1.060  10.858 -0.4893 -0.2922 -0.5208
  137CHL1  H21B16378   1.907   0.915  10.968  0.1574 -3.5088 -1.2558
  137CHL1  H21C16379   1.888   0.901  10.786 -0.5713  0.3410 -0.2545
  137CHL1   C2216380   2.151   1.010  10.991 -0.0625 -0.5344 -0.0624
  137CHL1  H22A16381   2.261   1.020  10.978 -0.0870  1.9518  1.1011
  137CHL1  H22B16382   2.110   1.109  11.021 -0.2255 -1.5399  3.4596
  137CHL1   C2316383   2.144   0.924  11.121  0.4041 -0.4818 -0.7217
  137CHL1  H23A16384   2.036   0.919  11.149  0.8115 -1.2399  0.8846
  137CHL1  H23B16385   2.178   0.822  11.093  0.4393 -1.2030  1.6486
  137CHL1   C2416386   2.231   0.971  11.238  0.2919 -0.7678 -0.1473
  137CHL1  H24A16387   2.337   0.974  11.205 -0.0920  0.8595 -1.3333
  137CHL1  H24B16388   2.203   1.076  11.262  0.5631 -0.2701 -1.9143
  137CHL1   C2516389   2.212   0.884  11.364 -0.2766 -0.7462 -0.7468
  137CHL1   H2516390   2.245   0.783  11.331  0.8536 -0.3767 -0.8213
  137CHL1   C2616391   2.318   0.916  11.479  0.0322 -0.1847  0.0299
  137CHL1  H26A16392   2.421   0.910  11.438  0.5310 -1.0583  1.3692
  137CHL1  H26B16393   2.304   1.024  11.504  0.4517  0.3741 -1.9274
  137CHL1  H26C16394   2.313   0.851  11.569 -0.7154 -2.0503 -1.3011
  137CHL1   C2716395   2.067   0.895  11.415 -0.4014  0.3204 -0.0432
  137CHL1  H27A16396   2.066   0.860  11.521  0.8691 -0.1672 -0.1746
  137CHL1  H27B16397   2.040   1.003  11.423  1.0414  0.7654 -0.7245
  137CHL1  H27C16398   1.985   0.849  11.356 -1.0731 -0.3085  1.3193
  138CHL1    C316399   1.137   6.083   9.818 -0.7728 -0.3848  0.1469
  138CHL1    H316400   1.162   5.976   9.833 -1.4830 -0.8617 -1.8270
  138CHL1    O316401   1.122   6.103   9.680  0.0504  0.2388 -0.2320
  138CHL1   H3'16402   1.055   6.040   9.652 -1.6787  2.0699 -0.4441
  138CHL1    C416403   1.007   6.135   9.891  0.0631 -0.4586  0.0322
  138CHL1   H4A16404   0.995   6.241   9.863  2.5779  0.4940  2.1707
  138CHL1   H4B16405   0.919   6.078   9.852  0.1791 -0.9335  0.4489
  138CHL1    C516406   1.021   6.135  10.041  0.7131  0.1094 -0.8441
  138CHL1    C616407   0.932   6.065  10.112  0.5059 -0.1464  0.4847
  138CHL1    H616408   0.857   6.005  10.058  1.6782 -0.8069 -0.4734
  138CHL1    C716409   0.942   6.057  10.262  0.6387  0.5842  0.4815
  138CHL1   H7A16410   0.846   6.052  10.317  0.5426 -3.4984  0.2833
  138CHL1   H7B16411   0.997   5.963  10.287 -0.7086 -0.2119  0.5348
  138CHL1    C816412   1.026   6.159  10.330 -0.3252  0.0214 -0.2955
  138CHL1    H816413   0.973   6.255  10.311  0.6438  0.9527  1.4973
  138CHL1   C1416414   1.053   6.126  10.476 -0.2484 -0.4397  0.2243
  138CHL1   H1416415   1.113   6.032  10.479  2.7458  1.2457 -1.5000
  138CHL1   C1516416   0.928   6.109  10.558 -0.4069  0.0093  0.4221
  138CHL1  H15A16417   0.864   6.200  10.549 -0.5781 -0.0619  0.8971
  138CHL1  H15B16418   0.884   6.011  10.531  1.2133 -0.9670  1.2065
  138CHL1   C1616419   0.980   6.100  10.700 -0.1513  0.0640  0.3962
  138CHL1  H16A16420   0.908   6.154  10.765  0.5367  0.2841  0.9931
  138CHL1  H16B16421   0.983   5.993  10.731 -0.2723 -0.5895 -1.6818
  138CHL1   C1716422   1.116   6.159  10.701  0.1677 -0.3739  0.2718
  138CHL1   H1716423   1.184   6.071  10.698  0.0751 -0.4270 -0.2651
  138CHL1   C1316424   1.128   6.226  10.560 -0.8241  0.6722  1.0898
  138CHL1   C1816425   1.062   6.367  10.550  0.2581 -0.2145 -0.0743
  138CHL1  H18A16426   1.116   6.437  10.617  0.2513 -2.1049  2.0038
  138CHL1  H18B16427   1.066   6.413  10.449  0.4002 -1.1578 -0.5100
  138CHL1  H18C16428   0.955   6.367  10.579  0.0744 -1.9504 -0.6423
  138CHL1   C1216429   1.263   6.230  10.495 -0.1491  0.1095  0.0244
  138CHL1  H12A16430   1.338   6.305  10.526  0.9271 -0.8270 -0.2407
  138CHL1  H12B16431   1.309   6.128  10.496  0.5478  0.3877 -1.2566
  138CHL1   C1116432   1.257   6.264  10.339  0.3558  0.6480 -0.3845
  138CHL1  H11A16433   1.233   6.372  10.328 -2.1794  0.6094  3.2586
  138CHL1  H11B16434   1.358   6.244  10.296  1.1548  3.2559  0.1348
  138CHL1    C916435   1.158   6.177  10.255  0.3951  0.6032  0.1311
  138CHL1    H916436   1.208   6.078  10.247 -0.9906 -0.0158 -1.8662
  138CHL1   C1016437   1.137   6.212  10.099 -0.5855  0.1773 -0.6404
  138CHL1   C1916438   1.098   6.358  10.078  0.3664  0.0453 -0.2413
  138CHL1  H19A16439   1.088   6.377   9.969 -3.3640  2.0808  0.2887
  138CHL1  H19B16440   1.001   6.385  10.125  0.5209  3.3925 -1.5858
  138CHL1  H19C16441   1.176   6.431  10.108  0.5807 -0.2943  0.0269
  138CHL1    C116442   1.270   6.166  10.022  0.7012  0.3343 -1.3526
  138CHL1   H1A16443   1.347   6.242  10.049  0.7203  0.0680 -0.6324
  138CHL1   H1B16444   1.302   6.062  10.048 -1.0013 -0.2165 -1.3242
  138CHL1    C216445   1.260   6.166   9.865  0.0688 -0.7257  0.3883
  138CHL1   H2A16446   1.357   6.129   9.826  0.1679 -1.0755  0.9627
  138CHL1   H2B16447   1.254   6.273   9.837  0.6136 -0.7850  0.0206
  138CHL1   C2016448   1.148   6.244  10.818 -0.1137  0.9312  0.0159
  138CHL1   H2016449   1.072   6.325  10.824 -1.3316 -0.2407  0.7897
  138CHL1   C2116450   1.292   6.305  10.813  0.1976 -0.4082  0.4370
  138CHL1  H21A16451   1.315   6.358  10.907 -0.0770 -0.6571  0.6435
  138CHL1  H21B16452   1.309   6.369  10.723  1.1979 -1.0894  0.1201
  138CHL1  H21C16453   1.369   6.225  10.806  1.4028  0.6244  1.5042
  138CHL1   C2216454   1.138   6.160  10.947  0.4728  1.0785 -0.2785
  138CHL1  H22A16455   1.041   6.106  10.938 -0.5924  2.9852 -0.8812
  138CHL1  H22B16456   1.220   6.085  10.944 -0.1007  0.4690 -1.7654
  138CHL1   C2316457   1.142   6.236  11.082 -0.2857  0.7123  1.0741
  138CHL1  H23A16458   1.243   6.282  11.095  0.5884 -0.8688  0.2056
  138CHL1  H23B16459   1.056   6.305  11.082 -0.8387  0.0510  0.0311
  138CHL1   C2416460   1.127   6.135  11.197  0.6864  0.5607  0.0890
  138CHL1  H24A16461   1.039   6.071  11.176  1.0146 -0.4956  1.7196
  138CHL1  H24B16462   1.203   6.054  11.192 -0.0614 -0.2309  1.1336
  138CHL1   C2516463   1.109   6.209  11.324 -0.6352 -0.0193 -1.0910
  138CHL1   H2516464   1.031   6.285  11.304 -0.0913  0.1795 -2.5842
  138CHL1   C2616465   1.083   6.105  11.435 -0.3107  0.0423  0.5631
  138CHL1  H26A16466   1.174   6.042  11.441  1.3138  2.3161  1.5235
  138CHL1  H26B16467   1.061   6.160  11.530 -2.5925 -1.8068  1.1858
  138CHL1  H26C16468   0.988   6.051  11.416 -1.7301  2.9791 -1.6006
  138CHL1   C2716469   1.235   6.286  11.361 -0.0049 -0.1319 -0.7314
  138CHL1  H27A16470   1.323   6.218  11.355 -0.5477 -0.7597 -2.1210
  138CHL1  H27B16471   1.258   6.369  11.291 -0.1675  1.8033  1.4023
  138CHL1  H27C16472   1.229   6.329  11.463 -1.3131  2.6154 -1.8742
  139CHL1    C316473   2.630   6.307   9.945 -0.6005  0.3888  0.2857
  139CHL1    H316474   2.652   6.199   9.943  0.0933  0.4545  2.3344
  139CHL1    O316475   2.622   6.345   9.809 -0.3065 -0.5674 -0.3260
  139CHL1   H3'16476   2.565   6.422   9.800  1.8014  1.1086 -0.0242
  139CHL1    C416477   2.497   6.334  10.020  0.2600  0.0263  0.4556
  139CHL1   H4A16478   2.461   6.439  10.007 -4.7398 -1.6545 -2.3171
  139CHL1   H4B16479   2.422   6.270   9.968  0.8608  0.2420 -0.7074
  139CHL1    C516480   2.518   6.302  10.164  0.1087 -0.6993 -0.3895
  139CHL1    C616481   2.430   6.219  10.225  0.1317  0.3064  0.5985
  139CHL1    H616482   2.347   6.180  10.163  2.0610  0.9791 -2.6446
  139CHL1    C716483   2.432   6.196  10.380  0.4005  0.2987  0.0623
  139CHL1   H7A16484   2.328   6.198  10.418  0.9123 -0.7016  1.5656
  139CHL1   H7B16485   2.474   6.096  10.403 -1.5309 -0.6328 -0.3417
  139CHL1    C816486   2.522   6.298  10.462 -0.4398 -0.6294  0.2311
  139CHL1    H816487   2.466   6.394  10.465 -0.5263 -0.6485 -0.4345
  139CHL1   C1416488   2.550   6.252  10.602 -0.5570  0.3051  0.0370
  139CHL1   H1416489   2.606   6.157  10.591 -1.2397 -0.0768 -0.1996
  139CHL1   C1516490   2.437   6.217  10.690  0.8941 -0.4816 -0.2997
  139CHL1  H15A16491   2.354   6.289  10.671  1.2975 -0.4083 -2.0226
  139CHL1  H15B16492   2.391   6.118  10.669 -1.4469  0.6968 -1.1311
  139CHL1   C1616493   2.487   6.236  10.834  0.7641  0.5394  0.3923
  139CHL1  H16A16494   2.428   6.313  10.887  1.6258 -0.7692  3.4874
  139CHL1  H16B16495   2.486   6.140  10.891 -0.9144 -0.2853 -0.9231
  139CHL1   C1716496   2.630   6.290  10.823 -0.5688 -0.5188 -0.3126
  139CHL1   H1716497   2.698   6.203  10.812 -0.4895 -0.4088 -0.7296
  139CHL1   C1316498   2.634   6.358  10.684  0.2677  0.3253  1.3670
  139CHL1   C1816499   2.575   6.498  10.687  0.0953  0.9587 -0.0192
  139CHL1  H18A16500   2.647   6.560  10.745 -0.3331  2.5828 -1.1562
  139CHL1  H18B16501   2.567   6.544  10.586 -1.2878  1.2273  0.1973
  139CHL1  H18C16502   2.474   6.502  10.733  0.3387 -2.9900  1.2468
  139CHL1   C1216503   2.776   6.369  10.617 -0.0293  0.5010  0.6578
  139CHL1  H12A16504   2.837   6.444  10.672  0.4897 -0.8647  2.0010
  139CHL1  H12B16505   2.824   6.269  10.624  2.5681  1.6520  0.5468
  139CHL1   C1116506   2.757   6.402  10.469 -0.1798  0.1386 -0.3656
  139CHL1  H11A16507   2.740   6.512  10.476  1.2234  0.2846  1.8361
  139CHL1  H11B16508   2.853   6.408  10.414  0.0366 -0.2924 -0.0392
  139CHL1    C916509   2.651   6.319  10.387  0.3190 -1.0645  0.5888
  139CHL1    H916510   2.702   6.222  10.366 -0.7166 -1.7424  1.1125
  139CHL1   C1016511   2.631   6.376  10.243 -0.1182 -0.2942  0.1457
  139CHL1   C1916512   2.615   6.529  10.249  0.4527 -0.1308 -0.2520
  139CHL1  H19A16513   2.578   6.569  10.153  0.4587 -1.0237 -0.6371
  139CHL1  H19B16514   2.541   6.547  10.331 -1.8285  0.8341 -2.3977
  139CHL1  H19C16515   2.706   6.581  10.287 -0.3514  0.8098  0.4555
  139CHL1    C116516   2.756   6.351  10.156  0.4384 -0.1657  0.5777
  139CHL1   H1A16517   2.844   6.407  10.196  0.3581  0.1001  0.3850
  139CHL1   H1B16518   2.801   6.250  10.163  1.8935  0.0645 -3.2582
  139CHL1    C216519   2.744   6.383  10.010  0.3769  0.4789 -0.0585
  139CHL1   H2A16520   2.836   6.369   9.950  1.5545  3.1626  0.9896
  139CHL1   H2B16521   2.723   6.491   9.996  3.3886  1.1733  0.2637
  139CHL1   C2016522   2.661   6.367  10.953 -0.0277 -0.4371 -0.1206
  139CHL1   H2016523   2.603   6.462  10.955 -2.5121 -1.8610 -0.6879
  139CHL1   C2116524   2.808   6.406  10.962  0.5887 -0.2025 -0.1622
  139CHL1  H21A16525   2.877   6.320  10.945  0.7133  0.3256 -2.6200
  139CHL1  H21B16526   2.819   6.443  11.066  0.2074 -1.0803  0.2038
  139CHL1  H21C16527   2.824   6.485  10.886  0.5182  1.3806  1.4043
  139CHL1   C2216528   2.635   6.284  11.082 -0.1625 -0.8048 -0.4949
  139CHL1  H22A16529   2.555   6.208  11.066 -0.1383 -0.8527 -0.3864
  139CHL1  H22B16530   2.723   6.227  11.116  2.5595  3.1335 -0.3155
  139CHL1   C2316531   2.583   6.377  11.198 -0.0822 -0.3061  0.3115
  139CHL1  H23A16532   2.661   6.454  11.216  0.8410 -0.5949 -2.0912
  139CHL1  H23B16533   2.489   6.420  11.157  0.0680  1.5146  1.7441
  139CHL1   C2416534   2.534   6.293  11.314 -0.2621 -0.7690 -0.2826
  139CHL1  H24A16535   2.425   6.273  11.306 -0.5293  1.0022 -1.9674
  139CHL1  H24B16536   2.590   6.197  11.322  0.5277 -0.6281 -3.1146
  139CHL1   C2516537   2.544   6.358  11.454 -0.7986 -0.1109  0.5353
  139CHL1   H2516538   2.492   6.291  11.525  0.2048 -0.4044  1.0062
  139CHL1   C2616539   2.700   6.366  11.488  0.0833 -0.3049  0.2004
  139CHL1  H26A16540   2.705   6.403  11.592  0.0703 -1.0602  0.4786
  139CHL1  H26B16541   2.740   6.263  11.473 -0.9657 -0.8180  0.7619
  139CHL1  H26C16542   2.758   6.438  11.427  0.6755 -0.6881  0.3040
  139CHL1   C2716543   2.483   6.493  11.477 -0.7225  0.2719  0.6727
  139CHL1  H27A16544   2.372   6.484  11.470 -0.6873  0.4046 -0.0928
  139CHL1  H27B16545   2.481   6.520  11.585  0.4890 -1.1677  1.0935
  139CHL1  H27C16546   2.526   6.571  11.411  0.9066 -2.3421 -1.5869
  140CHL1    C316547   2.035   6.522  10.093  0.1173 -0.3152 -0.2490
  140CHL1    H316548   1.942   6.467  10.120 -0.5759 -0.4461 -2.6434
  140CHL1    O316549   2.038   6.506   9.954 -0.3117 -0.3533 -0.5171
  140CHL1   H3'16550   2.093   6.577   9.921 -0.7565  0.2006 -0.0883
  140CHL1    C416551   2.017   6.674  10.134 -0.2271 -0.0156 -0.0008
  140CHL1   H4A16552   2.106   6.730  10.100 -1.7904  0.9917 -2.7304
  140CHL1   H4B16553   1.932   6.726  10.086  0.2616  1.6004  0.8274
  140CHL1    C516554   2.010   6.687  10.281  0.0309 -0.0338 -0.4228
  140CHL1    C616555   1.901   6.723  10.337  0.2193 -0.5100  0.4479
  140CHL1    H616556   1.816   6.749  10.271  0.5292 -1.0260 -0.1680
  140CHL1    C716557   1.871   6.750  10.481  0.3079 -0.0554  0.1846
  140CHL1   H7A16558   1.835   6.853  10.502 -1.4323 -0.3443 -1.1343
  140CHL1   H7B16559   1.798   6.677  10.522 -1.1590  1.2043 -0.0835
  140CHL1    C816560   2.007   6.745  10.570  0.1363 -0.1234 -0.1108
  140CHL1    H816561   2.070   6.835  10.553 -3.7147  2.5766 -1.4038
  140CHL1   C1416562   1.978   6.727  10.724 -0.0459  0.3247  0.4477
  140CHL1   H1416563   1.919   6.634  10.731  0.2493  0.2597  2.6247
  140CHL1   C1516564   1.905   6.842  10.791  0.8843  0.6908 -0.7947
  140CHL1  H15A16565   1.933   6.944  10.756  0.7086  0.5206 -1.4502
  140CHL1  H15B16566   1.794   6.829  10.797  1.0030  0.3024  2.0243
  140CHL1   C1616567   1.938   6.814  10.937  0.3847 -0.2067  0.3899
  140CHL1  H16A16568   1.971   6.908  10.985 -1.2114  1.9775 -2.4704
  140CHL1  H16B16569   1.861   6.764  10.999  0.9034 -1.1204  0.3193
  140CHL1   C1716570   2.053   6.719  10.951 -0.6963  0.3169  0.2131
  140CHL1   H1716571   2.009   6.618  10.966 -0.7651  0.1617 -0.9610
  140CHL1   C1316572   2.113   6.717  10.805  0.5157  0.2512 -1.1073
  140CHL1   C1816573   2.202   6.842  10.795  0.3005 -0.2128  0.3212
  140CHL1  H18A16574   2.255   6.854  10.698  0.5230  1.1214  0.5862
  140CHL1  H18B16575   2.151   6.935  10.828  2.2322  1.3008 -0.7365
  140CHL1  H18C16576   2.293   6.838  10.858  1.0124 -1.5635 -0.7257
  140CHL1   C1216577   2.187   6.589  10.765  0.5027 -0.4015  0.2792
  140CHL1  H12A16578   2.283   6.589  10.822  1.7991 -2.4750 -1.7318
  140CHL1  H12B16579   2.128   6.498  10.788  0.5183  0.0509  2.3582
  140CHL1   C1116580   2.221   6.608  10.617 -0.5454  0.2282  0.0986
  140CHL1  H11A16581   2.304   6.682  10.610  0.6256 -0.9303  1.1886
  140CHL1  H11B16582   2.274   6.518  10.578  0.7444  1.4475 -1.1075
  140CHL1    C916583   2.097   6.635  10.517 -0.4875 -0.2146  0.5848
  140CHL1    H916584   2.031   6.546  10.523 -1.8986  0.7483  0.0039
  140CHL1   C1016585   2.130   6.640  10.360  0.6123 -0.7001  0.1459
  140CHL1   C1916586   2.251   6.736  10.338  0.7708 -0.8886  0.3176
  140CHL1  H19A16587   2.343   6.694  10.383  1.3168  1.2437  1.3261
  140CHL1  H19B16588   2.270   6.735  10.228  0.6474 -2.0091  0.2960
  140CHL1  H19C16589   2.234   6.839  10.377  0.7688 -0.9409  0.4544
  140CHL1    C116590   2.155   6.501  10.307  0.3395  0.4401  0.2878
  140CHL1   H1A16591   2.256   6.474  10.346  1.0314  3.5293  0.9494
  140CHL1   H1B16592   2.071   6.434  10.334 -0.6608  1.3424 -0.5410
  140CHL1    C216593   2.164   6.481  10.155  0.1058  0.2122 -0.0829
  140CHL1   H2A16594   2.182   6.373  10.135 -0.5712  0.3150 -1.3433
  140CHL1   H2B16595   2.253   6.526  10.105  0.5635 -1.4933 -0.8855
  140CHL1   C2016596   2.150   6.742  11.077  0.3111  0.1285 -0.9327
  140CHL1   H2016597   2.196   6.843  11.071 -1.4467  1.0128 -0.0670
  140CHL1   C2116598   2.265   6.645  11.086  0.4106  0.2477 -0.4854
  140CHL1  H21A16599   2.247   6.546  11.038  0.0509  0.3921 -0.6514
  140CHL1  H21B16600   2.285   6.637  11.195 -0.5373  1.4274 -0.2100
  140CHL1  H21C16601   2.358   6.681  11.037  0.7378  0.9713  0.6343
  140CHL1   C2216602   2.066   6.738  11.205 -0.0260  0.5719 -0.3924
  140CHL1  H22A16603   1.959   6.756  11.184 -0.0514 -0.3719 -1.1195
  140CHL1  H22B16604   2.063   6.636  11.248  1.3865  1.0998  1.1075
  140CHL1   C2316605   2.097   6.837  11.315  0.3754 -0.2530 -0.3076
  140CHL1  H23A16606   2.204   6.828  11.346  0.7928 -0.8672 -1.8128
  140CHL1  H23B16607   2.080   6.938  11.273  0.8054 -0.1097 -0.1397
  140CHL1   C2416608   2.002   6.826  11.437 -0.0769 -0.5284 -0.0861
  140CHL1  H24A16609   1.894   6.847  11.418  0.6401  3.0991 -0.7036
  140CHL1  H24B16610   2.013   6.722  11.476 -1.3073 -0.6106  0.1011
  140CHL1   C2516611   2.031   6.930  11.546  0.1114 -0.1171 -0.0238
  140CHL1   H2516612   2.016   7.024  11.489  0.4618 -0.7390 -1.1861
  140CHL1   C2616613   2.170   6.925  11.613 -0.5482 -0.1614 -0.2970
  140CHL1  H26A16614   2.181   6.989  11.704  0.3914  0.8393 -1.0860
  140CHL1  H26B16615   2.194   6.823  11.651 -1.6053  0.0619  1.0655
  140CHL1  H26C16616   2.248   6.952  11.539 -1.3538  2.5185 -0.2578
  140CHL1   C2716617   1.928   6.915  11.656 -0.0003 -0.7858 -0.3970
  140CHL1  H27A16618   1.827   6.885  11.620 -0.1571 -0.0968 -0.5298
  140CHL1  H27B16619   1.968   6.842  11.729 -1.3337 -0.9185  0.2400
  140CHL1  H27C16620   1.913   7.012  11.708  0.6845  0.1626 -1.8995
  141DOPC     N16621   4.580   3.011  15.441  0.6277 -0.0724 -0.5567
  141DOPC   C1216622   4.725   2.998  15.476 -0.4741 -0.5584  0.1851
  141DOPC  H12A16623   4.761   2.901  15.445 -0.4658 -0.9554  1.3790
  141DOPC  H12B16624   4.727   3.004  15.584 -1.6006 -1.2405  0.2668
  141DOPC   C1316625   4.526   3.148  15.456  0.6678 -0.4557 -0.6887
  141DOPC  H13A16626   4.573   3.221  15.392  0.3406 -0.2869 -0.7413
  141DOPC  H13B16627   4.418   3.152  15.446  0.5142  1.2941  1.2245
  141DOPC  H13C16628   4.544   3.185  15.556 -1.4030  1.2497 -0.8660
  141DOPC   C1416629   4.506   2.919  15.541 -0.9334  0.0059  0.2178
  141DOPC  H14A16630   4.398   2.923  15.533 -0.8552  1.4653 -0.4235
  141DOPC  H14B16631   4.541   2.820  15.516  0.1744  0.6984 -1.0849
  141DOPC  H14C16632   4.546   2.938  15.639 -0.6938  1.9060 -0.2072
  141DOPC   C1516633   4.560   2.975  15.299 -1.2244 -0.6947 -0.7196
  141DOPC  H15A16634   4.460   3.005  15.272 -1.2692  1.4726  1.5086
  141DOPC  H15B16635   4.577   2.871  15.275  1.4820 -0.3234 -0.6821
  141DOPC  H15C16636   4.626   3.032  15.236  0.3371 -0.3568  1.1291
  141DOPC   C1116637   4.827   3.092  15.400  0.2644  0.1893  0.3020
  141DOPC  H11A16638   4.815   3.200  15.423  0.6460  0.3581 -0.2724
  141DOPC  H11B16639   4.926   3.068  15.445 -0.0817  0.4412  1.2124
  141DOPC     P16640   4.905   3.187  15.172  0.0255 -0.0293 -0.2652
  141DOPC   O1316641   5.048   3.178  15.199 -0.7430  0.0928 -0.1238
  141DOPC   O1416642   4.834   3.313  15.210 -0.3656 -0.2222 -0.1441
  141DOPC   O1216643   4.838   3.071  15.256 -0.1347 -0.1898  0.0070
  141DOPC   O1116644   4.881   3.139  15.018 -0.3847 -0.5921 -0.0357
  141DOPC    C116645   4.902   3.003  14.985  0.3251 -0.0717 -0.0183
  141DOPC    HA16646   4.872   2.935  15.067  1.3759 -0.2536  0.2227
  141DOPC    HB16647   5.008   2.982  14.960  0.2695  0.9872 -1.2841
  141DOPC    C216648   4.821   2.967  14.858 -0.3260  0.6430 -0.4769
  141DOPC    HS16649   4.806   2.857  14.848  0.1181  0.6882 -1.8138
  141DOPC   O2116650   4.876   3.009  14.728  0.1044  0.1355  0.2330
  141DOPC   C2116651   4.984   2.954  14.694  0.4794  0.1178  0.0306
  141DOPC   O2216652   5.027   2.850  14.737  0.8390  0.1457 -0.1959
  141DOPC   C2216653   5.031   3.024  14.560  0.0587 -0.8144  0.0438
  141DOPC   H2R16654   5.102   3.100  14.600 -0.6738 -0.1651  0.1434
  141DOPC   H2S16655   4.941   3.071  14.514 -1.2437 -1.6536  1.6204
  141DOPC    C316656   4.671   3.012  14.872 -0.0775  0.0951 -0.1785
  141DOPC    HX16657   4.674   3.118  14.903 -1.9086  0.6784 -1.8081
  141DOPC    HY16658   4.625   2.952  14.954  0.5336  1.1383  0.9638
  141DOPC   O3116659   4.611   2.999  14.745 -0.1400  0.5368  0.1407
  141DOPC   C3116660   4.513   3.083  14.726 -0.9212 -0.5570 -0.2350
  141DOPC   O3216661   4.459   3.157  14.812  0.0765  0.6658  0.2823
  141DOPC   C3216662   4.470   3.073  14.578 -0.1587 -0.3765  0.5886
  141DOPC   H2X16663   4.546   3.127  14.518 -0.2690  0.2835  1.0355
  141DOPC   H2Y16664   4.466   2.966  14.547 -0.2693 -0.5167  1.0678
  141DOPC   C2316665   5.088   2.928  14.461  0.1287 -0.3163 -0.6812
  141DOPC   H3R16666   5.024   2.839  14.442 -0.2877 -0.0575 -0.5146
  141DOPC   H3S16667   5.187   2.885  14.488 -0.3184 -0.2924  1.1435
  141DOPC   C2416668   5.097   2.994  14.326  0.2370  0.3683  0.0275
  141DOPC   H4R16669   5.197   3.038  14.302 -0.2851 -0.0462 -3.3343
  141DOPC   H4S16670   5.016   3.067  14.306  0.5493  0.4012 -1.1616
  141DOPC   C2516671   5.068   2.891  14.214  0.4317 -0.1681 -0.4990
  141DOPC   H5R16672   4.970   2.842  14.232 -0.2692  1.1398 -0.6570
  141DOPC   H5S16673   5.139   2.806  14.228  0.3433 -0.0756  0.6174
  141DOPC   C2616674   5.082   2.958  14.078 -1.3697 -0.0245 -0.1828
  141DOPC   H6R16675   5.168   3.029  14.080 -0.7939 -0.7074  0.7895
  141DOPC   H6S16676   4.991   3.021  14.073 -0.0090  2.0793  0.1420
  141DOPC   C2716677   5.098   2.866  13.961  0.4370 -0.2661 -0.4251
  141DOPC   H7R16678   5.015   2.793  13.950  1.4267 -1.1910 -2.1019
  141DOPC   H7S16679   5.186   2.799  13.967 -0.1174 -1.0069 -0.4543
  141DOPC   C2816680   5.126   2.947  13.835  0.2401  0.3099  0.3786
  141DOPC   H8R16681   5.165   2.876  13.760  0.0303  1.0476 -0.4457
  141DOPC   H8S16682   5.206   3.018  13.865 -0.6386  0.8590  1.5242
  141DOPC   C2916683   4.995   3.011  13.804 -0.8309 -0.2252 -0.5536
  141DOPC   H9R16684   4.967   3.104  13.855 -2.8994  0.0615 -2.0943
  141DOPC  C21016685   4.913   2.973  13.706 -0.3010  0.0999 -0.3010
  141DOPC  H10R16686   4.825   3.034  13.683 -0.4159 -0.9535 -3.0585
  141DOPC  C21116687   4.927   2.860  13.598  0.2600  0.3458 -0.3054
  141DOPC  H11R16688   4.832   2.804  13.589  0.8185 -0.5079 -1.1522
  141DOPC  H11S16689   5.007   2.794  13.638 -0.1448 -0.3052 -0.5555
  141DOPC  C21216690   4.957   2.904  13.453  0.7659  1.0017  0.3361
  141DOPC  H12R16691   5.049   2.966  13.443  1.1226  0.5454  0.7906
  141DOPC  H12S16692   4.864   2.954  13.419 -0.2854 -0.3487  1.1572
  141DOPC  C21316693   4.968   2.793  13.349  0.0142  0.7103  0.1599
  141DOPC  H13R16694   4.873   2.734  13.347  1.7878 -2.3595 -2.0114
  141DOPC  H13S16695   5.045   2.721  13.386 -1.1394  0.0395  1.3815
  141DOPC  C21416696   5.005   2.838  13.207  0.0195  0.4113 -1.0482
  141DOPC  H14R16697   5.111   2.873  13.210 -0.2586  1.1875  0.0126
  141DOPC  H14S16698   4.946   2.928  13.179  0.3643  0.9808  0.0079
  141DOPC  C21516699   4.986   2.716  13.111  0.0013  0.1293  0.0050
  141DOPC  H15R16700   4.887   2.701  13.063  0.7006  0.3169 -1.5306
  141DOPC  H15S16701   5.015   2.624  13.166  0.3540  0.6724  0.7546
  141DOPC  C21616702   5.061   2.722  12.980 -0.6889  0.0230  0.2182
  141DOPC  H16R16703   5.035   2.628  12.927 -1.6774  0.5776 -0.3113
  141DOPC  H16S16704   5.170   2.732  13.000 -0.2026 -1.5360 -1.3565
  141DOPC  C21716705   5.003   2.826  12.885  0.2449  0.4147  0.3877
  141DOPC  H17R16706   5.010   2.927  12.930 -0.6918  0.7638 -0.1957
  141DOPC  H17S16707   4.897   2.805  12.856 -0.4373  0.2618  2.7810
  141DOPC  C21816708   5.084   2.848  12.756  0.2655  0.3314 -0.0264
  141DOPC  H18R16709   5.187   2.884  12.777 -0.4026  1.2093  2.0252
  141DOPC  H18S16710   5.028   2.920  12.692  0.6143 -1.4096 -2.4527
  141DOPC  H18T16711   5.098   2.754  12.698 -1.5050  0.4284 -0.6911
  141DOPC   C3316712   4.337   3.134  14.554  0.7756  0.6023  0.3173
  141DOPC   H3X16713   4.346   3.244  14.562 -2.9140  0.9261  2.6778
  141DOPC   H3Y16714   4.264   3.112  14.635 -1.4004  2.3739 -1.0299
  141DOPC   C3416715   4.271   3.095  14.428 -0.3882  0.4814 -0.2184
  141DOPC   H4X16716   4.168   3.138  14.430  0.8057  3.7749  3.1241
  141DOPC   H4Y16717   4.278   2.985  14.423  1.7853  0.5753 -0.4566
  141DOPC   C3516718   4.353   3.140  14.302  0.1000  0.1059  0.0204
  141DOPC   H5X16719   4.453   3.095  14.317  0.0578  0.0246  0.0617
  141DOPC   H5Y16720   4.365   3.251  14.300 -1.5742  0.3165  0.4828
  141DOPC   C3616721   4.286   3.097  14.178 -0.6188 -0.0041  0.4123
  141DOPC   H6X16722   4.369   3.104  14.105  0.8404  0.2340  2.0397
  141DOPC   H6Y16723   4.250   2.993  14.186  0.6789 -0.7021 -1.9832
  141DOPC   C3716724   4.171   3.193  14.135 -0.5750 -0.0922  0.3635
  141DOPC   H7X16725   4.091   3.198  14.212  0.0946 -0.2293  1.0813
  141DOPC   H7Y16726   4.205   3.297  14.117  1.9096 -1.2858 -2.6708
  141DOPC   C3816727   4.115   3.160  14.001  0.1214  0.3500 -0.4457
  141DOPC   H8X16728   4.037   3.234  13.973 -0.2101  0.2064  0.0871
  141DOPC   H8Y16729   4.069   3.060  14.005  1.9650 -0.5162  0.1541
  141DOPC   C3916730   4.221   3.167  13.888 -0.5694 -0.1887  0.0241
  141DOPC   H9X16731   4.312   3.220  13.919  0.3657 -0.1825 -2.4599
  141DOPC  C31016732   4.221   3.123  13.767  0.1206  0.4917 -0.0321
  141DOPC  H10X16733   4.320   3.110  13.721  0.7201  3.6174  0.1674
  141DOPC  C31116734   4.103   3.061  13.706  0.5270  0.0777 -0.1558
  141DOPC  H11X16735   4.012   3.121  13.727  1.3028  0.5426  2.0644
  141DOPC  H11Y16736   4.077   2.964  13.754  0.5202  0.1914  0.0687
  141DOPC  C31216737   4.108   3.044  13.549 -0.3055  0.1531  0.2144
  141DOPC  H12X16738   4.018   2.993  13.509  0.7918 -1.0519 -0.7996
  141DOPC  H12Y16739   4.197   2.982  13.523  0.9889  1.7340  0.6663
  141DOPC  C31316740   4.121   3.173  13.474  0.1598 -0.5153  0.1786
  141DOPC  H13X16741   4.038   3.240  13.503  1.3156  0.9605  0.2085
  141DOPC  H13Y16742   4.212   3.227  13.507 -0.5004 -1.0828  3.2062
  141DOPC  C31416743   4.112   3.166  13.324 -0.2637 -0.0894 -0.2914
  141DOPC  H14X16744   4.142   3.066  13.286  1.0863  0.7784 -1.6414
  141DOPC  H14Y16745   4.007   3.177  13.288  0.0626  0.3246 -1.1447
  141DOPC  C31516746   4.194   3.270  13.257  0.4095  0.0400  0.5777
  141DOPC  H15X16747   4.302   3.247  13.252  0.4779  0.6139 -2.8044
  141DOPC  H15Y16748   4.182   3.363  13.316  1.0656  0.7942 -0.4413
  141DOPC  C31616749   4.147   3.296  13.118  0.2383  0.0319  0.1553
  141DOPC  H16X16750   4.045   3.340  13.110  0.3461  0.0489 -1.6309
  141DOPC  H16Y16751   4.216   3.375  13.081  0.0959  2.4017  4.3439
  141DOPC  C31716752   4.165   3.173  13.026  0.9046 -0.4057  0.2335
  141DOPC  H17X16753   4.274   3.161  13.009  1.4533 -0.3464  3.2011
  141DOPC  H17Y16754   4.128   3.078  13.069  0.0560 -0.8420 -1.3816
  141DOPC  C31816755   4.090   3.194  12.892  0.3124 -0.6385 -0.2882
  141DOPC  H18X16756   4.117   3.118  12.816  2.1970 -0.6954  0.4064
  141DOPC  H18Y16757   3.979   3.197  12.895  0.2490 -2.1926 -0.5815
  141DOPC  H18Z16758   4.128   3.287  12.844  1.0622 -0.9978 -0.3935
  142DOPC     N16759   5.602   2.942  15.150  0.0991 -0.0471 -0.7497
  142DOPC   C1216760   5.593   2.859  15.019  0.4973 -0.0187  0.1135
  142DOPC  H12A16761   5.589   2.921  14.931 -1.3723 -0.4102 -0.1344
  142DOPC  H12B16762   5.499   2.804  15.022  1.4953 -1.8842 -0.9081
  142DOPC   C1316763   5.603   2.848  15.262  0.7716 -0.0948 -0.3301
  142DOPC  H13A16764   5.600   2.911  15.350  2.8026 -1.1222  0.5563
  142DOPC  H13B16765   5.517   2.783  15.255 -1.5061  2.6167  0.6960
  142DOPC  H13C16766   5.698   2.797  15.268  0.8064 -0.2728 -1.9940
  142DOPC   C1416767   5.488   3.032  15.156  0.8235 -0.3818 -0.0550
  142DOPC  H14A16768   5.485   3.086  15.249 -1.2159 -2.1743  1.0009
  142DOPC  H14B16769   5.500   3.114  15.086 -0.4321 -0.3610 -0.2694
  142DOPC  H14C16770   5.391   2.988  15.138  0.1905  0.6664  0.7192
  142DOPC   C1516771   5.725   3.027  15.154 -0.3675  0.3403 -0.6156
  142DOPC  H15A16772   5.717   3.093  15.068  0.1172  2.0568  0.6118
  142DOPC  H15B16773   5.820   2.977  15.159 -0.6727 -0.3172 -1.1800
  142DOPC  H15C16774   5.711   3.094  15.237 -1.8780 -0.9100  0.1967
  142DOPC   C1116775   5.710   2.760  14.993 -0.3216  0.2903 -0.7593
  142DOPC  H11A16776   5.693   2.735  14.886  0.1410  2.8864 -1.5166
  142DOPC  H11B16777   5.805   2.816  15.004 -0.8270  0.8255  1.4461
  142DOPC     P16778   5.632   2.518  15.056 -0.2578 -0.0989  0.0058
  142DOPC   O1316779   5.489   2.544  15.032  0.1957  0.3995 -1.0733
  142DOPC   O1416780   5.668   2.407  15.148 -0.2140  0.6028 -0.3046
  142DOPC   O1216781   5.711   2.649  15.090  0.4873  0.1295 -0.1483
  142DOPC   O1116782   5.681   2.489  14.911  0.2756 -0.1775 -0.4160
  142DOPC    C116783   5.791   2.409  14.871  0.5847  0.3302  0.0014
  142DOPC    HA16784   5.756   2.320  14.815 -0.5712  1.4105 -1.0309
  142DOPC    HB16785   5.847   2.383  14.964 -0.6819  0.9600  0.9829
  142DOPC    C216786   5.888   2.493  14.779  0.1558 -0.0374 -0.3763
  142DOPC    HS16787   5.908   2.593  14.823 -0.2221  0.4077 -1.1960
  142DOPC   O2116788   5.817   2.502  14.656 -0.1335  0.4718 -0.0421
  142DOPC   C2116789   5.873   2.579  14.566  0.3229  0.1510 -0.2625
  142DOPC   O2216790   5.972   2.646  14.589  0.1220 -0.1051 -0.3127
  142DOPC   C2216791   5.805   2.571  14.424  0.5015  0.2568 -0.4121
  142DOPC   H2R16792   5.708   2.621  14.445  0.0038 -0.7510 -0.2736
  142DOPC   H2S16793   5.782   2.465  14.404 -1.2442  0.4893  0.2247
  142DOPC    C316794   6.016   2.404  14.758  0.4591 -0.3269 -0.1151
  142DOPC    HX16795   6.074   2.414  14.852 -0.3901  1.0217  0.3043
  142DOPC    HY16796   6.077   2.447  14.676 -2.3331  2.1608 -1.1020
  142DOPC   O3116797   5.981   2.269  14.734 -0.0600  0.1919  0.2620
  142DOPC   C3116798   6.083   2.197  14.685 -0.2408  0.2428 -0.5945
  142DOPC   O3216799   6.201   2.232  14.667  0.2463  0.1042 -0.4976
  142DOPC   C3216800   6.013   2.062  14.656  0.1129  0.1283  0.1300
  142DOPC   H2X16801   6.088   1.989  14.618  0.4095  1.1940 -1.4171
  142DOPC   H2Y16802   5.975   2.024  14.754  1.7594 -1.3237  0.2579
  142DOPC   C2316803   5.884   2.635  14.313 -1.0319 -0.5642 -0.6995
  142DOPC   H3R16804   5.922   2.732  14.352 -1.7775 -0.7151  0.4670
  142DOPC   H3S16805   5.811   2.652  14.232 -1.7013 -1.7666 -0.3756
  142DOPC   C2416806   6.012   2.555  14.285 -0.8381  0.3739  0.3596
  142DOPC   H4R16807   5.975   2.464  14.234 -2.0870  1.7158 -1.2551
  142DOPC   H4S16808   6.072   2.527  14.374 -2.1990  1.5142  1.6997
  142DOPC   C2516809   6.095   2.628  14.176 -0.9202  0.5040  0.4232
  142DOPC   H5R16810   6.151   2.549  14.121 -0.0859  1.6713 -0.4557
  142DOPC   H5S16811   6.166   2.700  14.222 -1.8043  0.3859  2.0320
  142DOPC   C2616812   6.021   2.714  14.073  0.5680  0.0262  0.5415
  142DOPC   H6R16813   5.959   2.789  14.126  0.9508 -0.2226  1.3629
  142DOPC   H6S16814   5.944   2.655  14.019 -0.6871  2.0449  0.0249
  142DOPC   C2716815   6.098   2.786  13.961 -0.8293  0.5645  0.0386
  142DOPC   H7R16816   6.170   2.708  13.926  2.0146  2.9189  0.3197
  142DOPC   H7S16817   6.160   2.860  14.015  0.4720  0.1136 -0.7952
  142DOPC   C2816818   6.004   2.838  13.849 -0.1495 -0.0417 -0.4849
  142DOPC   H8R16819   5.948   2.922  13.896  3.4664  2.7357 -0.6248
  142DOPC   H8S16820   5.936   2.757  13.817 -0.2622 -1.7870  3.5111
  142DOPC   C2916821   6.079   2.908  13.742 -0.1784  0.2098  0.1419
  142DOPC   H9R16822   6.065   3.017  13.737 -2.2272  0.0034  0.4761
  142DOPC  C21016823   6.153   2.860  13.647  0.3720  0.4978  0.0874
  142DOPC  H10R16824   6.222   2.926  13.593 -0.5346  1.6085  0.2632
  142DOPC  C21116825   6.191   2.713  13.632  0.7509 -0.1320  1.0476
  142DOPC  H11R16826   6.121   2.640  13.679  0.5756  0.3859  1.6028
  142DOPC  H11S16827   6.290   2.691  13.679  1.3763 -1.5059 -0.7959
  142DOPC  C21216828   6.211   2.680  13.483  0.9116  0.0255  0.8777
  142DOPC  H12R16829   6.291   2.743  13.438 -1.4055  2.0941 -0.6745
  142DOPC  H12S16830   6.121   2.698  13.420  1.2126  0.9115  0.6794
  142DOPC  C21316831   6.248   2.538  13.451 -0.1514  0.0148  0.4556
  142DOPC  H13R16832   6.174   2.458  13.474  0.3221 -1.2091 -1.9191
  142DOPC  H13S16833   6.345   2.530  13.504 -0.2614  1.4795  0.9293
  142DOPC  C21416834   6.286   2.512  13.303  0.3550  0.4946  0.0306
  142DOPC  H14R16835   6.334   2.600  13.256 -0.1893  0.0728 -1.3851
  142DOPC  H14S16836   6.199   2.491  13.237 -0.2344  2.9269 -0.0464
  142DOPC  C21516837   6.381   2.391  13.293  0.1784 -0.3312 -0.8190
  142DOPC  H15R16838   6.464   2.399  13.366  1.3125 -1.5118 -1.9368
  142DOPC  H15S16839   6.436   2.408  13.198 -0.3090  0.0545 -1.0440
  142DOPC  C21616840   6.302   2.257  13.295  0.0326 -0.1159  0.1326
  142DOPC  H16R16841   6.210   2.269  13.234  0.2703  0.3436 -0.1381
  142DOPC  H16S16842   6.262   2.243  13.398  0.7889  2.9240  0.9363
  142DOPC  C21716843   6.396   2.133  13.265  1.1800  0.2057 -0.5427
  142DOPC  H17R16844   6.467   2.120  13.349 -1.3393 -2.1917  1.3935
  142DOPC  H17S16845   6.447   2.148  13.167  0.4959 -1.6656 -1.2311
  142DOPC  C21816846   6.312   2.003  13.255 -0.3111 -0.4582  0.3221
  142DOPC  H18R16847   6.247   1.993  13.345  1.0623  1.6900  1.6186
  142DOPC  H18S16848   6.371   1.909  13.246 -0.5592 -0.4584 -1.7228
  142DOPC  H18T16849   6.242   2.013  13.169 -0.4676 -0.6642  0.4227
  142DOPC   C3316850   5.892   2.069  14.560  0.7254  0.1732 -0.1545
  142DOPC   H3X16851   5.834   2.160  14.589  1.5699  1.1595 -1.4480
  142DOPC   H3Y16852   5.830   1.977  14.568 -1.1931  1.3790 -0.5196
  142DOPC   C3416853   5.932   2.098  14.417 -0.3485 -0.8556  0.0702
  142DOPC   H4X16854   5.963   2.003  14.369 -0.1697 -0.7451 -0.0355
  142DOPC   H4Y16855   6.013   2.174  14.421 -0.4675 -0.7557  0.8417
  142DOPC   C3516856   5.824   2.146  14.324 -0.4707 -0.1048 -0.1854
  142DOPC   H5X16857   5.771   2.237  14.360 -0.8057 -0.8451  1.2502
  142DOPC   H5Y16858   5.747   2.068  14.313  1.6440 -2.1244 -1.4632
  142DOPC   C3616859   5.870   2.178  14.181 -0.6856  0.0290 -0.0938
  142DOPC   H6X16860   5.977   2.208  14.192 -0.7891  1.2800 -2.0683
  142DOPC   H6Y16861   5.868   2.085  14.120  2.3926 -0.5030  0.4551
  142DOPC   C3716862   5.779   2.289  14.113  0.1733 -0.6542 -0.3084
  142DOPC   H7X16863   5.679   2.242  14.117  0.0727 -0.3557  1.9729
  142DOPC   H7Y16864   5.784   2.377  14.180  0.5563 -0.3138 -0.7713
  142DOPC   C3816865   5.810   2.330  13.971  0.1684 -0.5530  0.0831
  142DOPC   H8X16866   5.917   2.361  13.967 -0.5744  2.6186  2.0361
  142DOPC   H8Y16867   5.754   2.418  13.933 -1.0598 -0.4791  1.9410
  142DOPC   C3916868   5.787   2.218  13.870  0.1240 -0.0675  0.5470
  142DOPC   H9X16869   5.761   2.118  13.908 -2.2358  0.9373  1.7995
  142DOPC  C31016870   5.766   2.235  13.738 -1.0361  0.7888 -0.3673
  142DOPC  H10X16871   5.753   2.157  13.661  0.0872  1.3203 -1.1379
  142DOPC  C31116872   5.774   2.369  13.675 -0.5468 -0.0481  0.3902
  142DOPC  H11X16873   5.813   2.455  13.734 -0.0985 -0.1309  0.2107
  142DOPC  H11Y16874   5.674   2.411  13.650 -1.3789 -0.2990  3.0117
  142DOPC  C31216875   5.861   2.372  13.545 -0.1581 -0.4146 -0.0612
  142DOPC  H12X16876   5.812   2.301  13.475  1.2242 -0.6157 -0.8770
  142DOPC  H12Y16877   5.965   2.334  13.559 -0.4650 -0.6226  1.9251
  142DOPC  C31316878   5.858   2.505  13.468 -0.8410  0.4610 -0.0136
  142DOPC  H13X16879   5.892   2.581  13.541 -0.2398  0.2277 -0.0402
  142DOPC  H13Y16880   5.933   2.511  13.386 -0.5838  4.7118  0.3434
  142DOPC  C31416881   5.725   2.528  13.392 -0.1477  0.2052 -0.7314
  142DOPC  H14X16882   5.733   2.467  13.300  1.9211 -4.0476  1.9796
  142DOPC  H14Y16883   5.637   2.492  13.450  1.0794 -2.1202 -0.2326
  142DOPC  C31516884   5.691   2.674  13.361  0.9958  0.3481  0.0299
  142DOPC  H15X16885   5.598   2.676  13.300  1.5802  1.9187 -0.8388
  142DOPC  H15Y16886   5.776   2.719  13.307  1.0417 -0.2159 -0.3707
  142DOPC  C31616887   5.663   2.749  13.494 -0.6584 -0.7274 -0.2262
  142DOPC  H16X16888   5.757   2.766  13.550  0.3488 -0.9879 -1.7682
  142DOPC  H16Y16889   5.640   2.857  13.481  0.1989  0.0321  3.4895
  142DOPC  C31716890   5.546   2.691  13.573  0.2048  0.8150  0.4697
  142DOPC  H17X16891   5.478   2.635  13.506 -0.4218 -0.6401  2.2412
  142DOPC  H17Y16892   5.581   2.615  13.646 -0.0865 -0.6157 -0.8125
  142DOPC  C31816893   5.454   2.795  13.635  0.0613  0.0459  0.3359
  142DOPC  H18X16894   5.430   2.880  13.568 -0.8614 -0.4446  0.0218
  142DOPC  H18Y16895   5.361   2.741  13.664  0.4318  0.8249  3.2801
  142DOPC  H18Z16896   5.482   2.821  13.739 -2.2466  0.9862  0.7748
  143DOPC     N16897   4.253   3.556  15.402 -0.3653  0.3512  0.1366
  143DOPC   C1216898   4.245   3.599  15.255  0.2241 -0.7701  0.2892
  143DOPC  H12A16899   4.304   3.525  15.202 -1.1214 -1.7868  0.1548
  143DOPC  H12B16900   4.301   3.691  15.250  0.3475 -0.4093  4.6337
  143DOPC   C1316901   4.389   3.564  15.448 -0.5631 -0.2596 -0.4359
  143DOPC  H13A16902   4.403   3.535  15.551  1.1983 -1.2067 -0.8953
  143DOPC  H13B16903   4.449   3.500  15.385 -0.8385 -0.4482 -0.5090
  143DOPC  H13C16904   4.431   3.664  15.445  1.0959 -0.8330  1.5671
  143DOPC   C1416905   4.204   3.420  15.420 -0.5125  0.7691  0.1235
  143DOPC  H14A16906   4.273   3.361  15.362 -0.3313  2.4567 -1.4723
  143DOPC  H14B16907   4.195   3.395  15.525  0.9079  1.9959  0.5856
  143DOPC  H14C16908   4.105   3.416  15.379  0.4486  0.8876 -2.3318
  143DOPC   C1516909   4.162   3.648  15.483  0.4388 -0.2425 -0.3146
  143DOPC  H15A16910   4.174   3.755  15.475 -2.5738  0.1621 -0.5305
  143DOPC  H15B16911   4.170   3.623  15.588  1.7141 -0.8684 -0.5375
  143DOPC  H15C16912   4.058   3.633  15.458  0.0793  0.9258  0.4024
  143DOPC   C1116913   4.103   3.611  15.184  0.2140  0.0954  0.1113
  143DOPC  H11A16914   4.126   3.636  15.079  1.1440  1.6696  0.6584
  143DOPC  H11B16915   4.061   3.508  15.184 -1.0745  0.5519 -2.1821
  143DOPC     P16916   3.976   3.837  15.193  0.1039 -0.2306  0.2380
  143DOPC   O1316917   4.098   3.915  15.178  0.2948  0.6779 -0.8102
  143DOPC   O1416918   3.865   3.890  15.274  0.2489 -0.1991  0.2074
  143DOPC   O1216919   4.015   3.699  15.255  0.0475  0.1683  0.1708
  143DOPC   O1116920   3.916   3.786  15.052  0.8538 -0.1922 -0.4563
  143DOPC    C116921   3.810   3.685  15.052  0.2411 -0.1864  0.7763
  143DOPC    HA16922   3.740   3.704  15.136  0.9586  0.7368  1.1761
  143DOPC    HB16923   3.849   3.583  15.073 -1.1438 -0.7539  0.7050
  143DOPC    C216924   3.741   3.671  14.915  0.4370  0.6991  0.3606
  143DOPC    HS16925   3.668   3.588  14.915  0.0041  1.0189 -1.7511
  143DOPC   O2116926   3.841   3.650  14.809  0.4555  0.5331 -0.2453
  143DOPC   C2116927   3.888   3.523  14.805 -0.1752 -0.0213  0.3095
  143DOPC   O2216928   3.844   3.430  14.870  0.6861  0.0763  0.4515
  143DOPC   C2216929   3.993   3.512  14.685 -0.5609 -0.3253  0.7001
  143DOPC   H2R16930   4.087   3.485  14.738 -0.2604  3.5568  2.4728
  143DOPC   H2S16931   4.017   3.614  14.648  1.9714 -1.7007 -1.8762
  143DOPC    C316932   3.658   3.799  14.883  0.3865  0.1986  0.4466
  143DOPC    HX16933   3.722   3.888  14.901  0.1291  0.3088  0.8089
  143DOPC    HY16934   3.566   3.798  14.945  0.4684 -2.1776  0.6499
  143DOPC   O3116935   3.611   3.804  14.745 -0.2982 -0.2151 -0.5559
  143DOPC   C3116936   3.696   3.850  14.656  0.2180 -0.3399  0.0041
  143DOPC   O3216937   3.812   3.883  14.676  0.2114 -0.3234 -0.0599
  143DOPC   C3216938   3.619   3.863  14.523 -0.2772  0.2078 -0.1998
  143DOPC   H2X16939   3.536   3.790  14.515  0.9737 -1.1685 -1.2429
  143DOPC   H2Y16940   3.585   3.967  14.504  3.0272  0.8819 -3.7123
  143DOPC   C2316941   3.958   3.403  14.580  0.1189 -0.6857  0.6476
  143DOPC   H3R16942   3.935   3.311  14.637  0.1650  0.1090  1.9793
  143DOPC   H3S16943   4.040   3.370  14.513  0.7806  1.3500  0.3901
  143DOPC   C2416944   3.845   3.455  14.490 -0.4680  0.4374  0.5718
  143DOPC   H4R16945   3.878   3.550  14.444  1.4169  0.2715  1.4843
  143DOPC   H4S16946   3.752   3.479  14.546 -0.3175 -0.8621  1.4185
  143DOPC   C2516947   3.827   3.355  14.376 -1.0587  0.6675 -0.4832
  143DOPC   H5R16948   3.766   3.273  14.419  0.8887 -1.1977 -1.0961
  143DOPC   H5S16949   3.924   3.314  14.339  0.4891  1.6211  2.2707
  143DOPC   C2616950   3.745   3.416  14.264  0.6762 -0.0404 -0.0077
  143DOPC   H6R16951   3.816   3.477  14.204  3.4984 -2.0311  1.1110
  143DOPC   H6S16952   3.671   3.488  14.304 -0.0866  0.4230 -2.1149
  143DOPC   C2716953   3.668   3.318  14.170  0.0989 -0.4435  0.2389
  143DOPC   H7R16954   3.585   3.268  14.225  1.1689 -2.0604  0.4322
  143DOPC   H7S16955   3.738   3.236  14.142 -0.4604 -1.2367  1.0947
  143DOPC   C2816956   3.623   3.385  14.035 -0.6719 -0.1563  0.0794
  143DOPC   H8R16957   3.568   3.473  14.075  0.1357 -0.0047  0.8765
  143DOPC   H8S16958   3.546   3.321  13.985 -1.2943 -0.0347  0.8561
  143DOPC   C2916959   3.743   3.416  13.952 -0.1960  0.2531  0.1470
  143DOPC   H9R16960   3.819   3.475  14.005 -1.9845  1.8753  1.0170
  143DOPC  C21016961   3.745   3.402  13.820 -0.0463 -0.6698  0.0867
  143DOPC  H10R16962   3.837   3.425  13.765 -0.8030 -2.0035 -1.8576
  143DOPC  C21116963   3.637   3.343  13.729 -0.0213 -0.3802 -0.2608
  143DOPC  H11R16964   3.533   3.373  13.755  0.2463 -1.0943  1.8182
  143DOPC  H11S16965   3.637   3.232  13.735  0.8256 -0.4100 -0.6091
  143DOPC  C21216966   3.673   3.372  13.582 -0.6092  0.0842  0.2540
  143DOPC  H12R16967   3.783   3.365  13.566 -0.7754 -0.8323 -0.5677
  143DOPC  H12S16968   3.643   3.478  13.568 -0.7943 -0.1888 -1.7104
  143DOPC  C21316969   3.609   3.280  13.474  0.2668  0.2317  0.1354
  143DOPC  H13R16970   3.500   3.286  13.494  0.0781 -0.2090 -0.7131
  143DOPC  H13S16971   3.639   3.180  13.512  0.1493  0.7398  1.6339
  143DOPC  C21416972   3.649   3.305  13.324 -0.0735 -0.4930 -0.3190
  143DOPC  H14R16973   3.586   3.236  13.264 -1.1844  1.3650 -1.3961
  143DOPC  H14S16974   3.752   3.272  13.298  0.9234  0.1524  2.4038
  143DOPC  C21516975   3.616   3.444  13.266  0.5490 -0.2949  0.0143
  143DOPC  H15R16976   3.688   3.518  13.309  1.5602 -0.8008 -0.7658
  143DOPC  H15S16977   3.514   3.479  13.292  0.7623  1.2179 -1.0706
  143DOPC  C21616978   3.619   3.444  13.112  0.7869  0.4784 -0.3071
  143DOPC  H16R16979   3.578   3.350  13.070 -0.8611  1.0322 -0.0075
  143DOPC  H16S16980   3.726   3.452  13.086  1.6147  0.8323  2.8034
  143DOPC  C21716981   3.533   3.549  13.045  0.0179 -0.2596 -0.2171
  143DOPC  H17R16982   3.553   3.649  13.088  0.7258 -0.9442  1.1088
  143DOPC  H17S16983   3.426   3.528  13.067  0.0117  0.4655  0.4646
  143DOPC  C21816984   3.554   3.555  12.893 -0.3661  1.1291 -0.6493
  143DOPC  H18R16985   3.662   3.538  12.871 -0.3531 -0.6689  0.5989
  143DOPC  H18S16986   3.516   3.652  12.856 -0.0595  1.0548 -1.1711
  143DOPC  H18T16987   3.501   3.472  12.842  1.4694 -1.0651  0.8069
  143DOPC   C3316988   3.711   3.841  14.399 -0.5555  0.2090 -0.2692
  143DOPC   H3X16989   3.736   3.733  14.390 -2.7076 -0.3143 -0.5253
  143DOPC   H3Y16990   3.804   3.901  14.415  0.1466 -0.4785 -1.6205
  143DOPC   C3416991   3.646   3.875  14.271 -0.4907  0.3828 -0.0373
  143DOPC   H4X16992   3.640   3.985  14.264  0.7557  0.4567 -0.1561
  143DOPC   H4Y16993   3.541   3.838  14.269 -0.7192  1.0595 -0.9789
  143DOPC   C3516994   3.718   3.815  14.152  0.0377  0.1935 -0.4970
  143DOPC   H5X16995   3.705   3.705  14.157  1.5364  0.0341  0.5737
  143DOPC   H5Y16996   3.828   3.826  14.160  0.0617 -0.3997  0.0782
  143DOPC   C3616997   3.673   3.878  14.023  0.7407  0.0048  1.3005
  143DOPC   H6X16998   3.564   3.859  14.013  1.1328 -1.8039 -0.1787
  143DOPC   H6Y16999   3.712   3.981  14.006  3.3840 -1.4624 -3.8265
  143DOPC   C3717000   3.732   3.805  13.899 -0.0754  0.4069  0.2045
  143DOPC   H7X17001   3.842   3.810  13.903 -0.1110  1.5354  0.2107
  143DOPC   H7Y17002   3.707   3.698  13.913  0.3376  0.2161 -0.4471
  143DOPC   C3817003   3.668   3.847  13.764  0.2645 -0.6610  0.4266
  143DOPC   H8X17004   3.578   3.910  13.779  2.0569  1.8676  1.2714
  143DOPC   H8Y17005   3.619   3.762  13.713  0.4557  0.3981 -1.6329
  143DOPC   C3917006   3.756   3.925  13.660  0.2085 -0.5256 -0.4207
  143DOPC   H9X17007   3.797   4.021  13.696 -1.4902  0.1038 -0.0781
  143DOPC  C31017008   3.775   3.890  13.531 -0.1409  0.0428 -0.4783
  143DOPC  H10X17009   3.822   3.962  13.462  0.3857 -0.0396 -0.2138
  143DOPC  C31117010   3.717   3.772  13.459 -0.6194 -0.2913 -0.6968
  143DOPC  H11X17011   3.692   3.687  13.526  0.6825  0.4600  0.8046
  143DOPC  H11Y17012   3.783   3.738  13.376  3.8392  2.3258  1.4355
  143DOPC  C31217013   3.572   3.797  13.406 -0.1647  0.2077 -0.0683
  143DOPC  H12X17014   3.505   3.823  13.490 -0.2675 -0.0026 -0.0855
  143DOPC  H12Y17015   3.535   3.699  13.368  1.1688 -0.8255  1.1902
  143DOPC  C31317016   3.554   3.901  13.298  0.0201 -0.2657 -0.5112
  143DOPC  H13X17017   3.455   3.889  13.249 -0.5793 -4.0828  1.2900
  143DOPC  H13Y17018   3.553   4.003  13.343  0.3510 -0.0252 -1.0325
  143DOPC  C31417019   3.659   3.912  13.196  0.2080  1.1326 -0.0828
  143DOPC  H14X17020   3.755   3.936  13.246 -2.4757  3.4757  4.5813
  143DOPC  H14Y17021   3.659   3.809  13.153 -1.8825  1.6343 -1.3901
  143DOPC  C31517022   3.632   4.008  13.078 -0.5929 -0.0226  1.0539
  143DOPC  H15X17023   3.728   4.038  13.033  0.3958 -4.4254 -0.2486
  143DOPC  H15Y17024   3.595   4.107  13.113 -0.9819  0.2972 -0.2062
  143DOPC  C31617025   3.531   3.963  12.971  0.5583  0.0190  0.1743
  143DOPC  H16X17026   3.550   3.861  12.932 -0.4168 -0.1568  0.1388
  143DOPC  H16Y17027   3.430   3.962  13.017 -0.5015  0.8880 -2.0084
  143DOPC  C31717028   3.522   4.040  12.842  0.4913 -0.8886  0.0801
  143DOPC  H17X17029   3.433   3.997  12.792 -0.1693 -0.0170  0.4788
  143DOPC  H17Y17030   3.502   4.149  12.855 -0.1011 -0.8805 -0.8057
  143DOPC  C31817031   3.642   4.025  12.759 -0.9400  0.0303 -0.9361
  143DOPC  H18X17032   3.678   3.921  12.759 -0.2837  0.2533 -0.1002
  143DOPC  H18Y17033   3.636   4.070  12.657 -4.9605 -0.5898 -1.1509
  143DOPC  H18Z17034   3.731   4.070  12.807 -0.2766 -0.0140 -2.0714
  144DOPC     N17035   2.949   2.724  15.059  0.0183  0.1109 -0.0278
  144DOPC   C1217036   3.011   2.700  14.921  0.1821 -0.3428  0.2110
  144DOPC  H12A17037   2.937   2.665  14.851  1.3738 -0.9859 -0.7534
  144DOPC  H12B17038   3.076   2.614  14.929  0.1529 -0.2055  3.2094
  144DOPC   C1317039   3.051   2.757  15.157 -0.5031  0.0776  0.5228
  144DOPC  H13A17040   3.030   2.789  15.258 -0.6204  2.5925 -0.2326
  144DOPC  H13B17041   3.113   2.670  15.174 -0.2461  0.4537  1.6316
  144DOPC  H13C17042   3.113   2.837  15.119 -1.1931 -0.2643 -1.4136
  144DOPC   C1417043   2.884   2.595  15.100 -0.2295 -0.6101  0.1199
  144DOPC  H14A17044   2.872   2.596  15.208 -0.9079  3.2028  0.1598
  144DOPC  H14B17045   2.790   2.576  15.050  1.0163 -0.0527 -2.6177
  144DOPC  H14C17046   2.959   2.519  15.082  1.8452  1.5326 -0.8456
  144DOPC   C1517047   2.841   2.831  15.062 -0.4399 -0.4608  0.3909
  144DOPC  H15A17048   2.815   2.870  15.159 -1.0893 -2.0102  0.8609
  144DOPC  H15B17049   2.755   2.810  15.000  1.0730 -0.0110 -1.9916
  144DOPC  H15C17050   2.891   2.911  15.010 -0.3685 -0.0044  1.1468
  144DOPC   C1117051   3.084   2.822  14.863  0.7068  0.1474 -0.1410
  144DOPC  H11A17052   3.084   2.817  14.752 -2.1920 -0.3294 -0.2092
  144DOPC  H11B17053   3.031   2.916  14.891  2.8576  2.1601 -2.3281
  144DOPC     P17054   3.332   2.740  14.856 -0.2610 -0.3333 -0.1247
  144DOPC   O1317055   3.281   2.603  14.843 -0.0859  0.6457 -0.0416
  144DOPC   O1417056   3.459   2.757  14.931  0.0140  0.0383  0.3224
  144DOPC   O1217057   3.216   2.829  14.918 -0.2774 -0.3726 -0.3357
  144DOPC   O1117058   3.360   2.799  14.714 -0.0930  0.0418  0.0616
  144DOPC    C117059   3.350   2.931  14.675  0.4966  0.4569  0.0078
  144DOPC    HA17060   3.384   3.004  14.751 -2.2418  1.6722  0.1777
  144DOPC    HB17061   3.240   2.942  14.665  0.1583 -0.6025  1.9183
  144DOPC    C217062   3.414   2.964  14.534 -0.1761 -0.1051  0.8853
  144DOPC    HS17063   3.396   3.073  14.518  0.7412 -0.1093 -0.3409
  144DOPC   O2117064   3.354   2.888  14.429  0.5746 -0.4013  0.0801
  144DOPC   C2117065   3.228   2.907  14.401 -0.0314  0.3246  0.2208
  144DOPC   O2217066   3.151   2.988  14.450 -0.1379 -0.0567 -0.3033
  144DOPC   C2217067   3.185   2.815  14.290 -0.0822 -0.3363  0.7330
  144DOPC   H2R17068   3.098   2.859  14.237  0.3967 -0.5279 -0.2461
  144DOPC   H2S17069   3.156   2.714  14.327 -2.3349 -0.3112 -0.7179
  144DOPC    C317070   3.567   2.926  14.538  0.7058  0.0211 -0.0056
  144DOPC    HX17071   3.582   2.819  14.562 -2.7363 -1.1790 -2.3350
  144DOPC    HY17072   3.613   2.973  14.628  1.2413 -0.3262 -0.0961
  144DOPC   O3117073   3.632   2.965  14.413 -0.2303 -0.0560  0.0625
  144DOPC   C3117074   3.762   2.934  14.409 -0.3081 -0.4739  0.3250
  144DOPC   O3217075   3.825   2.891  14.503  0.3119  0.0252  0.3284
  144DOPC   C3217076   3.822   2.966  14.268  0.7729  0.5881 -0.4276
  144DOPC   H2X17077   3.855   3.072  14.269  0.1129  0.8131  1.3746
  144DOPC   H2Y17078   3.908   2.901  14.242  1.2415  0.3566  1.5179
  144DOPC   C2317079   3.302   2.784  14.188  0.5675  0.3425 -0.4705
  144DOPC   H3R17080   3.264   2.691  14.141  1.1259  0.1395 -0.5287
  144DOPC   H3S17081   3.393   2.756  14.246  1.7866  1.6133 -1.7030
  144DOPC   C2417082   3.324   2.884  14.072  0.1102  0.6075 -0.1862
  144DOPC   H4R17083   3.384   2.837  13.992 -0.4147  1.1582 -0.9161
  144DOPC   H4S17084   3.391   2.966  14.106  0.6443 -0.0492  0.3824
  144DOPC   C2517085   3.201   2.951  14.011  0.3404  0.0799 -0.3541
  144DOPC   H5R17086   3.171   3.026  14.088  1.0337  0.3933 -0.3807
  144DOPC   H5S17087   3.116   2.882  13.993  0.1238  0.8011 -2.3108
  144DOPC   C2617088   3.208   3.024  13.878 -0.0047  0.1589 -0.3433
  144DOPC   H6R17089   3.287   3.102  13.877 -0.5732  0.7685  0.6308
  144DOPC   H6S17090   3.106   3.063  13.858  0.0828 -0.2665 -1.7105
  144DOPC   C2717091   3.240   2.920  13.760  0.0215 -0.1549  0.2260
  144DOPC   H7R17092   3.173   2.832  13.757  1.1094 -1.0064  0.1050
  144DOPC   H7S17093   3.338   2.871  13.777 -0.0451 -1.0438 -1.6977
  144DOPC   C2817094   3.254   2.987  13.619  0.0754 -0.1172 -0.3730
  144DOPC   H8R17095   3.301   2.906  13.560 -2.2082 -1.9851  0.2392
  144DOPC   H8S17096   3.337   3.061  13.632 -0.1342  0.3023 -1.3399
  144DOPC   C2917097   3.130   3.045  13.548 -0.2794 -0.5250 -0.2578
  144DOPC   H9R17098   3.036   3.020  13.601  0.4951 -3.4031 -0.0757
  144DOPC  C21017099   3.140   3.110  13.430  0.1376  0.0235 -0.3174
  144DOPC  H10R17100   3.056   3.174  13.401 -0.8282 -0.8040  0.5920
  144DOPC  C21117101   3.273   3.143  13.366  0.0377  0.4035  0.6597
  144DOPC  H11R17102   3.361   3.084  13.401  1.7187  1.2615 -1.8844
  144DOPC  H11S17103   3.300   3.249  13.389  0.3397  0.7353 -1.1326
  144DOPC  C21217104   3.260   3.112  13.216 -0.2481  0.3554  0.1173
  144DOPC  H12R17105   3.221   3.010  13.199  1.7916 -0.2605 -1.3050
  144DOPC  H12S17106   3.362   3.102  13.172 -1.7613 -0.9063 -3.4715
  144DOPC  C21317107   3.189   3.227  13.128 -0.3008 -0.4836  0.2624
  144DOPC  H13R17108   3.253   3.317  13.141  0.6730 -1.1772  0.3317
  144DOPC  H13S17109   3.091   3.251  13.175 -0.6405 -1.1883 -0.0718
  144DOPC  C21417110   3.168   3.197  12.979 -0.2667  0.2166 -0.3577
  144DOPC  H14R17111   3.265   3.210  12.928 -0.3473 -0.3398 -0.6516
  144DOPC  H14S17112   3.107   3.284  12.948 -0.1416  0.2259 -0.5785
  144DOPC  C21517113   3.100   3.062  12.964  0.4364 -0.4597 -0.5430
  144DOPC  H15R17114   3.003   3.062  13.020  0.7613  0.3835  0.0473
  144DOPC  H15S17115   3.174   2.983  12.990  0.2547 -1.4487 -2.8503
  144DOPC  C21617116   3.069   3.032  12.819 -0.9622 -0.3838  0.4984
  144DOPC  H16R17117   3.168   3.051  12.772 -0.7136 -0.3377  1.0343
  144DOPC  H16S17118   2.991   3.102  12.781 -0.8872 -1.0271 -0.9187
  144DOPC  C21717119   3.024   2.885  12.789 -0.0130 -0.4258  0.1929
  144DOPC  H17R17120   2.931   2.848  12.839 -3.1222  2.4127 -2.9858
  144DOPC  H17S17121   3.117   2.827  12.808  0.2705 -0.6688 -1.7562
  144DOPC  C21817122   2.999   2.880  12.640  0.2558 -0.4109 -0.8945
  144DOPC  H18R17123   2.916   2.948  12.611 -0.1119 -0.2118  0.5573
  144DOPC  H18S17124   2.987   2.775  12.607  0.2360 -0.5361 -0.5003
  144DOPC  H18T17125   3.085   2.919  12.582  0.1200  0.1748 -0.7077
  144DOPC   C3317126   3.723   2.960  14.155 -0.1301  0.5684  0.2092
  144DOPC   H3X17127   3.644   3.037  14.168  1.1863  1.8216  1.0093
  144DOPC   H3Y17128   3.671   2.861  14.162  0.3321  0.2679 -0.5404
  144DOPC   C3417129   3.782   2.975  14.016 -0.6454  0.4185 -0.2772
  144DOPC   H4X17130   3.867   2.905  14.027  0.2548  1.7590  2.0972
  144DOPC   H4Y17131   3.809   3.083  14.012  1.8574 -0.0761  0.9923
  144DOPC   C3517132   3.680   2.930  13.905  0.3766 -0.3934  0.5748
  144DOPC   H5X17133   3.604   3.006  13.877 -0.2730 -1.5161 -0.8493
  144DOPC   H5Y17134   3.637   2.835  13.941  2.2279 -0.9424  1.4500
  144DOPC   C3617135   3.756   2.908  13.769 -0.0358  0.8123  0.1826
  144DOPC   H6X17136   3.807   3.005  13.750  2.7116 -0.4165  0.8479
  144DOPC   H6Y17137   3.837   2.835  13.788  0.5767  0.9349 -1.7220
  144DOPC   C3717138   3.662   2.855  13.662  0.5622 -1.4349 -0.0438
  144DOPC   H7X17139   3.617   2.762  13.702  1.4051 -0.8488  2.4348
  144DOPC   H7Y17140   3.583   2.934  13.663  1.5562 -0.4122  0.5299
  144DOPC   C3817141   3.744   2.839  13.531 -0.0022 -0.3370  0.2638
  144DOPC   H8X17142   3.851   2.811  13.546  0.0541 -0.5787 -0.5447
  144DOPC   H8Y17143   3.756   2.948  13.520  3.2349 -0.3551  2.1247
  144DOPC   C3917144   3.674   2.772  13.414 -0.1245  0.3378  0.2092
  144DOPC   H9X17145   3.645   2.670  13.443  2.2938 -0.4040  0.1666
  144DOPC  C31017146   3.644   2.821  13.296 -0.5307  0.3745  0.0507
  144DOPC  H10X17147   3.575   2.768  13.228  1.3170  2.3764 -3.7398
  144DOPC  C31117148   3.668   2.960  13.249 -0.0516  0.2663  0.4746
  144DOPC  H11X17149   3.740   3.007  13.319  0.3994  0.3544 -0.0465
  144DOPC  H11Y17150   3.574   3.019  13.248 -0.0629  0.2524 -0.3508
  144DOPC  C31217151   3.732   2.972  13.113  0.1461  0.4217 -0.7699
  144DOPC  H12X17152   3.842   2.953  13.119  0.2596  0.8120 -1.5491
  144DOPC  H12Y17153   3.714   3.076  13.080 -1.0437  0.5742  0.2967
  144DOPC  C31317154   3.682   2.887  12.993  0.5447 -0.0772 -0.3315
  144DOPC  H13X17155   3.759   2.882  12.914  0.6287  1.0447 -0.3407
  144DOPC  H13Y17156   3.671   2.779  13.018 -1.8366 -0.4193 -2.4456
  144DOPC  C31417157   3.555   2.950  12.940 -0.2656  0.1770  0.0644
  144DOPC  H14X17158   3.485   2.968  13.024  1.1676  0.9233  1.1549
  144DOPC  H14Y17159   3.581   3.051  12.900  2.1762 -0.0438  0.8981
  144DOPC  C31517160   3.482   2.861  12.838 -0.2820 -0.0831  0.6236
  144DOPC  H15X17161   3.373   2.876  12.849 -0.2380  1.0865 -0.3006
  144DOPC  H15Y17162   3.494   2.753  12.860  0.5358 -0.2082 -0.3294
  144DOPC  C31617163   3.521   2.891  12.684  0.2627  0.3575 -0.7196
  144DOPC  H16X17164   3.517   3.002  12.676 -1.3535  0.3621 -0.2372
  144DOPC  H16Y17165   3.623   2.849  12.674  0.4974  0.7720 -0.0596
  144DOPC  C31717166   3.427   2.807  12.593 -0.0510  0.5460 -0.0704
  144DOPC  H17X17167   3.428   2.698  12.614  0.7195  0.0579 -2.3348
  144DOPC  H17Y17168   3.326   2.847  12.616 -0.0350 -0.0847  1.1850
  144DOPC  C31817169   3.451   2.837  12.447  0.7039  0.1145  0.2386
  144DOPC  H18X17170   3.463   2.945  12.427  0.0246 -0.1831 -1.9489
  144DOPC  H18Y17171   3.543   2.794  12.400  0.9871 -1.3558  2.0095
  144DOPC  H18Z17172   3.365   2.802  12.387  0.2294  0.7587  0.5352
  145DOPC     N17173   4.930   5.029  15.064 -0.7535 -0.4546 -0.3196
  145DOPC   C1217174   4.965   5.046  14.916  0.1396 -0.4353 -0.5666
  145DOPC  H12A17175   5.029   4.965  14.884  0.6036 -0.5387  0.5617
  145DOPC  H12B17176   5.037   5.125  14.903  0.7004 -0.8004  0.2429
  145DOPC   C1317177   5.062   5.008  15.146  0.0927 -0.2199 -0.0211
  145DOPC  H13A17178   5.131   5.081  15.108  0.2810 -0.2980  0.1685
  145DOPC  H13B17179   5.049   5.018  15.253 -0.1611  4.0472 -0.2828
  145DOPC  H13C17180   5.100   4.911  15.118  1.8236  0.0097  1.3340
  145DOPC   C1417181   4.846   4.913  15.094 -0.0362 -0.1487 -0.6915
  145DOPC  H14A17182   4.901   4.822  15.114 -0.9209 -0.2795  1.4309
  145DOPC  H14B17183   4.776   4.920  15.177  0.0787 -0.1879 -0.5915
  145DOPC  H14C17184   4.791   4.892  15.003  0.3681  0.2192 -1.0228
  145DOPC   C1517185   4.867   5.157  15.114 -0.6749  0.5057 -0.1027
  145DOPC  H15A17186   4.826   5.142  15.213  1.3627  0.7344  0.8172
  145DOPC  H15B17187   4.787   5.182  15.045 -1.6268  0.5213  0.9780
  145DOPC  H15C17188   4.937   5.239  15.110  2.1828 -1.8230 -1.9566
  145DOPC   C1117189   4.844   5.045  14.823 -0.4530  0.3442  0.0674
  145DOPC  H11A17190   4.877   5.017  14.721 -0.2772  1.8950 -0.3284
  145DOPC  H11B17191   4.767   4.971  14.855 -0.8686  0.0952 -1.4488
  145DOPC     P17192   4.856   5.297  14.755  0.4014 -0.2918 -0.1717
  145DOPC   O1317193   4.994   5.311  14.808 -0.1063 -0.3124 -0.1913
  145DOPC   O1417194   4.762   5.415  14.763  0.2667  0.1989 -0.1423
  145DOPC   O1217195   4.789   5.179  14.820  0.3208 -0.0156 -0.3428
  145DOPC   O1117196   4.861   5.250  14.601 -0.4439 -0.5870  0.4592
  145DOPC    C117197   4.733   5.231  14.541 -0.0192  0.4156  0.5666
  145DOPC    HA17198   4.677   5.325  14.520  1.2650  1.6997  2.5441
  145DOPC    HB17199   4.661   5.173  14.601  0.1735 -1.3734 -0.8443
  145DOPC    C217200   4.750   5.157  14.406 -0.5402  0.8841  0.5182
  145DOPC    HS17201   4.818   5.070  14.415 -1.0676  0.5011  0.8743
  145DOPC   O2117202   4.798   5.246  14.297  0.1341 -0.6419 -0.0136
  145DOPC   C2117203   4.930   5.259  14.290 -0.5458  0.0275  0.5282
  145DOPC   O2217204   5.011   5.196  14.350  0.3922  0.5109  0.0648
  145DOPC   C2217205   4.963   5.370  14.195 -0.2142  0.7323 -0.1704
  145DOPC   H2R17206   4.997   5.458  14.254 -1.4716 -0.0555  1.8282
  145DOPC   H2S17207   4.872   5.410  14.145  0.7911  0.7014 -2.1192
  145DOPC    C317208   4.613   5.096  14.355  0.1129  0.3968 -1.1674
  145DOPC    HX17209   4.535   5.175  14.347 -1.4354 -1.0083 -0.3319
  145DOPC    HY17210   4.584   5.014  14.424  0.0914  1.9471  0.7570
  145DOPC   O3117211   4.619   5.054  14.219  0.0881  0.4137  0.1230
  145DOPC   C3117212   4.668   4.931  14.198  0.4460 -0.6431  0.6856
  145DOPC   O3217213   4.708   4.859  14.286 -0.1044  0.1651  0.5594
  145DOPC   C3217214   4.652   4.897  14.053 -0.1672  0.4760 -0.5052
  145DOPC   H2X17215   4.572   4.822  14.043  0.8922 -1.1676  2.3281
  145DOPC   H2Y17216   4.621   4.989  13.998 -2.3208 -0.9570 -1.8253
  145DOPC   C2317217   5.062   5.341  14.081 -0.2192  0.3168  0.0131
  145DOPC   H3R17218   5.150   5.289  14.125  0.1205  2.1762  1.6787
  145DOPC   H3S17219   5.099   5.433  14.032  0.9036  0.1089  0.4330
  145DOPC   C2417220   5.013   5.232  13.980 -0.5590 -0.0858 -0.4810
  145DOPC   H4R17221   4.923   5.278  13.933 -1.2052  2.6906  3.0053
  145DOPC   H4S17222   4.988   5.150  14.050 -1.7620  1.2723  0.7415
  145DOPC   C2517223   5.116   5.177  13.874 -0.3270 -0.7731  0.5165
  145DOPC   H5R17224   5.089   5.071  13.856 -3.3462 -0.2367  1.3410
  145DOPC   H5S17225   5.219   5.187  13.914 -0.3658 -2.0938  0.9885
  145DOPC   C2617226   5.110   5.251  13.740 -0.3996  0.5390 -0.6615
  145DOPC   H6R17227   5.009   5.230  13.701 -1.5203  1.4230  1.5715
  145DOPC   H6S17228   5.191   5.204  13.680  1.0426 -0.4338  1.8786
  145DOPC   C2717229   5.129   5.401  13.748  0.2063  0.4441  0.0371
  145DOPC   H7R17230   5.217   5.423  13.812 -1.1064  0.8891  1.7804
  145DOPC   H7S17231   5.048   5.451  13.806  0.3831 -1.7526  2.3517
  145DOPC   C2817232   5.153   5.471  13.613  0.3122 -0.3797  0.3374
  145DOPC   H8R17233   5.166   5.581  13.622 -2.0041  0.1482 -1.6397
  145DOPC   H8S17234   5.059   5.457  13.555  1.1357  0.0762 -1.1649
  145DOPC   C2917235   5.259   5.404  13.525 -0.0766 -0.2061 -0.6611
  145DOPC   H9R17236   5.354   5.385  13.578 -0.9901  1.5529  1.8013
  145DOPC  C21017237   5.241   5.347  13.406 -0.0264 -0.3620  0.3665
  145DOPC  H10R17238   5.326   5.286  13.373 -0.4563  0.2631 -2.0885
  145DOPC  C21117239   5.114   5.355  13.317 -0.2347  0.8145  0.1784
  145DOPC  H11R17240   5.084   5.461  13.330 -1.6507  0.4191  0.3048
  145DOPC  H11S17241   5.044   5.281  13.361  1.1419 -1.3035 -0.9943
  145DOPC  C21217242   5.128   5.331  13.167  0.8447  0.4696  0.1004
  145DOPC  H12R17243   5.186   5.411  13.115 -1.2696  2.5002  0.6748
  145DOPC  H12S17244   5.027   5.352  13.127  1.0384 -0.2768 -0.8055
  145DOPC  C21317245   5.190   5.191  13.123 -0.4748 -0.6148  0.0035
  145DOPC  H13R17246   5.114   5.116  13.155  0.5170 -1.6726 -0.0760
  145DOPC  H13S17247   5.281   5.172  13.184 -2.1089 -1.5802  2.2838
  145DOPC  C21417248   5.225   5.195  12.975 -0.0897  0.1155  0.4116
  145DOPC  H14R17249   5.303   5.122  12.943  0.0953 -0.2376  1.6098
  145DOPC  H14S17250   5.275   5.293  12.960  0.8105 -0.5484 -1.3041
  145DOPC  C21517251   5.106   5.198  12.881 -1.0175  0.2035  0.0734
  145DOPC  H15R17252   5.019   5.249  12.928 -3.1544 -0.3506 -2.9966
  145DOPC  H15S17253   5.090   5.090  12.863  1.3403 -0.0874 -0.6522
  145DOPC  C21617254   5.127   5.272  12.750 -0.2684  0.5906 -0.6954
  145DOPC  H16R17255   5.131   5.383  12.758  2.0931  0.4221  1.3515
  145DOPC  H16S17256   5.040   5.246  12.686 -1.6779  1.2282  0.8898
  145DOPC  C21717257   5.258   5.236  12.678  0.6887 -0.5444  0.5181
  145DOPC  H17R17258   5.309   5.148  12.723  2.7625  0.4644  0.2803
  145DOPC  H17S17259   5.317   5.330  12.687  1.5321 -1.0241  0.1428
  145DOPC  C21817260   5.233   5.206  12.526 -0.4244  1.1664 -0.3723
  145DOPC  H18R17261   5.209   5.297  12.467  0.4404  1.0589 -0.9073
  145DOPC  H18S17262   5.159   5.124  12.519  1.3007 -0.7570  2.1007
  145DOPC  H18T17263   5.326   5.161  12.485 -0.5212  0.4007  0.2266
  145DOPC   C3317264   4.788   4.850  13.993  0.4300 -0.6987  0.7043
  145DOPC   H3X17265   4.820   4.762  14.053  1.7070 -1.3458 -0.8596
  145DOPC   H3Y17266   4.860   4.935  13.994  0.6666 -0.8484 -1.2978
  145DOPC   C3417267   4.769   4.803  13.851 -0.9704  0.5586 -0.0015
  145DOPC   H4X17268   4.766   4.896  13.790  1.7244  2.2594  2.2094
  145DOPC   H4Y17269   4.675   4.746  13.840  0.1482 -1.5914  0.8698
  145DOPC   C3517270   4.883   4.710  13.809  0.1874 -0.4206 -0.4987
  145DOPC   H5X17271   4.853   4.653  13.719  1.4942 -2.0343  0.0403
  145DOPC   H5Y17272   4.890   4.628  13.884  0.7197 -0.3887 -0.5055
  145DOPC   C3617273   5.012   4.801  13.784  1.0935  0.4080  0.1883
  145DOPC   H6X17274   4.998   4.883  13.709 -0.4039  0.6773  0.7141
  145DOPC   H6Y17275   5.023   4.850  13.883 -1.4637 -3.7289  2.7889
  145DOPC   C3717276   5.130   4.715  13.740  0.6529 -0.2501 -0.2343
  145DOPC   H7X17277   5.107   4.667  13.642  1.8738  0.1101 -0.7104
  145DOPC   H7Y17278   5.210   4.790  13.719  0.3968  0.3054  0.7097
  145DOPC   C3817279   5.180   4.605  13.832 -0.5333 -0.7509 -0.4349
  145DOPC   H8X17280   5.099   4.530  13.833  0.3193 -1.6853 -0.3724
  145DOPC   H8Y17281   5.200   4.649  13.932 -1.9259  0.6323 -0.7279
  145DOPC   C3917282   5.303   4.531  13.779 -0.7777 -0.1189  0.3059
  145DOPC   H9X17283   5.396   4.573  13.822 -1.6722  0.5448  1.6690
  145DOPC  C31017284   5.316   4.435  13.688 -0.0622 -0.5766  0.4155
  145DOPC  H10X17285   5.421   4.419  13.659 -0.0125  0.6750 -0.1981
  145DOPC  C31117286   5.205   4.373  13.601 -0.0508  0.8705 -0.3682
  145DOPC  H11X17287   5.107   4.391  13.650  0.0421 -0.2940  0.2654
  145DOPC  H11Y17288   5.222   4.264  13.598  1.1054  1.0468 -2.0646
  145DOPC  C31217289   5.209   4.412  13.455  0.4260 -0.2001 -0.5405
  145DOPC  H12X17290   5.227   4.521  13.442 -1.3231 -0.0100 -1.6394
  145DOPC  H12Y17291   5.113   4.378  13.413 -0.1737  1.1385 -0.2865
  145DOPC  C31317292   5.319   4.339  13.377 -0.5414  0.5236  0.0394
  145DOPC  H13X17293   5.419   4.384  13.396 -1.1078  1.2309  1.5115
  145DOPC  H13Y17294   5.329   4.230  13.390  0.7755  0.8115  1.7792
  145DOPC  C31417295   5.301   4.360  13.228  0.0405  0.7983  0.3068
  145DOPC  H14X17296   5.221   4.289  13.196 -0.4962  1.6443 -0.2763
  145DOPC  H14Y17297   5.251   4.457  13.210 -2.2459 -0.2375  0.7286
  145DOPC  C31517298   5.427   4.337  13.145  0.2010 -0.4517 -0.1341
  145DOPC  H15X17299   5.467   4.234  13.156  1.4703  0.2018  1.7707
  145DOPC  H15Y17300   5.494   4.419  13.177 -2.2376  1.2806  0.8128
  145DOPC  C31617301   5.387   4.349  12.994  0.4046  0.5136 -0.5354
  145DOPC  H16X17302   5.323   4.268  12.952 -1.8773  2.3534 -0.7982
  145DOPC  H16Y17303   5.324   4.439  12.975 -0.6801 -0.2569 -0.6966
  145DOPC  C31717304   5.521   4.358  12.926 -0.2606 -0.3091 -0.0703
  145DOPC  H17X17305   5.571   4.450  12.962  0.2444 -0.7639  0.4087
  145DOPC  H17Y17306   5.588   4.272  12.946 -1.2191 -1.1028 -0.1904
  145DOPC  C31817307   5.516   4.364  12.771  0.2551 -0.4683  0.7939
  145DOPC  H18X17308   5.488   4.267  12.725  1.1761 -1.2754  1.8773
  145DOPC  H18Y17309   5.438   4.438  12.743 -0.4675 -1.5303 -0.0950
  145DOPC  H18Z17310   5.615   4.387  12.726 -0.7392  1.5832 -0.4689
  146DOPC     N17311   6.324   1.344  15.302  0.2928  0.4882 -0.1760
  146DOPC   C1217312   6.172   1.352  15.277  1.1156 -0.2962  0.3198
  146DOPC  H12A17313   6.147   1.451  15.242 -2.6096 -0.8441  1.0959
  146DOPC  H12B17314   6.126   1.338  15.374  2.3026 -1.7144  0.7243
  146DOPC   C1317315   6.358   1.215  15.362 -0.0141 -0.7254 -0.3700
  146DOPC  H13A17316   6.340   1.127  15.302  0.4580 -1.1847  0.1477
  146DOPC  H13B17317   6.462   1.191  15.377  0.3816 -1.0775 -3.1353
  146DOPC  H13C17318   6.299   1.206  15.452 -0.8298  0.3913 -0.7752
  146DOPC   C1417319   6.369   1.452  15.400 -0.1092 -0.5979  0.0098
  146DOPC  H14A17320   6.359   1.555  15.369 -1.3849 -0.6010  0.3259
  146DOPC  H14B17321   6.317   1.439  15.494  2.3695 -5.1874  1.0091
  146DOPC  H14C17322   6.470   1.425  15.426  0.2577  0.5537 -0.1241
  146DOPC   C1517323   6.402   1.368  15.176  0.8242  0.5272 -0.4024
  146DOPC  H15A17324   6.378   1.293  15.103  0.8188  0.0000  0.1344
  146DOPC  H15B17325   6.507   1.354  15.197  0.2805 -0.7622  1.8350
  146DOPC  H15C17326   6.388   1.471  15.147  0.7114  1.1496  1.6926
  146DOPC   C1117327   6.103   1.257  15.177 -0.0300 -0.0844  0.1086
  146DOPC  H11A17328   6.128   1.152  15.205  5.1597  1.1776  1.2708
  146DOPC  H11B17329   5.993   1.261  15.191 -0.3314  1.7623 -2.1530
  146DOPC     P17330   6.086   1.411  14.979 -0.0140 -0.4017  0.1768
  146DOPC   O1317331   6.206   1.472  14.909 -0.1192 -0.2398  0.1793
  146DOPC   O1417332   6.022   1.487  15.084 -0.2736 -0.1997 -0.6575
  146DOPC   O1217333   6.144   1.281  15.042  0.2595  0.0183 -0.0472
  146DOPC   O1117334   5.980   1.361  14.877  0.1876  0.5633  0.0003
  146DOPC    C117335   6.021   1.321  14.746 -0.0597  0.3088 -0.1682
  146DOPC    HA17336   5.950   1.243  14.711  1.6148 -1.3567 -0.0238
  146DOPC    HB17337   6.123   1.277  14.741 -1.2227 -2.5078 -0.8488
  146DOPC    C217338   6.018   1.451  14.657 -0.6710 -0.0394  0.1938
  146DOPC    HS17339   6.082   1.521  14.716 -0.3010 -0.4601  0.2996
  146DOPC   O2117340   5.885   1.506  14.636 -0.0121  0.3887  0.1386
  146DOPC   C2117341   5.887   1.641  14.646  0.8774 -0.8358 -0.1137
  146DOPC   O2217342   5.984   1.716  14.668  0.6879 -0.2556  0.3584
  146DOPC   C2217343   5.739   1.680  14.631  0.5459 -0.5455 -0.4445
  146DOPC   H2R17344   5.729   1.789  14.646 -1.1812 -0.7185 -0.1458
  146DOPC   H2S17345   5.685   1.630  14.714 -0.8368 -0.5318 -1.3158
  146DOPC    C317346   6.089   1.424  14.523  0.5425  0.3261 -0.1436
  146DOPC    HX17347   6.031   1.346  14.469 -0.7303 -0.2615  1.9496
  146DOPC    HY17348   6.191   1.380  14.535  0.2339 -0.7299 -1.1932
  146DOPC   O3117349   6.099   1.544  14.437 -0.4842 -0.2052  0.2154
  146DOPC   C3117350   6.204   1.624  14.453 -0.3513  0.0937  0.4963
  146DOPC   O3217351   6.305   1.593  14.516  0.3361 -0.2602  0.5534
  146DOPC   C3217352   6.180   1.754  14.366  0.2228  0.0243 -0.0138
  146DOPC   H2X17353   6.094   1.814  14.401  0.3798  0.2093  0.0564
  146DOPC   H2Y17354   6.268   1.821  14.364  0.7284 -0.6233 -2.0027
  146DOPC   C2317355   5.678   1.654  14.490  0.2562  0.2525  0.2034
  146DOPC   H3R17356   5.568   1.650  14.475  0.5642  0.3830 -2.7353
  146DOPC   H3S17357   5.717   1.555  14.457 -1.4177 -0.6814  0.9124
  146DOPC   C2417358   5.738   1.743  14.377  0.5714  0.3874 -0.3392
  146DOPC   H4R17359   5.849   1.740  14.376  0.5878 -0.1797  0.9628
  146DOPC   H4S17360   5.702   1.845  14.402  0.5421  0.4602 -0.6801
  146DOPC   C2517361   5.691   1.687  14.243 -0.2785 -0.4616  0.1237
  146DOPC   H5R17362   5.581   1.673  14.252 -0.4044  0.0175 -0.5507
  146DOPC   H5S17363   5.729   1.583  14.232  0.7251 -0.1914  0.9080
  146DOPC   C2617364   5.712   1.773  14.121 -0.0676 -0.3386 -0.8163
  146DOPC   H6R17365   5.806   1.830  14.134 -1.1881  1.6414 -1.0836
  146DOPC   H6S17366   5.646   1.861  14.129  1.3200  0.5830  1.6143
  146DOPC   C2717367   5.689   1.703  13.985  0.1302  0.4217  0.2696
  146DOPC   H7R17368   5.595   1.645  13.983  0.2247  0.2919 -0.8187
  146DOPC   H7S17369   5.765   1.622  13.983 -0.5705 -0.2631  0.7906
  146DOPC   C2817370   5.710   1.798  13.872 -0.7899  0.3376  0.6389
  146DOPC   H8R17371   5.804   1.856  13.883 -0.0374 -0.7242  0.0585
  146DOPC   H8S17372   5.629   1.873  13.859 -1.4404 -0.7153 -2.2668
  146DOPC   C2917373   5.728   1.720  13.741  0.1258  0.2913 -0.4387
  146DOPC   H9R17374   5.700   1.614  13.748  0.4252  0.1590 -1.1783
  146DOPC  C21017375   5.762   1.762  13.619  0.8485  0.1578  0.2267
  146DOPC  H10R17376   5.768   1.692  13.535 -1.1606 -1.2628  1.1878
  146DOPC  C21117377   5.808   1.899  13.584  0.1071  0.0442 -0.5128
  146DOPC  H11R17378   5.852   1.954  13.670 -0.4385  0.4647 -0.4955
  146DOPC  H11S17379   5.718   1.953  13.549 -0.7943 -2.0888 -1.7002
  146DOPC  C21217380   5.908   1.912  13.467  0.0733 -0.1506 -0.6602
  146DOPC  H12R17381   5.996   1.848  13.489  0.7106  0.8280 -0.3364
  146DOPC  H12S17382   5.938   2.018  13.461 -0.7291  0.0917 -0.5502
  146DOPC  C21317383   5.865   1.864  13.333  0.8732  0.4442  0.7486
  146DOPC  H13R17384   5.795   1.937  13.287 -0.3702 -1.6839 -0.9001
  146DOPC  H13S17385   5.809   1.768  13.334  2.0624 -0.2692  1.5219
  146DOPC  C21417386   5.981   1.836  13.238 -0.4398  0.7280  1.0417
  146DOPC  H14R17387   6.049   1.764  13.287 -0.9145 -1.1759 -0.9547
  146DOPC  H14S17388   6.030   1.934  13.220  0.6911  0.1897  1.1489
  146DOPC  C21517389   5.925   1.790  13.102  0.4084 -0.0833  0.7515
  146DOPC  H15R17390   5.840   1.852  13.064 -0.1882 -1.5120 -0.3129
  146DOPC  H15S17391   5.874   1.692  13.115  0.8500 -0.3441  0.5060
  146DOPC  C21617392   6.037   1.779  12.999 -0.0199  0.1080  0.6774
  146DOPC  H16R17393   6.106   1.705  13.044  0.1786 -0.4679 -0.5475
  146DOPC  H16S17394   6.084   1.880  13.003  1.8731 -0.6907 -0.1540
  146DOPC  C21717395   5.986   1.740  12.860 -0.1197  0.9700  0.6830
  146DOPC  H17R17396   5.918   1.824  12.834 -0.0024  1.1462  0.9432
  146DOPC  H17S17397   5.926   1.648  12.868 -0.9858  1.2880 -1.4196
  146DOPC  C21817398   6.089   1.723  12.750  0.2647  0.2160 -0.0364
  146DOPC  H18R17399   6.147   1.817  12.741 -1.2407  1.0310 -1.8510
  146DOPC  H18S17400   6.041   1.704  12.652  0.8596  0.1386 -0.3180
  146DOPC  H18T17401   6.152   1.636  12.779  1.0644  0.0171 -2.1877
  146DOPC   C3317402   6.149   1.726  14.222 -0.2307 -0.2226  0.7290
  146DOPC   H3X17403   6.052   1.671  14.220 -1.1686  1.3781  0.4726
  146DOPC   H3Y17404   6.213   1.651  14.172  0.9697  1.3944 -0.2820
  146DOPC   C3417405   6.142   1.850  14.131  0.1685  0.1659  0.3526
  146DOPC   H4X17406   6.236   1.909  14.132 -0.8192  1.7769  0.2987
  146DOPC   H4Y17407   6.071   1.928  14.163  1.2123  0.9778  0.7401
  146DOPC   C3517408   6.116   1.811  13.982 -0.1762 -0.1509  0.5302
  146DOPC   H5X17409   6.009   1.783  13.990 -0.2648 -0.1219 -0.4228
  146DOPC   H5Y17410   6.177   1.723  13.954  0.5888  1.0821 -1.9713
  146DOPC   C3617411   6.142   1.937  13.888  0.1825  0.5722 -0.5007
  146DOPC   H6X17412   6.066   2.015  13.909 -1.0738 -1.2978  2.5973
  146DOPC   H6Y17413   6.241   1.977  13.922 -0.8872  0.6759  2.8568
  146DOPC   C3717414   6.144   1.918  13.738 -0.4794  0.0867  0.4333
  146DOPC   H7X17415   6.229   1.851  13.714 -0.0268  1.2848 -1.6196
  146DOPC   H7Y17416   6.053   1.858  13.715  0.4780 -1.0921 -0.4219
  146DOPC   C3817417   6.167   2.038  13.653  0.0920  0.0806 -0.2303
  146DOPC   H8X17418   6.087   2.113  13.671  1.1545  1.7572 -2.2162
  146DOPC   H8Y17419   6.165   1.998  13.550 -1.2890 -1.0615  0.1996
  146DOPC   C3917420   6.292   2.116  13.665 -0.1606 -0.3079  0.0039
  146DOPC   H9X17421   6.374   2.072  13.607  0.3759 -1.1412  1.3375
  146DOPC  C31017422   6.322   2.233  13.726  0.0948 -0.2114 -0.6767
  146DOPC  H10X17423   6.422   2.279  13.728 -0.2000  0.4447 -0.5926
  146DOPC  C31117424   6.221   2.331  13.778 -0.1378 -0.1419  0.3182
  146DOPC  H11X17425   6.118   2.309  13.743  0.9079 -2.4253 -1.6003
  146DOPC  H11Y17426   6.243   2.434  13.741  1.5340 -0.2006  1.0797
  146DOPC  C31217427   6.250   2.343  13.932 -0.0929 -0.1794 -0.3314
  146DOPC  H12X17428   6.168   2.412  13.961 -0.2530  0.2417 -1.7003
  146DOPC  H12Y17429   6.349   2.391  13.948  0.9974 -2.3718 -0.1091
  146DOPC  C31317430   6.250   2.226  14.026 -0.0867 -0.4445  0.4253
  146DOPC  H13X17431   6.153   2.172  14.019 -0.9919  1.3209 -3.2668
  146DOPC  H13Y17432   6.337   2.162  14.000  0.7055  0.3600  1.0650
  146DOPC  C31417433   6.264   2.274  14.173  0.2008  0.0860  0.9159
  146DOPC  H14X17434   6.353   2.339  14.190  0.9053 -1.0314  1.5759
  146DOPC  H14Y17435   6.186   2.349  14.200 -1.0520 -1.1996  0.9324
  146DOPC  C31517436   6.270   2.175  14.295  0.4908 -0.2395  0.5006
  146DOPC  H15X17437   6.186   2.103  14.284 -1.3511  2.1638 -3.2106
  146DOPC  H15Y17438   6.244   2.240  14.381 -1.1446 -0.8068  0.4700
  146DOPC  C31617439   6.404   2.106  14.337  0.1714  0.2123  0.5003
  146DOPC  H16X17440   6.425   2.021  14.269  2.1834  0.7106  0.4323
  146DOPC  H16Y17441   6.491   2.173  14.319 -0.3031  0.3944 -1.1850
  146DOPC  C31717442   6.401   2.069  14.492  0.1673 -0.5689  0.9403
  146DOPC  H17X17443   6.394   2.171  14.537  1.4345 -0.6981  1.4592
  146DOPC  H17Y17444   6.316   2.005  14.523  0.6563 -0.4004  2.7278
  146DOPC  C31817445   6.534   1.995  14.520  0.4952  0.3395  0.3715
  146DOPC  H18X17446   6.517   1.935  14.611 -0.4644  0.6941  0.4443
  146DOPC  H18Y17447   6.562   1.929  14.435 -0.7719 -0.5030  0.5848
  146DOPC  H18Z17448   6.612   2.067  14.552  2.3105 -0.8889 -1.0515
  147DOPC     N17449   2.579   3.562  15.048  0.1602  0.3259  0.1913
  147DOPC   C1217450   2.535   3.427  15.001  0.2504 -0.6579  0.7374
  147DOPC  H12A17451   2.443   3.445  14.948  1.3209  0.8812 -0.7355
  147DOPC  H12B17452   2.525   3.358  15.083 -0.6271 -1.5459 -0.0827
  147DOPC   C1317453   2.687   3.540  15.149 -0.0063  0.1030  0.0530
  147DOPC  H13A17454   2.691   3.629  15.210 -2.0481 -0.4662  1.1239
  147DOPC  H13B17455   2.669   3.459  15.218  3.0746 -1.9373 -1.2917
  147DOPC  H13C17456   2.777   3.519  15.093 -0.6379 -0.9299 -0.6177
  147DOPC   C1417457   2.462   3.625  15.111  0.1059 -0.4839  0.1320
  147DOPC  H14A17458   2.439   3.608  15.215 -1.3132 -0.4637 -0.1575
  147DOPC  H14B17459   2.481   3.731  15.116 -1.1026 -0.2981  1.7217
  147DOPC  H14C17460   2.373   3.611  15.051  0.2407  1.5830 -0.6066
  147DOPC   C1517461   2.622   3.648  14.933 -0.3655  0.1383 -0.5564
  147DOPC  H15A17462   2.536   3.672  14.872 -1.6308  1.4435  1.5877
  147DOPC  H15B17463   2.699   3.605  14.871  0.5752  3.6973 -2.1359
  147DOPC  H15C17464   2.660   3.744  14.964 -0.4725 -0.3775  1.3199
  147DOPC   C1117465   2.634   3.348  14.910 -0.2694  0.7134  0.0304
  147DOPC  H11A17466   2.591   3.249  14.881 -0.7029 -0.4551  4.0606
  147DOPC  H11B17467   2.635   3.402  14.813  1.9619  1.3751  0.3797
  147DOPC     P17468   2.863   3.217  14.934 -0.2951  0.2798 -0.1435
  147DOPC   O1317469   2.796   3.088  14.959  0.3239  0.5435  0.3772
  147DOPC   O1417470   2.992   3.248  15.002 -0.5959 -0.7254  0.3672
  147DOPC   O1217471   2.766   3.332  14.966  0.1839  0.7800 -0.1511
  147DOPC   O1117472   2.886   3.229  14.778 -0.3333 -0.2036  0.3280
  147DOPC    C117473   2.963   3.345  14.724  0.4547  0.2193  0.0530
  147DOPC    HA17474   3.070   3.316  14.714  1.3293  3.1998 -0.1028
  147DOPC    HB17475   2.958   3.435  14.789 -0.6126  0.3915 -0.2591
  147DOPC    C217476   2.901   3.393  14.588 -0.0412  0.4815  0.1215
  147DOPC    HS17477   2.802   3.436  14.613  0.3400  1.3111  0.2459
  147DOPC   O2117478   2.910   3.280  14.499 -0.3686 -0.0139 -0.1612
  147DOPC   C2117479   2.803   3.262  14.426 -0.1644 -0.1746 -0.0632
  147DOPC   O2217480   2.695   3.323  14.438 -0.1349  0.7318 -0.0066
  147DOPC   C2217481   2.820   3.157  14.314  0.0101 -0.1766  0.0443
  147DOPC   H2R17482   2.734   3.091  14.335  0.0059  0.5594  2.6996
  147DOPC   H2S17483   2.915   3.106  14.341 -0.9898 -1.0948  1.9686
  147DOPC    C317484   2.990   3.500  14.519  0.2459  0.8669 -0.1911
  147DOPC    HX17485   3.092   3.456  14.521  0.2426  0.4445 -3.5194
  147DOPC    HY17486   2.984   3.594  14.578  1.0517  0.2136  0.9681
  147DOPC   O3117487   2.950   3.521  14.377  0.3105  0.1146  0.5106
  147DOPC   C3117488   2.848   3.607  14.356  0.8088  0.1258  0.0876
  147DOPC   O3217489   2.789   3.658  14.451  0.2880 -0.2456  0.1836
  147DOPC   C3217490   2.812   3.623  14.212  0.2046  0.3547 -0.5719
  147DOPC   H2X17491   2.885   3.684  14.155 -1.8019  2.3468 -1.1092
  147DOPC   H2Y17492   2.808   3.525  14.158 -3.5623  0.1212 -0.1125
  147DOPC   C2317493   2.814   3.231  14.182  0.1939  0.4545 -0.7388
  147DOPC   H3R17494   2.889   3.314  14.180 -0.1719  0.8825  1.2756
  147DOPC   H3S17495   2.714   3.275  14.164 -0.2278 -0.2545 -0.1778
  147DOPC   C2417496   2.840   3.134  14.072  0.3880  0.1559  0.3934
  147DOPC   H4R17497   2.784   3.043  14.102  1.0235 -0.1280  0.7432
  147DOPC   H4S17498   2.950   3.123  14.061  0.1368 -2.7364  0.0069
  147DOPC   C2517499   2.790   3.167  13.931 -0.2334 -0.7301 -0.1676
  147DOPC   H5R17500   2.679   3.163  13.928 -0.2237 -0.7988 -0.4894
  147DOPC   H5S17501   2.808   3.085  13.858  1.3354 -0.2009 -0.4338
  147DOPC   C2617502   2.851   3.292  13.871 -0.2124 -0.1798 -0.5998
  147DOPC   H6R17503   2.956   3.287  13.906  0.0773 -0.6278 -1.4864
  147DOPC   H6S17504   2.803   3.383  13.913 -0.1859 -0.4835  0.1004
  147DOPC   C2717505   2.840   3.292  13.720 -0.2721 -0.5965  0.2010
  147DOPC   H7R17506   2.734   3.284  13.688 -0.2465  0.5573 -0.2349
  147DOPC   H7S17507   2.903   3.213  13.675 -0.3836  0.3256 -1.6573
  147DOPC   C2817508   2.898   3.418  13.650  0.1415  0.3837  0.2622
  147DOPC   H8R17509   2.973   3.367  13.586 -1.8912  1.0713 -2.9035
  147DOPC   H8S17510   2.946   3.476  13.731 -0.3020  0.6429  0.3444
  147DOPC   C2917511   2.798   3.495  13.570 -0.2402 -0.5221  0.4005
  147DOPC   H9R17512   2.776   3.599  13.598 -0.8430  0.3893 -3.0364
  147DOPC  C21017513   2.752   3.456  13.441  0.3434  0.3175 -0.6702
  147DOPC  H10R17514   2.680   3.529  13.401  3.6968  3.6992 -1.1172
  147DOPC  C21117515   2.776   3.316  13.378 -0.3400 -0.6108 -0.3501
  147DOPC  H11R17516   2.685   3.252  13.380 -0.1276 -0.9117  2.2304
  147DOPC  H11S17517   2.852   3.267  13.442  0.6866 -1.5937 -2.2405
  147DOPC  C21217518   2.835   3.332  13.234 -0.0063  0.1356 -0.2250
  147DOPC  H12R17519   2.863   3.235  13.190 -3.2247 -1.3109  0.5729
  147DOPC  H12S17520   2.923   3.400  13.236 -1.4481  2.0934 -0.1107
  147DOPC  C21317521   2.737   3.398  13.126 -0.4147 -0.4543 -0.8993
  147DOPC  H13R17522   2.690   3.493  13.158 -4.8181 -2.5558 -0.3107
  147DOPC  H13S17523   2.650   3.330  13.110 -1.1777  0.6139 -1.4283
  147DOPC  C21417524   2.801   3.413  12.990  0.2917  0.2483 -0.6065
  147DOPC  H14R17525   2.832   3.310  12.960  1.2558  0.1964  0.4951
  147DOPC  H14S17526   2.892   3.475  12.995 -0.5151  1.3594  1.5800
  147DOPC  C21517527   2.712   3.479  12.884 -0.2085 -0.0146  0.3910
  147DOPC  H15R17528   2.665   3.557  12.947  1.0288  0.3247  0.9028
  147DOPC  H15S17529   2.633   3.406  12.853  0.0599 -1.2991  2.5480
  147DOPC  C21617530   2.785   3.545  12.768  0.3645 -0.0915  0.0619
  147DOPC  H16R17531   2.847   3.471  12.713 -0.6219 -0.0824 -1.0990
  147DOPC  H16S17532   2.851   3.621  12.815  0.7488 -1.3171  1.5744
  147DOPC  C21717533   2.694   3.591  12.652 -0.0789 -0.0030  0.4264
  147DOPC  H17R17534   2.651   3.501  12.604  0.7725 -0.4602  0.5201
  147DOPC  H17S17535   2.752   3.632  12.566 -2.6085 -0.3575 -1.5926
  147DOPC  C21817536   2.592   3.683  12.707  0.4183 -0.8566 -0.3303
  147DOPC  H18R17537   2.544   3.746  12.628 -0.9409  0.6247  1.5909
  147DOPC  H18S17538   2.648   3.748  12.778  0.4735 -0.5675 -0.6344
  147DOPC  H18T17539   2.518   3.620  12.760 -1.3513 -0.6920 -2.4124
  147DOPC   C3317540   2.662   3.659  14.198 -0.1498  0.0222 -0.1733
  147DOPC   H3X17541   2.642   3.768  14.213 -3.0539 -0.4955  0.2736
  147DOPC   H3Y17542   2.610   3.612  14.284  0.1041 -0.6056 -0.3595
  147DOPC   C3417543   2.585   3.603  14.077 -0.4457 -0.1526 -0.3604
  147DOPC   H4X17544   2.483   3.584  14.119  0.0322  1.0266  1.4257
  147DOPC   H4Y17545   2.629   3.506  14.045 -1.0171 -0.5438  0.0019
  147DOPC   C3517546   2.576   3.700  13.966 -0.0468 -0.3398  0.6287
  147DOPC   H5X17547   2.677   3.730  13.931 -0.9727 -0.4431 -2.4577
  147DOPC   H5Y17548   2.531   3.799  13.989 -2.9151 -0.7264 -2.4738
  147DOPC   C3617549   2.502   3.651  13.841  0.3259 -0.5328  0.4426
  147DOPC   H6X17550   2.571   3.590  13.778 -0.1545 -0.1926 -0.4343
  147DOPC   H6Y17551   2.421   3.582  13.873 -1.3207  0.6133 -1.0790
  147DOPC   C3717552   2.438   3.768  13.768  0.2302  0.0213  0.1864
  147DOPC   H7X17553   2.380   3.841  13.828  2.0567  1.6200  0.0585
  147DOPC   H7Y17554   2.527   3.819  13.727  0.3703 -1.5806 -1.7065
  147DOPC   C3817555   2.353   3.710  13.657  0.6722 -0.1530  0.4225
  147DOPC   H8X17556   2.316   3.794  13.595 -1.1095 -1.0182  0.2636
  147DOPC   H8Y17557   2.259   3.680  13.708 -0.8829  1.2340 -1.4680
  147DOPC   C3917558   2.412   3.602  13.570  0.5254 -0.1162  0.2848
  147DOPC   H9X17559   2.421   3.503  13.616 -3.5097 -0.9514 -0.3355
  147DOPC  C31017560   2.433   3.621  13.439  0.5373 -0.0179 -0.1646
  147DOPC  H10X17561   2.465   3.534  13.380  1.2235  1.2421 -1.7395
  147DOPC  C31117562   2.426   3.748  13.360 -0.0107 -0.2871 -1.0402
  147DOPC  H11X17563   2.507   3.813  13.400  2.1537 -3.3100 -0.1063
  147DOPC  H11Y17564   2.327   3.793  13.382 -0.3682 -1.8302  0.7365
  147DOPC  C31217565   2.438   3.727  13.211 -0.0465  0.2524 -0.0839
  147DOPC  H12X17566   2.513   3.648  13.189 -0.4170 -0.6495  1.6539
  147DOPC  H12Y17567   2.459   3.824  13.163 -2.7066  0.6003 -0.6856
  147DOPC  C31317568   2.309   3.667  13.152  0.5208  0.0839  0.3283
  147DOPC  H13X17569   2.284   3.572  13.205 -2.2276 -0.4635 -1.7231
  147DOPC  H13Y17570   2.223   3.735  13.169 -0.7912 -1.2709 -0.6156
  147DOPC  C31417571   2.322   3.641  13.001  0.8548 -0.0670  0.1704
  147DOPC  H14X17572   2.322   3.737  12.944 -4.2362 -0.5315 -1.0444
  147DOPC  H14Y17573   2.411   3.575  12.984 -0.6462 -2.2863  0.5234
  147DOPC  C31517574   2.213   3.545  12.945  0.2211 -1.4819  0.3162
  147DOPC  H15X17575   2.115   3.597  12.940  0.9666 -0.0018  0.5878
  147DOPC  H15Y17576   2.205   3.444  12.991  3.3748 -0.9719  2.2696
  147DOPC  C31617577   2.241   3.523  12.792  0.7548  0.0893  0.6507
  147DOPC  H16X17578   2.248   3.625  12.749  1.9549  0.6731  2.1316
  147DOPC  H16Y17579   2.334   3.463  12.780  1.0273  0.4426  0.9593
  147DOPC  C31717580   2.136   3.447  12.712 -0.7551 -0.1582 -0.1864
  147DOPC  H17X17581   2.039   3.501  12.722 -0.3439  0.7818 -1.1354
  147DOPC  H17Y17582   2.154   3.450  12.602  0.7018  1.0029  0.0661
  147DOPC  C31817583   2.092   3.297  12.756 -0.0842  0.1915 -0.2262
  147DOPC  H18X17584   2.166   3.229  12.710  0.5917  0.8668 -0.1624
  147DOPC  H18Y17585   2.078   3.299  12.866 -0.3717 -0.0471 -0.2567
  147DOPC  H18Z17586   2.000   3.263  12.703  0.8424 -0.7847 -1.2494
  148DOPC     N17587   4.423   6.328  14.375  0.3842 -0.0529 -0.2843
  148DOPC   C1217588   4.501   6.203  14.401 -0.0179  0.7782 -0.3938
  148DOPC  H12A17589   4.579   6.197  14.326  0.9832  0.7808  0.6265
  148DOPC  H12B17590   4.443   6.114  14.384 -0.6099  1.0806  0.0101
  148DOPC   C1317591   4.500   6.453  14.380  0.0122  0.5850  0.2914
  148DOPC  H13A17592   4.581   6.447  14.308  0.5909  1.0174  0.8931
  148DOPC  H13B17593   4.440   6.540  14.361 -2.1095 -0.7917  0.3376
  148DOPC  H13C17594   4.539   6.464  14.480  0.7616 -0.4279  0.1361
  148DOPC   C1417595   4.313   6.329  14.478 -0.2636 -0.0732  0.1786
  148DOPC  H14A17596   4.253   6.419  14.473 -0.2699 -0.0746  0.2298
  148DOPC  H14B17597   4.251   6.241  14.464 -0.8639  0.2746  0.6008
  148DOPC  H14C17598   4.347   6.333  14.580 -0.2912  1.1457  0.1472
  148DOPC   C1517599   4.348   6.326  14.239  1.1028 -0.5969 -0.5079
  148DOPC  H15A17600   4.418   6.309  14.158  0.8791  1.2249 -1.1458
  148DOPC  H15B17601   4.309   6.424  14.215 -0.0412 -0.6499  0.9783
  148DOPC  H15C17602   4.272   6.250  14.237  0.4229  0.0285 -3.4139
  148DOPC   C1117603   4.565   6.186  14.543  0.2459  0.4985  0.1883
  148DOPC  H11A17604   4.645   6.109  14.537  2.4239  2.6224  0.6306
  148DOPC  H11B17605   4.613   6.279  14.580 -2.1314  0.5507  3.6459
  148DOPC     P17606   4.421   6.004  14.664  0.3888  0.3181  0.1076
  148DOPC   O1317607   4.314   5.994  14.758 -0.6351  0.1334 -0.4730
  148DOPC   O1417608   4.537   5.919  14.684 -0.3520 -0.1818 -0.0250
  148DOPC   O1217609   4.468   6.153  14.648 -0.0785  0.4091 -0.6827
  148DOPC   O1117610   4.371   5.983  14.509  0.3997  0.5403  0.2474
  148DOPC    C117611   4.230   5.974  14.478 -0.0533 -0.1091  0.0144
  148DOPC    HA17612   4.218   5.975  14.367 -1.0893 -0.1730  0.1146
  148DOPC    HB17613   4.177   6.061  14.522  0.7588  0.6535 -0.4791
  148DOPC    C217614   4.169   5.833  14.514  0.5335 -0.2059 -0.2695
  148DOPC    HS17615   4.168   5.833  14.625  1.3749 -1.4943 -0.2352
  148DOPC   O2117616   4.264   5.732  14.472 -0.7928  0.2883 -0.5442
  148DOPC   C2117617   4.219   5.609  14.504  0.3009 -0.5417 -0.3017
  148DOPC   O2217618   4.138   5.582  14.590 -0.1392 -0.0851  0.6994
  148DOPC   C2217619   4.283   5.506  14.413  0.0463 -0.3747  0.3694
  148DOPC   H2R17620   4.361   5.454  14.472  0.3151 -1.9876 -1.3234
  148DOPC   H2S17621   4.308   5.565  14.321  1.9878  0.5358  1.4264
  148DOPC    C317622   4.034   5.808  14.460  0.5748 -0.3909  0.4752
  148DOPC    HX17623   3.988   5.909  14.459  4.2502  1.5351  2.9375
  148DOPC    HY17624   3.977   5.740  14.527 -0.4504 -3.0304 -2.7971
  148DOPC   O3117625   4.047   5.756  14.329 -0.0223 -0.2755  0.2760
  148DOPC   C3117626   3.929   5.750  14.264 -0.2113 -0.9460  0.3727
  148DOPC   O3217627   3.820   5.768  14.316 -0.5818  0.6465  0.9091
  148DOPC   C3217628   3.957   5.730  14.113 -0.3780 -0.1427  0.5108
  148DOPC   H2X17629   3.921   5.821  14.061 -0.6243 -0.6458 -0.2174
  148DOPC   H2Y17630   4.068   5.722  14.109 -0.3010 -2.0563  3.3098
  148DOPC   C2317631   4.182   5.403  14.370  0.9229  0.0037  0.2766
  148DOPC   H3R17632   4.089   5.458  14.340 -0.4172 -1.3365  1.8035
  148DOPC   H3S17633   4.151   5.349  14.462  1.0313 -0.9010 -0.2075
  148DOPC   C2417634   4.226   5.313  14.250  0.1159 -0.5128 -0.4305
  148DOPC   H4R17635   4.151   5.237  14.220  0.2406 -0.9275  0.3031
  148DOPC   H4S17636   4.304   5.245  14.289 -1.1349 -1.1647  1.0660
  148DOPC   C2517637   4.273   5.385  14.134  0.2837  0.1926 -0.2999
  148DOPC   H5R17638   4.363   5.443  14.164 -0.6784  1.8649 -0.5030
  148DOPC   H5S17639   4.190   5.454  14.108 -0.2235  0.6321  2.2315
  148DOPC   C2617640   4.299   5.298  14.009 -0.1368  0.6569 -0.3268
  148DOPC   H6R17641   4.201   5.247  13.995 -0.6338 -1.1672  6.4124
  148DOPC   H6S17642   4.383   5.228  14.032 -0.9125  0.0814  0.8052
  148DOPC   C2717643   4.335   5.380  13.882 -0.1326  0.0090 -1.1798
  148DOPC   H7R17644   4.254   5.456  13.876  0.2461  0.4958 -0.4349
  148DOPC   H7S17645   4.335   5.313  13.794 -0.9157 -0.7652 -0.6046
  148DOPC   C2817646   4.475   5.446  13.909  0.1669  0.2046  0.1986
  148DOPC   H8R17647   4.456   5.518  13.992  2.6470  0.8352  0.2763
  148DOPC   H8S17648   4.496   5.498  13.814 -0.6016 -0.4637 -0.3608
  148DOPC   C2917649   4.582   5.345  13.945 -0.1637  0.0277  0.5206
  148DOPC   H9R17650   4.564   5.303  14.045 -0.4316 -0.7540  0.1564
  148DOPC  C21017651   4.676   5.280  13.869  0.6009 -0.0140 -0.3680
  148DOPC  H10R17652   4.725   5.190  13.910 -0.8571 -1.1624 -1.0319
  148DOPC  C21117653   4.688   5.305  13.718 -0.7419 -0.2372  0.7721
  148DOPC  H11R17654   4.780   5.368  13.714 -1.0771  0.2611  0.8152
  148DOPC  H11S17655   4.604   5.364  13.676 -0.4036 -0.6877 -0.5657
  148DOPC  C21217656   4.717   5.179  13.626  0.3193 -0.4752 -0.2624
  148DOPC  H12R17657   4.638   5.106  13.654 -0.1261 -0.1103 -0.5613
  148DOPC  H12S17658   4.816   5.137  13.654 -0.3779 -2.0432 -0.0720
  148DOPC  C21317659   4.726   5.221  13.477  0.3086  0.4490 -0.7859
  148DOPC  H13R17660   4.821   5.277  13.467  0.3957  0.2546 -1.0732
  148DOPC  H13S17661   4.643   5.291  13.452 -1.6837 -1.7349 -0.6928
  148DOPC  C21417662   4.723   5.114  13.364  0.4695  0.1023  0.2334
  148DOPC  H14R17663   4.742   5.155  13.262 -3.6274 -0.8357 -1.1062
  148DOPC  H14S17664   4.629   5.055  13.364 -0.6545  1.8438 -0.0834
  148DOPC  C21517665   4.840   5.017  13.388 -0.3054  0.0480  0.4955
  148DOPC  H15R17666   4.824   4.960  13.482  1.0118  0.6623  1.1256
  148DOPC  H15S17667   4.939   5.067  13.402  0.5736 -1.4881  0.0822
  148DOPC  C21617668   4.854   4.917  13.267  0.2252 -0.1045  0.1645
  148DOPC  H16R17669   4.890   4.964  13.173  0.2207  2.5923  1.4525
  148DOPC  H16S17670   4.748   4.890  13.243  0.3430  0.3678 -0.9329
  148DOPC  C21717671   4.923   4.786  13.316  0.0537 -0.0818 -0.3883
  148DOPC  H17R17672   4.946   4.727  13.225  2.6498 -0.4491  0.4236
  148DOPC  H17S17673   4.853   4.737  13.387  1.1712 -1.2045 -0.0189
  148DOPC  C21817674   5.063   4.816  13.384  0.4504  0.0913  0.1795
  148DOPC  H18R17675   5.133   4.735  13.353  2.0652  0.6475  2.1081
  148DOPC  H18S17676   5.065   4.818  13.495 -0.2983 -3.4212  0.3787
  148DOPC  H18T17677   5.103   4.905  13.331  0.8955 -0.8895 -1.1723
  148DOPC   C3317678   3.895   5.602  14.054  0.6961 -0.0954  0.8077
  148DOPC   H3X17679   3.785   5.599  14.040  0.8173 -2.7940 -0.1301
  148DOPC   H3Y17680   3.921   5.511  14.112  0.4553 -0.5630  0.1991
  148DOPC   C3417681   3.966   5.566  13.921  0.4335 -0.2058 -0.0426
  148DOPC   H4X17682   4.070   5.604  13.921  1.1256 -2.0174  0.1302
  148DOPC   H4Y17683   3.926   5.621  13.833  1.7451 -2.5683 -2.2471
  148DOPC   C3517684   3.941   5.424  13.869 -0.0272 -0.5951  0.4661
  148DOPC   H5X17685   3.832   5.400  13.863  0.0607 -0.8099 -0.3095
  148DOPC   H5Y17686   3.992   5.350  13.934 -0.5241 -1.5582 -0.2102
  148DOPC   C3617687   3.982   5.412  13.721  0.4732 -0.0234  0.2277
  148DOPC   H6X17688   3.915   5.482  13.666 -0.1346  0.6181  1.7238
  148DOPC   H6Y17689   4.085   5.453  13.725  1.8408 -3.1455 -0.1162
  148DOPC   C3717690   3.999   5.264  13.669 -0.5415 -0.1281  0.4015
  148DOPC   H7X17691   4.086   5.215  13.718 -0.5297 -1.0726 -0.5234
  148DOPC   H7Y17692   3.913   5.204  13.707 -0.3390 -0.1130  0.8917
  148DOPC   C3817693   4.024   5.259  13.516  0.3261 -0.2364  0.1576
  148DOPC   H8X17694   3.942   5.316  13.466 -0.2865 -0.3520  1.0080
  148DOPC   H8Y17695   4.018   5.152  13.488 -0.7300  0.0234 -0.6698
  148DOPC   C3917696   4.150   5.322  13.466  0.0027 -0.2450  0.2921
  148DOPC   H9X17697   4.141   5.430  13.487 -3.4053 -0.1739 -0.9578
  148DOPC  C31017698   4.259   5.274  13.407 -0.4609  0.1704 -0.7782
  148DOPC  H10X17699   4.346   5.341  13.404 -0.3951  0.1081 -0.2629
  148DOPC  C31117700   4.289   5.132  13.360  0.4491 -0.1974  0.3721
  148DOPC  H11X17701   4.194   5.078  13.339 -0.4548  0.9264  1.3550
  148DOPC  H11Y17702   4.361   5.086  13.431  0.7369  1.7510  1.4354
  148DOPC  C31217703   4.353   5.132  13.221 -0.0855  0.2438  0.1602
  148DOPC  H12X17704   4.455   5.176  13.214 -0.2296  0.3997 -1.1635
  148DOPC  H12Y17705   4.293   5.188  13.147  0.5234  3.1325  1.6979
  148DOPC  C31317706   4.376   4.986  13.181 -0.3106 -0.1695 -0.5930
  148DOPC  H13X17707   4.445   4.944  13.257 -2.4372 -0.3728  1.3444
  148DOPC  H13Y17708   4.279   4.932  13.190 -1.2022  1.3364 -0.8078
  148DOPC  C31417709   4.432   4.980  13.044 -0.3028 -0.3174  0.1599
  148DOPC  H14X17710   4.350   5.000  12.972 -0.9800 -2.3629  0.2972
  148DOPC  H14Y17711   4.517   5.050  13.026 -1.3616  0.8468 -0.4737
  148DOPC  C31517712   4.492   4.841  13.004 -0.3559  0.0777 -0.4535
  148DOPC  H15X17713   4.428   4.767  13.057  0.4893 -1.5647 -1.6723
  148DOPC  H15Y17714   4.590   4.843  13.056  0.7477  1.8326 -2.4464
  148DOPC  C31617715   4.507   4.813  12.858 -0.1361  0.4205  0.3102
  148DOPC  H16X17716   4.556   4.713  12.857  2.1360  1.4419 -2.4750
  148DOPC  H16Y17717   4.407   4.808  12.809  0.6128 -0.9805 -1.2118
  148DOPC  C31717718   4.606   4.900  12.786  0.3912  0.4346  0.3378
  148DOPC  H17X17719   4.564   5.003  12.775 -2.3878 -0.7818 -1.8891
  148DOPC  H17Y17720   4.698   4.917  12.846  0.2712  1.0865  0.3494
  148DOPC  C31817721   4.630   4.852  12.644 -0.3737  0.4613  0.1661
  148DOPC  H18X17722   4.717   4.895  12.591 -0.1870 -0.1043  0.0036
  148DOPC  H18Y17723   4.627   4.741  12.643 -0.7461  0.4716 -0.1942
  148DOPC  H18Z17724   4.539   4.888  12.591 -0.4213  2.3998  1.4571
  149DOPC     N17725   2.031   4.120  14.559  1.0681  0.6530  0.2121
  149DOPC   C1217726   2.173   4.164  14.545  0.6366 -0.4244 -0.3471
  149DOPC  H12A17727   2.181   4.256  14.487  0.4126 -1.9672 -2.9891
  149DOPC  H12B17728   2.227   4.088  14.491  1.8327 -0.6541  1.1038
  149DOPC   C1317729   2.026   3.995  14.636 -0.0493  0.3687  0.8522
  149DOPC  H13A17730   2.062   3.912  14.577  4.9814  3.0354 -0.4684
  149DOPC  H13B17731   2.082   4.006  14.727  2.2474  0.6967 -0.5036
  149DOPC  H13C17732   1.922   3.975  14.657 -0.5848 -0.6540 -2.2368
  149DOPC   C1417733   1.966   4.109  14.424 -0.4887  0.0137 -0.7926
  149DOPC  H14A17734   1.965   4.207  14.377 -1.3723 -0.6286 -2.1971
  149DOPC  H14B17735   2.029   4.046  14.363 -0.0165 -0.3584  0.0712
  149DOPC  H14C17736   1.866   4.074  14.446  0.1795 -0.5154  1.6295
  149DOPC   C1517737   1.950   4.228  14.631  0.7107  0.4994 -0.3530
  149DOPC  H15A17738   1.844   4.222  14.612  0.5711  2.7312 -0.5717
  149DOPC  H15B17739   1.980   4.322  14.587  0.0297  0.5423 -0.7442
  149DOPC  H15C17740   1.972   4.236  14.736 -0.9722 -1.4773  0.2108
  149DOPC   C1117741   2.252   4.202  14.677  0.9526  0.3232 -0.2217
  149DOPC  H11A17742   2.349   4.247  14.649  2.5738 -1.9620  1.3288
  149DOPC  H11B17743   2.192   4.276  14.735  2.0065  2.1588 -1.4094
  149DOPC     P17744   2.398   4.002  14.759 -0.2326  0.2302  0.1798
  149DOPC   O1317745   2.363   3.871  14.824 -0.5821 -0.5403 -0.0969
  149DOPC   O1417746   2.515   4.079  14.805  0.1126  0.0664 -0.2477
  149DOPC   O1217747   2.274   4.099  14.777 -0.2433  0.2659 -0.0107
  149DOPC   O1117748   2.405   3.985  14.599  0.1457 -0.3331 -0.4144
  149DOPC    C117749   2.532   4.014  14.537 -0.0305  0.0047 -0.1191
  149DOPC    HA17750   2.606   3.941  14.576 -0.6639 -0.0624  1.0138
  149DOPC    HB17751   2.557   4.118  14.567  0.6529 -0.6117  1.5668
  149DOPC    C217752   2.520   4.017  14.386  0.0211 -0.6666 -0.1642
  149DOPC    HS17753   2.450   4.097  14.353  1.1333  0.4060  0.0036
  149DOPC   O2117754   2.470   3.892  14.346  0.1944  0.1357  0.1567
  149DOPC   C2117755   2.339   3.878  14.342 -0.8741 -0.1841 -0.3914
  149DOPC   O2217756   2.260   3.968  14.341  0.0513 -0.2654 -0.0388
  149DOPC   C2217757   2.303   3.725  14.339  0.3589 -0.5884 -0.0333
  149DOPC   H2R17758   2.307   3.684  14.442 -0.6064  2.0550  1.1391
  149DOPC   H2S17759   2.383   3.665  14.292  0.2215 -0.4771 -0.4150
  149DOPC    C317760   2.660   4.054  14.322 -0.2737 -0.1249  0.3318
  149DOPC    HX17761   2.732   3.978  14.360 -0.5279  0.1551  1.3877
  149DOPC    HY17762   2.696   4.150  14.365  5.0007 -0.8107 -1.7270
  149DOPC   O3117763   2.660   4.053  14.177 -0.7692  0.2852 -0.4295
  149DOPC   C3117764   2.654   4.171  14.118  0.0100 -1.2268 -0.1303
  149DOPC   O3217765   2.666   4.280  14.172  0.2779  0.6821  0.2339
  149DOPC   C3217766   2.656   4.150  13.958 -0.3623 -1.1802  0.4901
  149DOPC   H2X17767   2.601   4.059  13.925  2.4565 -2.4441 -1.0405
  149DOPC   H2Y17768   2.609   4.240  13.913  1.5387 -0.1429  0.4777
  149DOPC   C2317769   2.180   3.677  14.264  0.5458 -0.3671  0.7811
  149DOPC   H3R17770   2.087   3.722  14.304  0.0820 -0.4070 -0.2358
  149DOPC   H3S17771   2.178   3.567  14.276 -0.1962 -0.2680  1.6070
  149DOPC   C2417772   2.189   3.698  14.105 -0.2836 -0.2713  0.4288
  149DOPC   H4R17773   2.274   3.641  14.062 -0.4879 -0.4317  0.2344
  149DOPC   H4S17774   2.198   3.807  14.086  1.2108 -0.4809 -0.1696
  149DOPC   C2517775   2.059   3.648  14.046  0.3653 -0.3930 -0.0035
  149DOPC   H5R17776   1.973   3.696  14.096  0.4924 -0.9610  0.7814
  149DOPC   H5S17777   2.056   3.545  14.087  1.3666  0.4604  2.3445
  149DOPC   C2617778   2.045   3.658  13.895  0.6055 -0.2820  0.5561
  149DOPC   H6R17779   2.146   3.623  13.863  1.4799  0.6988  2.1607
  149DOPC   H6S17780   2.028   3.765  13.873 -2.1634 -0.9787 -1.1732
  149DOPC   C2717781   1.922   3.588  13.825 -0.1097  0.0245 -0.0350
  149DOPC   H7R17782   1.829   3.610  13.881 -1.7448 -2.5429 -1.5781
  149DOPC   H7S17783   1.952   3.483  13.844  0.1359  0.5064  2.6213
  149DOPC   C2817784   1.899   3.602  13.678 -0.2073 -0.0845  0.3622
  149DOPC   H8R17785   1.877   3.709  13.658 -0.6088 -0.3378 -0.5974
  149DOPC   H8S17786   1.802   3.559  13.645 -0.5915  2.2454 -1.7963
  149DOPC   C2917787   2.025   3.565  13.595  0.1050  0.4868 -0.2935
  149DOPC   H9R17788   2.100   3.505  13.648 -0.1219  0.1662 -0.3335
  149DOPC  C21017789   2.032   3.577  13.463 -0.3967 -0.0977 -0.2993
  149DOPC  H10R17790   2.120   3.534  13.413 -0.9994 -1.2075 -0.4505
  149DOPC  C21117791   1.930   3.633  13.373 -0.2085 -0.0168  1.0502
  149DOPC  H11R17792   1.979   3.720  13.324  0.1932 -0.5673  0.4462
  149DOPC  H11S17793   1.845   3.666  13.435 -0.5162 -1.5821  1.5232
  149DOPC  C21217794   1.875   3.537  13.261 -0.2055 -0.3842 -0.3074
  149DOPC  H12R17795   1.849   3.446  13.320  2.0915 -0.6393  0.4164
  149DOPC  H12S17796   1.959   3.508  13.194  0.5027 -0.3069  0.5274
  149DOPC  C21317797   1.752   3.599  13.189 -0.6884  0.0965  0.5963
  149DOPC  H13R17798   1.763   3.700  13.144  0.4691  0.7060  2.1431
  149DOPC  H13S17799   1.674   3.613  13.267 -1.6447 -2.9586  0.3316
  149DOPC  C21417800   1.694   3.507  13.083  0.8155 -0.1394 -0.2001
  149DOPC  H14R17801   1.690   3.402  13.119  0.3524 -0.0754 -0.0497
  149DOPC  H14S17802   1.765   3.504  12.998 -0.1405 -1.2638 -0.9951
  149DOPC  C21517803   1.567   3.562  13.018  0.7680 -0.5401 -0.2034
  149DOPC  H15R17804   1.585   3.667  12.986  0.6807 -1.0775 -2.0825
  149DOPC  H15S17805   1.476   3.556  13.083  0.8275  1.8090  0.2103
  149DOPC  C21617806   1.544   3.490  12.885 -0.6971 -0.6469  0.6274
  149DOPC  H16R17807   1.554   3.380  12.890 -0.7592 -0.6480  0.7366
  149DOPC  H16S17808   1.620   3.525  12.812  0.2384 -1.2044  1.2988
  149DOPC  C21717809   1.403   3.532  12.828  0.4166 -0.0633 -0.3869
  149DOPC  H17R17810   1.393   3.641  12.809 -1.7211  0.0601  1.1962
  149DOPC  H17S17811   1.322   3.514  12.901 -0.1633  0.5447 -0.8648
  149DOPC  C21817812   1.358   3.453  12.701  1.4840  0.5881  0.0886
  149DOPC  H18R17813   1.370   3.344  12.720  3.1866  0.3558 -1.8783
  149DOPC  H18S17814   1.428   3.475  12.617  0.6550 -0.0151 -0.7868
  149DOPC  H18T17815   1.251   3.469  12.677  1.4318 -0.7141 -0.6871
  149DOPC   C3317816   2.804   4.150  13.904 -0.3753 -0.0766  1.2816
  149DOPC   H3X17817   2.861   4.076  13.964  1.9941  2.1121  1.9119
  149DOPC   H3Y17818   2.840   4.251  13.933 -2.3396  1.0903 -0.0376
  149DOPC   C3417819   2.817   4.126  13.757  0.1586 -0.0398 -0.1289
  149DOPC   H4X17820   2.919   4.151  13.722 -0.6617  3.7416 -0.3017
  149DOPC   H4Y17821   2.757   4.207  13.708 -1.6372 -0.5394  1.1255
  149DOPC   C3517822   2.778   3.981  13.713 -1.0366  0.0735  0.0745
  149DOPC   H5X17823   2.679   3.952  13.754 -0.1170 -2.1860  0.8650
  149DOPC   H5Y17824   2.849   3.913  13.764 -1.3474 -0.0774  0.3110
  149DOPC   C3617825   2.763   3.958  13.566  0.8026 -0.1710 -0.3551
  149DOPC   H6X17826   2.722   3.855  13.556 -0.2253  0.3629 -1.8788
  149DOPC   H6Y17827   2.680   4.022  13.530  1.8059 -0.2176 -2.9152
  149DOPC   C3717828   2.881   3.996  13.479  0.0588 -0.3367 -0.2023
  149DOPC   H7X17829   2.913   4.101  13.497  0.6182 -0.5843  0.2858
  149DOPC   H7Y17830   2.966   3.929  13.502 -1.0906 -2.7040 -2.4025
  149DOPC   C3817831   2.859   3.954  13.331 -0.0614 -0.6328 -0.3992
  149DOPC   H8X17832   2.829   3.848  13.324  2.6909 -1.4421 -1.2435
  149DOPC   H8Y17833   2.962   3.957  13.290  0.5649  0.8838  1.1557
  149DOPC   C3917834   2.763   4.043  13.260 -0.1503  0.9992  0.2107
  149DOPC   H9X17835   2.733   4.136  13.311  0.1159  2.1551 -1.6271
  149DOPC  C31017836   2.711   4.021  13.137 -0.6450 -0.3850  0.6506
  149DOPC  H10X17837   2.644   4.097  13.095  2.0853  2.0586  0.4282
  149DOPC  C31117838   2.743   3.902  13.045 -0.0170 -0.1107  0.3788
  149DOPC  H11X17839   2.648   3.850  13.020 -0.4577  1.0495 -0.4281
  149DOPC  H11Y17840   2.807   3.832  13.103  1.9887  1.7734  0.5690
  149DOPC  C31217841   2.829   3.947  12.930 -0.3937 -0.4185  0.2043
  149DOPC  H12X17842   2.853   3.854  12.874 -0.4513  0.3989 -1.2191
  149DOPC  H12Y17843   2.924   4.001  12.948  0.7439 -2.1772 -0.2349
  149DOPC  C31317844   2.735   4.026  12.832 -0.7407 -0.5598 -0.0115
  149DOPC  H13X17845   2.640   3.970  12.820 -1.2190  0.4935 -1.4530
  149DOPC  H13Y17846   2.708   4.117  12.889 -0.3869 -0.6807  0.3576
  149DOPC  C31417847   2.791   4.068  12.693  0.1461  0.2370 -0.6528
  149DOPC  H14X17848   2.706   4.109  12.634 -0.7417  0.7643  0.9206
  149DOPC  H14Y17849   2.867   4.146  12.715 -0.2847  0.6578 -0.6322
  149DOPC  C31517850   2.860   3.945  12.627  0.8507  0.4001  0.1236
  149DOPC  H15X17851   2.793   3.859  12.646  0.9274  0.1655 -0.6532
  149DOPC  H15Y17852   2.956   3.925  12.679  0.1264  0.3677  1.4916
  149DOPC  C31617853   2.898   3.983  12.482 -0.5209  0.1128 -0.2885
  149DOPC  H16X17854   2.807   4.001  12.422  0.7904  1.3803 -2.0090
  149DOPC  H16Y17855   2.953   4.079  12.483 -1.6515  0.7857  1.6178
  149DOPC  C31717856   2.990   3.892  12.410  0.9131  0.1731 -0.0930
  149DOPC  H17X17857   3.083   3.883  12.470  3.3581  0.4694 -3.4920
  149DOPC  H17Y17858   2.961   3.786  12.392  2.0185 -0.1324 -0.1990
  149DOPC  C31817859   3.013   3.952  12.279 -0.4249  0.3841 -0.2097
  149DOPC  H18X17860   3.075   3.889  12.212 -0.3766 -0.2798  0.4375
  149DOPC  H18Y17861   2.918   3.966  12.223 -0.6738  0.5803  0.2573
  149DOPC  H18Z17862   3.061   4.051  12.291 -0.3065  0.1283  1.7815
  150DOPC     N17863   5.426   4.865  15.327  0.5388 -0.2151  0.4077
  150DOPC   C1217864   5.558   4.827  15.260  0.5664  1.1396  0.2256
  150DOPC  H12A17865   5.628   4.908  15.274  1.7974  0.5884 -2.2195
  150DOPC  H12B17866   5.546   4.816  15.153 -0.6590  1.5502  0.3105
  150DOPC   C1317867   5.328   4.755  15.299  0.2610  0.7335  0.5597
  150DOPC  H13A17868   5.357   4.666  15.353  0.6484 -0.3900 -1.4131
  150DOPC  H13B17869   5.228   4.783  15.329 -1.0009 -1.6295 -1.0975
  150DOPC  H13C17870   5.315   4.735  15.194 -2.9518 -0.4694  1.0689
  150DOPC   C1417871   5.372   4.982  15.271 -0.1308  0.5124 -0.5501
  150DOPC  H14A17872   5.350   4.981  15.165 -1.4577  0.2640 -0.2873
  150DOPC  H14B17873   5.273   5.010  15.304  0.1731  1.3985 -0.3611
  150DOPC  H14C17874   5.437   5.068  15.280  1.7967 -0.9916  1.0960
  150DOPC   C1517875   5.448   4.889  15.478  0.4429 -0.3819 -0.0817
  150DOPC  H15A17876   5.356   4.931  15.517 -1.5940 -3.7700 -0.7781
  150DOPC  H15B17877   5.529   4.958  15.496  0.0320 -0.1333  0.9147
  150DOPC  H15C17878   5.475   4.797  15.528 -2.4953 -1.4588 -0.2700
  150DOPC   C1117879   5.639   4.703  15.301 -0.0463  0.8206 -0.5626
  150DOPC  H11A17880   5.721   4.690  15.227 -0.9073 -1.5142 -1.1934
  150DOPC  H11B17881   5.680   4.712  15.403 -1.1030 -1.1964  0.0854
  150DOPC     P17882   5.547   4.475  15.194  0.4487  0.1925  0.1843
  150DOPC   O1317883   5.415   4.420  15.218  0.2055  0.4082  0.4343
  150DOPC   O1417884   5.659   4.379  15.172 -0.6439  0.2206 -0.1753
  150DOPC   O1217885   5.571   4.578  15.310 -0.0549  0.4152 -0.2563
  150DOPC   O1117886   5.538   4.569  15.066 -0.1411 -0.4528  0.7021
  150DOPC    C117887   5.426   4.570  14.977 -0.3144 -0.3368  0.6754
  150DOPC    HA17888   5.437   4.663  14.917 -1.7986 -1.0047 -0.6913
  150DOPC    HB17889   5.328   4.564  15.030 -0.9159  1.7674 -0.1113
  150DOPC    C217890   5.440   4.454  14.881 -0.2287  0.1388  0.6781
  150DOPC    HS17891   5.438   4.355  14.931 -0.7119 -0.6928 -0.9150
  150DOPC   O2117892   5.547   4.490  14.794  0.2910  0.0720  0.3618
  150DOPC   C2117893   5.638   4.400  14.780 -0.2808  0.5156 -0.0681
  150DOPC   O2217894   5.650   4.298  14.847 -0.2664 -0.5389  0.3936
  150DOPC   C2217895   5.742   4.435  14.672  0.0242  0.2118 -0.1334
  150DOPC   H2R17896   5.818   4.354  14.676 -0.0008  0.2516  1.4693
  150DOPC   H2S17897   5.800   4.529  14.683 -0.4312  0.5808 -0.8146
  150DOPC    C317898   5.305   4.433  14.805 -0.3098 -0.0377 -0.1696
  150DOPC    HX17899   5.267   4.529  14.763 -0.0380 -0.9892 -2.7272
  150DOPC    HY17900   5.226   4.404  14.877 -0.3017  0.7092  0.1526
  150DOPC   O3117901   5.331   4.340  14.704 -0.2575  0.0146  0.8431
  150DOPC   C3117902   5.227   4.271  14.658  0.0015  0.6958  0.3666
  150DOPC   O3217903   5.110   4.296  14.681  0.0349 -0.0232  0.2002
  150DOPC   C3217904   5.289   4.169  14.558 -0.2156  0.2090  0.0886
  150DOPC   H2X17905   5.214   4.144  14.479  0.4345 -0.1541 -0.4290
  150DOPC   H2Y17906   5.383   4.216  14.523 -0.8541  2.3155  1.0462
  150DOPC   C2317907   5.685   4.432  14.530  0.4075  0.0038  0.1010
  150DOPC   H3R17908   5.587   4.483  14.525 -0.2526 -1.0789  1.3267
  150DOPC   H3S17909   5.677   4.329  14.490 -0.7501  0.9311 -2.1719
  150DOPC   C2417910   5.775   4.506  14.432  0.3927  0.3920 -0.1222
  150DOPC   H4R17911   5.876   4.461  14.416  1.0939  1.6382  0.6532
  150DOPC   H4S17912   5.779   4.610  14.471 -2.2562  0.9240 -1.0404
  150DOPC   C2517913   5.701   4.516  14.300  0.1873  0.5429  0.1993
  150DOPC   H5R17914   5.602   4.566  14.314 -1.7744 -3.2465  1.0488
  150DOPC   H5S17915   5.676   4.411  14.274  1.9698  0.2354 -0.4190
  150DOPC   C2617916   5.775   4.585  14.183  0.1800  0.5142  0.1713
  150DOPC   H6R17917   5.875   4.537  14.179 -0.6184 -1.2441  0.4321
  150DOPC   H6S17918   5.778   4.696  14.190  1.0856  0.5139 -0.1372
  150DOPC   C2717919   5.708   4.556  14.043  0.1122 -0.1193 -0.5543
  150DOPC   H7R17920   5.601   4.584  14.039  0.7541  2.4459 -1.6578
  150DOPC   H7S17921   5.695   4.445  14.041 -1.7707 -0.0641  2.3882
  150DOPC   C2817922   5.775   4.601  13.921 -0.7137 -0.0530  0.3465
  150DOPC   H8R17923   5.863   4.541  13.891 -1.2324 -0.1606 -1.0294
  150DOPC   H8S17924   5.814   4.700  13.953 -0.3896  0.3217 -1.1363
  150DOPC   C2917925   5.687   4.641  13.802  0.2781  0.5645  0.0498
  150DOPC   H9R17926   5.608   4.710  13.837  0.0001  0.7428 -0.8963
  150DOPC  C21017927   5.695   4.601  13.677  0.5529 -0.1692  0.2428
  150DOPC  H10R17928   5.613   4.617  13.606  0.1569 -3.3001 -0.1248
  150DOPC  C21117929   5.792   4.505  13.622 -0.4122  0.4872  0.4928
  150DOPC  H11R17930   5.806   4.430  13.703  2.0615  1.2662  0.8921
  150DOPC  H11S17931   5.896   4.545  13.622  0.2116 -1.0344  1.6638
  150DOPC  C21217932   5.766   4.427  13.486  0.4663  0.4501  0.6031
  150DOPC  H12R17933   5.661   4.400  13.462  0.4874 -0.8499  1.8304
  150DOPC  H12S17934   5.820   4.330  13.498 -0.7140 -0.4889 -1.1856
  150DOPC  C21317935   5.837   4.492  13.361 -0.1223  0.2054 -0.2699
  150DOPC  H13R17936   5.935   4.528  13.399 -0.7186  1.1878  0.3791
  150DOPC  H13S17937   5.782   4.585  13.334  0.5524  1.0354  1.1292
  150DOPC  C21417938   5.838   4.405  13.238 -0.4597 -0.2084 -0.8552
  150DOPC  H14R17939   5.733   4.371  13.223  0.0889 -0.8276 -3.9141
  150DOPC  H14S17940   5.904   4.318  13.260 -0.6266  0.2295  1.7247
  150DOPC  C21517941   5.894   4.473  13.114  0.0689 -0.0867  0.2906
  150DOPC  H15R17942   5.995   4.511  13.140 -0.6560  3.3615 -1.3289
  150DOPC  H15S17943   5.842   4.566  13.081  0.3796  0.1319  0.4144
  150DOPC  C21617944   5.910   4.387  12.992  0.2271  0.3188 -0.0796
  150DOPC  H16R17945   5.811   4.368  12.946  0.7361  2.2781 -2.1304
  150DOPC  H16S17946   5.940   4.290  13.036 -0.1125  0.3888  0.3137
  150DOPC  C21717947   6.001   4.443  12.877  0.6476 -0.1297 -0.2317
  150DOPC  H17R17948   6.108   4.419  12.893  0.3474 -1.6971 -0.4707
  150DOPC  H17S17949   5.984   4.553  12.877  1.5666  0.0736  2.1254
  150DOPC  C21817950   5.964   4.374  12.747  0.9496 -0.4532  0.0397
  150DOPC  H18R17951   5.855   4.379  12.726  1.0101 -0.7381 -0.3626
  150DOPC  H18S17952   5.988   4.265  12.747  0.2881 -0.6907 -3.0924
  150DOPC  H18T17953   6.015   4.425  12.663 -0.4312  1.8074  0.4828
  150DOPC   C3317954   5.345   4.035  14.628  0.2561  0.2607  0.8303
  150DOPC   H3X17955   5.261   3.984  14.679  0.6678 -0.8339  0.4667
  150DOPC   H3Y17956   5.412   4.053  14.715  0.2394 -2.1273  1.4073
  150DOPC   C3417957   5.414   3.940  14.528  0.7961 -0.1717 -0.3182
  150DOPC   H4X17958   5.329   3.922  14.458 -0.4738 -0.1060  1.1537
  150DOPC   H4Y17959   5.443   3.841  14.569  1.0481 -0.3627 -0.9371
  150DOPC   C3517960   5.526   4.009  14.446  0.3760  0.5833  0.2324
  150DOPC   H5X17961   5.607   4.036  14.517  1.1031 -2.5530  0.7340
  150DOPC   H5Y17962   5.484   4.095  14.389  1.0678  1.4739  1.0395
  150DOPC   C3617963   5.590   3.923  14.332 -0.2627 -0.1489  0.8058
  150DOPC   H6X17964   5.508   3.912  14.258 -0.7077 -0.4359  1.3410
  150DOPC   H6Y17965   5.681   3.976  14.295 -0.4554  0.3914  1.0946
  150DOPC   C3717966   5.640   3.781  14.371  1.0190 -0.3848 -0.1438
  150DOPC   H7X17967   5.725   3.792  14.441  0.0211 -3.2572  1.7097
  150DOPC   H7Y17968   5.551   3.729  14.414  1.9162 -1.3198  0.6267
  150DOPC   C3817969   5.689   3.692  14.249 -0.1071 -1.0178  0.1488
  150DOPC   H8X17970   5.606   3.702  14.176  0.1872 -1.4344 -0.2472
  150DOPC   H8Y17971   5.703   3.585  14.276  2.5341 -0.9761 -0.7723
  150DOPC   C3917972   5.818   3.735  14.189  0.7046  0.3497  0.1495
  150DOPC   H9X17973   5.898   3.720  14.263  0.2855  1.5516  0.8766
  150DOPC  C31017974   5.852   3.787  14.065  0.7208  0.1849 -0.2882
  150DOPC  H10X17975   5.959   3.807  14.052  0.5166  0.9787 -0.8397
  150DOPC  C31117976   5.766   3.822  13.950  0.0244  0.0390  0.5108
  150DOPC  H11X17977   5.803   3.915  13.902  2.2507 -0.1420  1.7134
  150DOPC  H11Y17978   5.660   3.838  13.976 -0.4352  0.2653 -1.3607
  150DOPC  C31217979   5.774   3.705  13.853  0.0826 -0.4864  0.4469
  150DOPC  H12X17980   5.736   3.611  13.898 -0.5353 -1.7432 -2.4590
  150DOPC  H12Y17981   5.878   3.682  13.822 -0.7269 -0.5184 -2.5889
  150DOPC  C31317982   5.693   3.721  13.721  0.0397  0.1219 -0.1158
  150DOPC  H13X17983   5.589   3.743  13.752 -1.2918 -3.4396 -1.5772
  150DOPC  H13Y17984   5.733   3.808  13.664 -0.3651  0.3082 -0.1196
  150DOPC  C31417985   5.693   3.594  13.635 -0.2045  0.1892  0.3982
  150DOPC  H14X17986   5.799   3.568  13.616 -0.5529 -1.1306  0.1419
  150DOPC  H14Y17987   5.641   3.506  13.679  1.2923 -0.0597  1.7576
  150DOPC  C31517988   5.641   3.632  13.490  0.1759 -0.6498  0.9429
  150DOPC  H15X17989   5.712   3.701  13.440 -1.1568  0.4796  0.5482
  150DOPC  H15Y17990   5.549   3.692  13.509 -0.3060 -0.8010 -0.7183
  150DOPC  C31617991   5.610   3.513  13.401  0.0378 -0.0035  0.3280
  150DOPC  H16X17992   5.679   3.428  13.417  0.5959  0.1720 -1.0198
  150DOPC  H16Y17993   5.505   3.484  13.425 -1.5072  4.0728 -0.5280
  150DOPC  C31717994   5.620   3.543  13.254 -0.1470 -0.0436  0.0315
  150DOPC  H17X17995   5.549   3.626  13.234  0.9676  0.9726  0.1883
  150DOPC  H17Y17996   5.724   3.576  13.231  0.3324 -2.3488 -1.4207
  150DOPC  C31817997   5.586   3.423  13.159 -0.4205 -0.3950  0.1447
  150DOPC  H18X17998   5.671   3.353  13.148  0.7737  1.1235 -0.5779
  150DOPC  H18Y17999   5.495   3.381  13.209 -0.4798  0.6025  0.9035
  150DOPC  H18Z18000   5.544   3.465  13.066  2.4257  0.4025 -0.8651
  151DOPC     N18001   3.558   4.406  15.097  0.5673  0.4808 -0.0785
  151DOPC   C1218002   3.578   4.344  14.962 -0.5813  0.6947 -0.3748
  151DOPC  H12A18003   3.683   4.328  14.942  0.1021  2.0376  1.8265
  151DOPC  H12B18004   3.546   4.409  14.882 -2.4356  0.2358 -0.0564
  151DOPC   C1318005   3.604   4.550  15.105  0.1863 -0.0326  0.2121
  151DOPC  H13A18006   3.539   4.621  15.056 -1.1486 -0.5610  1.1635
  151DOPC  H13B18007   3.612   4.575  15.210  1.4210  1.3279 -0.1697
  151DOPC  H13C18008   3.697   4.554  15.050  0.6335 -2.1607  0.7093
  151DOPC   C1418009   3.627   4.329  15.200 -0.2824  0.5640 -0.7185
  151DOPC  H14A18010   3.587   4.229  15.200  0.6327  0.1852 -0.1339
  151DOPC  H14B18011   3.729   4.306  15.174 -1.4276 -3.7283 -2.1245
  151DOPC  H14C18012   3.624   4.376  15.298  0.6369 -0.7744 -0.0282
  151DOPC   C1518013   3.411   4.403  15.136 -0.5955 -0.5429 -0.3922
  151DOPC  H15A18014   3.368   4.304  15.127  0.5219 -1.0190 -0.6011
  151DOPC  H15B18015   3.356   4.483  15.088  2.0320  1.3555 -0.4348
  151DOPC  H15C18016   3.400   4.422  15.242 -2.4957 -1.5874 -0.3464
  151DOPC   C1118017   3.500   4.215  14.932  0.7445  0.5462  0.5617
  151DOPC  H11A18018   3.533   4.190  14.829 -0.4995  0.0958  0.2528
  151DOPC  H11B18019   3.524   4.129  14.998 -0.1786 -0.2938 -0.1522
  151DOPC     P18020   3.293   4.292  14.802 -0.0386 -0.2129  0.0193
  151DOPC   O1318021   3.395   4.368  14.727  0.8817  0.2658 -0.0976
  151DOPC   O1418022   3.166   4.364  14.827 -0.1767 -0.3755 -0.0189
  151DOPC   O1218023   3.360   4.228  14.926  0.0239 -0.5604  0.2008
  151DOPC   O1118024   3.257   4.168  14.718 -0.1691 -0.3647  0.1497
  151DOPC    C118025   3.222   4.038  14.763  0.2887  0.0702 -0.2698
  151DOPC    HA18026   3.117   4.024  14.729  0.6123 -1.4927 -0.7008
  151DOPC    HB18027   3.243   4.031  14.871 -3.1766  1.8219  0.6930
  151DOPC    C218028   3.305   3.931  14.685 -0.0225  0.1866  0.9477
  151DOPC    HS18029   3.407   3.940  14.727  0.6895 -3.3733  0.2884
  151DOPC   O2118030   3.322   3.958  14.550  0.8529 -0.3378 -0.2626
  151DOPC   C2118031   3.223   3.937  14.471 -0.0620  0.5111  0.1603
  151DOPC   O2218032   3.105   3.922  14.492 -0.6084 -0.6400 -0.2161
  151DOPC   C2218033   3.288   3.910  14.336  0.1593  0.1114 -0.3546
  151DOPC   H2R18034   3.333   3.808  14.338 -0.0114  0.0411 -0.1484
  151DOPC   H2S18035   3.364   3.991  14.332  0.4444 -0.1636 -0.5510
  151DOPC    C318036   3.261   3.784  14.718 -0.9055  0.5536  0.2761
  151DOPC    HX18037   3.153   3.783  14.690 -1.4818  4.2674  1.7915
  151DOPC    HY18038   3.270   3.762  14.826 -1.5704  1.9235  0.6293
  151DOPC   O3118039   3.328   3.686  14.631  0.0510  0.9202  0.2333
  151DOPC   C3118040   3.385   3.577  14.687  0.1686  1.1064 -0.3896
  151DOPC   O3218041   3.388   3.557  14.808 -0.8873 -0.1610 -0.0771
  151DOPC   C3218042   3.473   3.492  14.587 -0.6071  0.1999 -0.9510
  151DOPC   H2X18043   3.541   3.564  14.537 -0.0900 -0.4588 -1.2087
  151DOPC   H2Y18044   3.539   3.423  14.645 -1.5727 -1.9824 -2.2936
  151DOPC   C2318045   3.188   3.920  14.217  0.0553  0.4398 -0.4400
  151DOPC   H3R18046   3.130   4.015  14.211  0.6848  0.7614 -2.1146
  151DOPC   H3S18047   3.123   3.830  14.226  0.0691  0.1985 -2.2165
  151DOPC   C2418048   3.255   3.911  14.087  1.2426  0.4559  0.2310
  151DOPC   H4R18049   3.340   3.839  14.096  1.4288  0.5426 -0.7329
  151DOPC   H4S18050   3.297   4.008  14.053  0.6853  1.2620  1.7791
  151DOPC   C2518051   3.145   3.864  13.984  1.0611 -0.0546 -0.3747
  151DOPC   H5R18052   3.055   3.928  13.999  0.5204 -1.0533  0.7591
  151DOPC   H5S18053   3.107   3.765  14.016  0.2704  0.9270  2.0024
  151DOPC   C2618054   3.195   3.875  13.842  0.2988  0.2418 -0.1286
  151DOPC   H6R18055   3.123   3.818  13.779  0.8131 -0.5712  0.0065
  151DOPC   H6S18056   3.294   3.825  13.844 -0.5264 -1.5655 -0.9957
  151DOPC   C2718057   3.199   4.011  13.781 -0.1505 -0.6097 -0.2983
  151DOPC   H7R18058   3.232   4.076  13.865  0.9839  1.2165 -2.0714
  151DOPC   H7S18059   3.097   4.037  13.745 -0.1464 -2.6142 -1.9372
  151DOPC   C2818060   3.280   4.034  13.651  0.0213  0.1614 -0.4622
  151DOPC   H8R18061   3.255   3.957  13.575 -2.2536  2.1190 -1.8125
  151DOPC   H8S18062   3.386   4.011  13.675 -0.2864 -0.3986  0.3830
  151DOPC   C2918063   3.271   4.179  13.603  0.4082 -0.2150  0.6868
  151DOPC   H9R18064   3.324   4.249  13.669  1.5800 -1.1345  0.7467
  151DOPC  C21018065   3.232   4.224  13.481  0.0775  0.1957 -0.2850
  151DOPC  H10R18066   3.228   4.333  13.468  1.4677  0.2738 -0.2370
  151DOPC  C21118067   3.178   4.139  13.364  0.1839  0.0200  0.8734
  151DOPC  H11R18068   3.072   4.169  13.349 -0.0210 -1.0648  0.0418
  151DOPC  H11S18069   3.188   4.030  13.382 -0.2374 -0.0092  0.9345
  151DOPC  C21218070   3.260   4.167  13.241  0.0366 -0.0547  0.1354
  151DOPC  H12R18071   3.332   4.084  13.224  0.8958  0.5230  0.8821
  151DOPC  H12S18072   3.319   4.261  13.245 -2.4736  1.5560  2.1405
  151DOPC  C21318073   3.172   4.201  13.122 -0.1485 -0.1675 -0.0992
  151DOPC  H13R18074   3.129   4.303  13.135 -0.9609 -0.4646 -0.3977
  151DOPC  H13S18075   3.084   4.134  13.107 -0.7193  0.7174 -0.8398
  151DOPC  C21418076   3.250   4.193  12.993 -0.4209 -0.1225  0.2146
  151DOPC  H14R18077   3.279   4.091  12.959  0.4424  0.5230 -1.1036
  151DOPC  H14S18078   3.344   4.252  12.999  0.9883 -2.3681  1.9355
  151DOPC  C21518079   3.164   4.255  12.881  0.4220 -0.2191  0.3768
  151DOPC  H15R18080   3.127   4.356  12.909  1.3176  1.1621 -2.9881
  151DOPC  H15S18081   3.078   4.189  12.856 -0.9998  2.2876 -1.9080
  151DOPC  C21618082   3.234   4.261  12.741  0.2283  0.3227  0.7206
  151DOPC  H16R18083   3.254   4.153  12.723 -1.7734 -0.1864  1.2976
  151DOPC  H16S18084   3.330   4.316  12.752 -0.6193  2.5211 -1.7906
  151DOPC  C21718085   3.146   4.314  12.629  0.0083  0.8710  0.8487
  151DOPC  H17R18086   3.146   4.423  12.648  3.5223  0.8949  1.2972
  151DOPC  H17S18087   3.043   4.277  12.647 -0.2463  1.0647 -0.1183
  151DOPC  C21818088   3.193   4.296  12.482  0.1018 -0.0330 -0.5629
  151DOPC  H18R18089   3.110   4.336  12.421 -1.9285 -1.4457  1.1265
  151DOPC  H18S18090   3.217   4.195  12.444  0.8084 -0.0239 -0.1686
  151DOPC  H18T18091   3.284   4.357  12.461 -0.0980  1.0169  1.3954
  151DOPC   C3318092   3.393   3.403  14.491 -0.0848 -0.0669 -0.0780
  151DOPC   H3X18093   3.318   3.337  14.538  0.2322  1.4541  2.7246
  151DOPC   H3Y18094   3.467   3.334  14.445 -3.0388 -2.3831 -1.7493
  151DOPC   C3418095   3.351   3.488  14.371  0.2913 -0.8789  0.1906
  151DOPC   H4X18096   3.435   3.549  14.331 -1.0489  0.5568 -0.5392
  151DOPC   H4Y18097   3.263   3.548  14.403  1.9946  1.6719  0.4277
  151DOPC   C3518098   3.311   3.397  14.256 -0.9534 -0.7463  0.3475
  151DOPC   H5X18099   3.247   3.314  14.293 -1.1731 -1.6856 -1.9481
  151DOPC   H5Y18100   3.401   3.350  14.212 -0.4110  0.8781 -0.3656
  151DOPC   C3618101   3.257   3.476  14.137  0.0980  0.3771  0.4647
  151DOPC   H6X18102   3.170   3.536  14.172 -0.1108 -0.0177  0.6383
  151DOPC   H6Y18103   3.339   3.542  14.101  1.4683 -0.9339  1.0845
  151DOPC   C3718104   3.216   3.387  14.018 -0.2530 -0.3936 -0.6161
  151DOPC   H7X18105   3.290   3.306  14.001 -0.1437 -0.5724  0.5778
  151DOPC   H7Y18106   3.119   3.335  14.036 -0.9721  0.3093 -2.2735
  151DOPC   C3818107   3.204   3.479  13.887 -0.3954 -0.6813 -0.4139
  151DOPC   H8X18108   3.133   3.562  13.901 -1.1400 -1.0248 -1.9594
  151DOPC   H8Y18109   3.152   3.418  13.810 -0.8162  0.1928 -0.8368
  151DOPC   C3918110   3.331   3.544  13.841  0.5114  0.8146 -0.3630
  151DOPC   H9X18111   3.419   3.540  13.907  0.9188  1.4706 -0.8444
  151DOPC  C31018112   3.349   3.566  13.711  0.7592 -0.1685 -0.0718
  151DOPC  H10X18113   3.442   3.613  13.675  1.1969 -1.4019 -0.6220
  151DOPC  C31118114   3.229   3.572  13.610 -0.4084  0.0003  0.0191
  151DOPC  H11X18115   3.139   3.628  13.642 -0.2734 -0.1934  0.7571
  151DOPC  H11Y18116   3.199   3.468  13.583 -0.5175 -0.2468  1.0500
  151DOPC  C31218117   3.261   3.623  13.472 -1.3852 -0.2986  0.3930
  151DOPC  H12X18118   3.344   3.564  13.429 -1.3236  2.1198 -3.2048
  151DOPC  H12Y18119   3.295   3.727  13.488  0.5306 -0.9329  0.7377
  151DOPC  C31318120   3.140   3.606  13.378 -0.6265  0.2732  0.1889
  151DOPC  H13X18121   3.103   3.502  13.366 -3.1208  1.2587 -1.5360
  151DOPC  H13Y18122   3.059   3.671  13.418 -0.3901  0.1444  0.8891
  151DOPC  C31418123   3.166   3.664  13.235  0.0931 -0.1358  0.0812
  151DOPC  H14X18124   3.191   3.771  13.252  0.5679 -0.4112  1.2470
  151DOPC  H14Y18125   3.260   3.627  13.188 -0.2225 -1.1653  0.2188
  151DOPC  C31518126   3.048   3.649  13.134 -0.8330 -0.2230 -0.1838
  151DOPC  H15X18127   2.948   3.651  13.182 -0.1353  0.1849  1.2965
  151DOPC  H15Y18128   3.055   3.544  13.098 -0.8914 -0.0661 -0.6533
  151DOPC  C31618129   3.060   3.738  13.015 -0.3660 -0.1987 -0.3000
  151DOPC  H16X18130   2.979   3.722  12.941 -1.4531  0.3977  0.7348
  151DOPC  H16Y18131   3.044   3.843  13.047  1.2344  0.0510 -0.2385
  151DOPC  C31718132   3.190   3.731  12.932 -0.0792 -0.5260 -0.5591
  151DOPC  H17X18133   3.267   3.774  13.000 -1.7655 -0.0137  1.1192
  151DOPC  H17Y18134   3.219   3.625  12.915  2.9437  0.1235 -0.0811
  151DOPC  C31818135   3.189   3.817  12.812  0.0670  0.4317 -0.4508
  151DOPC  H18X18136   3.170   3.924  12.836 -2.1052 -0.2861  1.4585
  151DOPC  H18Y18137   3.289   3.817  12.764 -0.3242  2.1062 -1.3396
  151DOPC  H18Z18138   3.121   3.772  12.737 -0.3081 -0.7704  0.5902
  152DOPC     N18139   3.969   1.828  15.261 -0.4133 -0.4405 -0.0940
  152DOPC   C1218140   3.995   1.833  15.111  0.1048 -0.3086 -0.0082
  152DOPC  H12A18141   3.921   1.777  15.057  0.7066 -1.0962 -0.0439
  152DOPC  H12B18142   4.090   1.791  15.083 -0.2751 -0.6318 -0.8359
  152DOPC   C1318143   4.028   1.706  15.315 -0.1203  0.2834  0.2613
  152DOPC  H13A18144   3.989   1.676  15.411  2.6931 -0.2597  1.3296
  152DOPC  H13B18145   4.011   1.623  15.248 -0.2079 -0.2560  0.9399
  152DOPC  H13C18146   4.135   1.716  15.320  0.0049  0.0604 -1.4021
  152DOPC   C1418147   3.827   1.841  15.290 -0.2831  0.0085 -0.7992
  152DOPC  H14A18148   3.792   1.941  15.268 -1.4712 -0.1006  0.4657
  152DOPC  H14B18149   3.771   1.770  15.230 -2.7808  2.0930 -1.0863
  152DOPC  H14C18150   3.801   1.838  15.395  1.8435  0.9276 -0.1880
  152DOPC   C1518151   4.044   1.942  15.318  0.3232 -0.4807 -0.2270
  152DOPC  H15A18152   3.996   2.036  15.297  2.0689  1.0815  2.3194
  152DOPC  H15B18153   4.143   1.945  15.275 -0.2044  0.1440 -1.4712
  152DOPC  H15C18154   4.034   1.941  15.425 -1.7600 -1.0493 -0.3740
  152DOPC   C1118155   3.996   1.977  15.040  0.2892  0.6783  0.1763
  152DOPC  H11A18156   4.094   2.028  15.056 -0.0124  1.3466 -0.0471
  152DOPC  H11B18157   4.004   1.959  14.931  0.9252 -1.0331  0.4787
  152DOPC     P18158   3.769   2.096  15.012 -0.2341 -0.0831  0.3074
  152DOPC   O1318159   3.679   2.169  15.098 -0.3097 -0.0565  0.1194
  152DOPC   O1418160   3.719   1.972  14.952 -0.1782  0.0415  0.5084
  152DOPC   O1218161   3.901   2.069  15.085  0.2441 -0.3650  0.6227
  152DOPC   O1118162   3.807   2.199  14.904  0.3100  0.5544 -0.2959
  152DOPC    C118163   3.722   2.220  14.796 -0.0226  0.1603 -0.0227
  152DOPC    HA18164   3.741   2.329  14.785  1.5687  0.2707  2.8321
  152DOPC    HB18165   3.615   2.212  14.826  0.2772 -0.2778  0.9820
  152DOPC    C218166   3.757   2.142  14.661 -0.1942 -0.0262 -0.0116
  152DOPC    HS18167   3.733   2.037  14.690  0.1940  0.1965  1.1888
  152DOPC   O2118168   3.893   2.153  14.625  0.8705  0.0061 -0.1224
  152DOPC   C2118169   3.925   2.079  14.535 -0.4935 -0.1174 -0.1551
  152DOPC   O2218170   3.864   1.990  14.479  0.6150  0.2644  0.0513
  152DOPC   C2218171   4.070   2.120  14.495 -0.4491  0.2069 -0.3424
  152DOPC   H2R18172   4.120   2.046  14.428 -1.1307  2.8797 -4.1183
  152DOPC   H2S18173   4.118   2.117  14.595  2.0915  1.7946 -1.4454
  152DOPC    C318174   3.651   2.183  14.549  0.6222  0.1585 -0.3197
  152DOPC    HX18175   3.552   2.150  14.587  0.6612  0.7463  0.3168
  152DOPC    HY18176   3.665   2.115  14.462  3.5411  2.2502 -1.6356
  152DOPC   O3118177   3.656   2.328  14.511  0.0980 -0.0100 -0.4241
  152DOPC   C3118178   3.545   2.402  14.518 -0.5313 -0.5041  0.3004
  152DOPC   O3218179   3.437   2.356  14.544  0.5930 -0.3403  0.6316
  152DOPC   C3218180   3.566   2.542  14.474 -0.3574 -0.4031 -0.3275
  152DOPC   H2X18181   3.475   2.606  14.471 -1.1025 -1.4558 -0.8884
  152DOPC   H2Y18182   3.630   2.586  14.553 -0.0401  0.2560 -0.9358
  152DOPC   C2318183   4.069   2.252  14.423  0.2533 -0.5469  0.6006
  152DOPC   H3R18184   4.165   2.298  14.457  0.9905  0.8063 -2.8906
  152DOPC   H3S18185   3.996   2.327  14.459 -0.3693 -0.0207 -1.6118
  152DOPC   C2418186   4.070   2.225  14.270 -0.2753 -0.6554  0.3499
  152DOPC   H4R18187   4.095   2.118  14.254  0.8422 -0.3321 -0.1689
  152DOPC   H4S18188   4.152   2.288  14.228 -1.2911 -0.7933 -2.0174
  152DOPC   C2518189   3.948   2.254  14.189  0.0383 -0.8980  0.7342
  152DOPC   H5R18190   3.944   2.365  14.176 -3.2612 -1.0917 -0.9486
  152DOPC   H5S18191   3.863   2.218  14.250 -1.2455 -0.1159 -0.5348
  152DOPC   C2618192   3.943   2.190  14.047  0.3245  0.3891  0.1074
  152DOPC   H6R18193   3.842   2.189  14.002  0.0571  1.2897  0.6553
  152DOPC   H6S18194   3.973   2.084  14.059 -0.1997  0.2486  0.1767
  152DOPC   C2718195   4.027   2.251  13.943 -0.3787  0.1755  0.5124
  152DOPC   H7R18196   4.128   2.272  13.983  0.3715  0.3706 -1.3827
  152DOPC   H7S18197   3.993   2.352  13.911  1.9038  0.3801 -1.5476
  152DOPC   C2818198   4.037   2.166  13.810 -0.2310 -0.5066 -0.2482
  152DOPC   H8R18199   3.944   2.188  13.753  0.5846 -0.2339 -1.4949
  152DOPC   H8S18200   4.028   2.059  13.838  1.6725 -0.7125 -0.3022
  152DOPC   C2918201   4.160   2.196  13.725  0.4797 -0.0669 -0.2901
  152DOPC   H9R18202   4.254   2.204  13.781 -1.0262  0.8218  2.2855
  152DOPC  C21018203   4.167   2.212  13.592  0.5509 -0.3792 -0.8148
  152DOPC  H10R18204   4.269   2.223  13.552  0.7449  0.4254 -0.1297
  152DOPC  C21118205   4.050   2.225  13.499  0.3790 -0.3784 -0.0519
  152DOPC  H11R18206   4.050   2.322  13.445  1.8964 -0.5723 -0.4690
  152DOPC  H11S18207   3.957   2.219  13.559  0.4555 -0.6480  0.0427
  152DOPC  C21218208   4.059   2.119  13.382 -0.8178 -0.1216 -0.1948
  152DOPC  H12R18209   4.027   2.023  13.428  2.4783 -0.7201  1.0862
  152DOPC  H12S18210   4.157   2.088  13.340 -2.1102 -2.0391 -2.0467
  152DOPC  C21318211   3.980   2.156  13.258 -0.1973 -0.0042 -0.1417
  152DOPC  H13R18212   3.886   2.202  13.296 -0.3351 -0.9398  0.7026
  152DOPC  H13S18213   3.940   2.064  13.209  0.8294  0.0312 -1.1101
  152DOPC  C21418214   4.051   2.245  13.160  0.3215  0.4110 -0.1363
  152DOPC  H14R18215   4.123   2.311  13.213 -0.0102 -0.4261  1.4092
  152DOPC  H14S18216   3.975   2.308  13.108 -0.6661 -1.2805 -0.8511
  152DOPC  C21518217   4.131   2.164  13.061 -0.3618  0.2654 -0.1149
  152DOPC  H15R18218   4.066   2.117  12.985 -1.2828 -1.3904  1.5984
  152DOPC  H15S18219   4.163   2.073  13.116 -1.0553 -1.5725 -2.6011
  152DOPC  C21618220   4.249   2.236  12.998 -0.1576  0.4020 -0.4613
  152DOPC  H16R18221   4.303   2.308  13.064 -0.1863 -0.8143  0.9482
  152DOPC  H16S18222   4.217   2.297  12.911  0.7052 -1.2344 -1.9813
  152DOPC  C21718223   4.369   2.143  12.957  0.2454  0.1052 -0.0736
  152DOPC  H17R18224   4.390   2.083  13.049  1.1972  1.0293  0.3348
  152DOPC  H17S18225   4.462   2.188  12.917  2.3664 -2.7493  1.2632
  152DOPC  C21818226   4.323   2.045  12.842 -0.0034  0.0896 -0.1970
  152DOPC  H18R18227   4.411   1.992  12.798  0.3264 -0.8025  1.4352
  152DOPC  H18S18228   4.286   2.115  12.765 -0.7978  2.1031  1.8897
  152DOPC  H18T18229   4.236   1.979  12.861 -0.6607  0.5005 -1.7008
  152DOPC   C3318230   3.642   2.560  14.344 -0.3042 -0.1984  0.0921
  152DOPC   H3X18231   3.736   2.503  14.360 -0.6045 -0.8483 -0.4341
  152DOPC   H3Y18232   3.664   2.668  14.329 -0.7724 -0.0567  0.4003
  152DOPC   C3418233   3.560   2.503  14.225 -0.2319  0.0256 -0.9407
  152DOPC   H4X18234   3.462   2.553  14.210 -0.6825 -0.9375 -1.2876
  152DOPC   H4Y18235   3.532   2.400  14.254  0.7318  0.2167  0.8555
  152DOPC   C3518236   3.652   2.509  14.103  0.0975  0.0945 -0.2435
  152DOPC   H5X18237   3.747   2.456  14.124 -1.6841 -2.5822  1.7275
  152DOPC   H5Y18238   3.682   2.613  14.075 -3.0930  1.0001 -0.6304
  152DOPC   C3618239   3.590   2.443  13.982 -0.3130  0.5245 -0.5799
  152DOPC   H6X18240   3.566   2.338  14.010  2.6219  0.2101  1.2826
  152DOPC   H6Y18241   3.502   2.502  13.951  0.5327  2.6638  0.8451
  152DOPC   C3718242   3.688   2.438  13.860  0.3069  0.3705 -0.2927
  152DOPC   H7X18243   3.760   2.522  13.871  1.3891 -0.2011 -2.3052
  152DOPC   H7Y18244   3.754   2.349  13.863  0.3257  0.3698 -0.6724
  152DOPC   C3818245   3.623   2.436  13.724 -0.4418  0.0801 -0.2452
  152DOPC   H8X18246   3.549   2.518  13.717 -0.7054 -0.2522 -1.7542
  152DOPC   H8Y18247   3.567   2.340  13.725 -1.4399  0.6490 -0.3015
  152DOPC   C3918248   3.719   2.446  13.608  0.0744  0.5211  0.0849
  152DOPC   H9X18249   3.811   2.504  13.623  0.2793 -0.1755  1.6592
  152DOPC  C31018250   3.695   2.391  13.489  0.1820  0.8016  0.4365
  152DOPC  H10X18251   3.770   2.401  13.409  3.1833 -0.9570  2.8000
  152DOPC  C31118252   3.570   2.307  13.453  0.3463 -0.3016 -0.7831
  152DOPC  H11X18253   3.484   2.373  13.474  2.7749  2.0894  2.9507
  152DOPC  H11Y18254   3.566   2.221  13.525  2.2107 -1.4198 -1.9269
  152DOPC  C31218255   3.570   2.238  13.314  0.3226  0.8693 -0.7945
  152DOPC  H12X18256   3.477   2.178  13.300 -0.3383  2.0453 -1.6759
  152DOPC  H12Y18257   3.655   2.168  13.304 -2.0663 -2.0466 -2.5635
  152DOPC  C31318258   3.579   2.329  13.193 -0.1314 -0.3427 -0.3097
  152DOPC  H13X18259   3.511   2.417  13.201  0.0632 -0.3071  1.1594
  152DOPC  H13Y18260   3.680   2.375  13.196 -0.8591  1.2503  2.5046
  152DOPC  C31418261   3.557   2.259  13.057  0.1016  0.4969 -0.8498
  152DOPC  H14X18262   3.535   2.150  13.066 -1.5883  0.8708 -0.1671
  152DOPC  H14Y18263   3.451   2.279  13.028 -0.4152  0.6698  1.0106
  152DOPC  C31518264   3.663   2.299  12.954  0.3583 -0.4068  0.1779
  152DOPC  H15X18265   3.660   2.216  12.881 -2.1501  0.4269 -0.7933
  152DOPC  H15Y18266   3.765   2.308  12.997  0.6639  0.6179 -0.7332
  152DOPC  C31618267   3.619   2.423  12.879  0.6151 -0.4245 -0.0290
  152DOPC  H16X18268   3.573   2.490  12.955  0.4365  1.2881 -1.5534
  152DOPC  H16Y18269   3.709   2.482  12.852 -0.8673  1.3436 -1.4498
  152DOPC  C31718270   3.519   2.393  12.768  0.7962  0.0965 -0.5558
  152DOPC  H17X18271   3.450   2.315  12.807 -0.7470  0.9999 -1.3460
  152DOPC  H17Y18272   3.448   2.476  12.750  0.9658  0.0284 -1.5969
  152DOPC  C31818273   3.587   2.360  12.634  0.5817 -0.0947 -0.0855
  152DOPC  H18X18274   3.649   2.444  12.596  1.6464 -0.4195  0.8917
  152DOPC  H18Y18275   3.641   2.263  12.633  0.2410 -0.2840 -0.6139
  152DOPC  H18Z18276   3.504   2.357  12.559 -1.0870  2.9192  1.4481
  153DOPC     N18277   4.933   0.060  14.343  0.1805 -0.0281  0.0083
  153DOPC   C1218278   5.060  -0.006  14.300  0.1201 -0.4814 -0.3135
  153DOPC  H12A18279   5.079  -0.087  14.368 -0.4711 -1.3254 -1.1311
  153DOPC  H12B18280   5.143   0.062  14.314  0.7100 -1.3361  0.3638
  153DOPC   C1318281   4.825  -0.032  14.328  0.0047 -1.3300 -0.1592
  153DOPC  H13A18282   4.734   0.025  14.334  0.9490  0.1233  0.8045
  153DOPC  H13B18283   4.826  -0.082  14.232  0.5232 -1.6734  0.0208
  153DOPC  H13C18284   4.819  -0.103  14.409 -0.3859  0.2467  1.2380
  153DOPC   C1418285   4.906   0.184  14.264  0.0155 -0.6129 -0.2345
  153DOPC  H14A18286   4.921   0.167  14.159 -1.9931 -0.3415 -0.6080
  153DOPC  H14B18287   4.806   0.218  14.288  0.6119  1.3763 -0.3964
  153DOPC  H14C18288   4.982   0.257  14.288  0.2953 -1.0954  0.3853
  153DOPC   C1518289   4.938   0.109  14.486 -0.7814  0.3366 -0.1792
  153DOPC  H15A18290   4.942   0.016  14.541  0.3711 -0.9233 -2.2585
  153DOPC  H15B18291   4.849   0.166  14.504 -2.2242 -1.3275 -1.6098
  153DOPC  H15C18292   5.028   0.167  14.501  0.0237 -0.9693  0.2287
  153DOPC   C1118293   5.068  -0.049  14.153 -0.3122 -0.5568 -0.1425
  153DOPC  H11A18294   5.164  -0.101  14.132  0.2743  0.6301 -0.5321
  153DOPC  H11B18295   4.995  -0.130  14.134 -1.1070  0.2923 -0.7900
  153DOPC     P18296   5.171   0.142  14.012  0.5826 -0.1525  0.1762
  153DOPC   O1318297   5.233   0.198  14.137 -0.1239 -0.1433  0.4056
  153DOPC   O1418298   5.123   0.235  13.912 -0.6608 -0.1128  0.4418
  153DOPC   O1218299   5.047   0.055  14.057 -0.0625  0.0561  0.1753
  153DOPC   O1118300   5.276   0.039  13.960  0.0320  0.3387 -0.2200
  153DOPC    C118301   5.348   0.052  13.835 -0.6609  0.3104  0.0760
  153DOPC    HA18302   5.450   0.014  13.856 -1.9664 -3.0305  1.1754
  153DOPC    HB18303   5.353   0.157  13.801  1.1318  0.4123  0.5596
  153DOPC    C218304   5.291  -0.033  13.714  0.7001  0.4861 -0.7393
  153DOPC    HS18305   5.357  -0.015  13.627  1.3276  2.2278  0.0639
  153DOPC   O2118306   5.153  -0.009  13.697 -0.1979  0.0082 -0.0708
  153DOPC   C2118307   5.121   0.102  13.627 -0.1529  0.7527 -0.1456
  153DOPC   O2218308   5.204   0.177  13.577  0.3771 -0.3297 -0.3411
  153DOPC   C2218309   4.973   0.117  13.619  0.3976 -0.5414 -0.0264
  153DOPC   H2R18310   4.948   0.203  13.554  0.6869 -0.4356 -0.0018
  153DOPC   H2S18311   4.946   0.139  13.724  3.0741 -0.2970  0.7001
  153DOPC    C318312   5.312  -0.190  13.737 -0.4082  0.1080  0.0443
  153DOPC    HX18313   5.270  -0.217  13.837  0.3643  0.0891  0.3710
  153DOPC    HY18314   5.422  -0.204  13.744  0.3477  2.5878 -3.5820
  153DOPC   O3118315   5.241  -0.260  13.628 -0.2689  0.4066 -0.4396
  153DOPC   C3118316   5.321  -0.320  13.535  0.2604  0.6045 -0.1269
  153DOPC   O3218317   5.446  -0.309  13.537 -0.0188 -0.2945  0.4421
  153DOPC   C3218318   5.238  -0.398  13.441 -0.2297 -0.0718  0.4678
  153DOPC   H2X18319   5.233  -0.496  13.492  3.0776 -0.8375 -0.4645
  153DOPC   H2Y18320   5.136  -0.356  13.424 -0.5757 -0.8663  0.5631
  153DOPC   C2318321   4.893  -0.008  13.578  0.2350  0.0541 -0.0190
  153DOPC   H3R18322   4.784   0.010  13.565  0.2002 -1.0967 -1.6679
  153DOPC   H3S18323   4.909  -0.068  13.670  0.4221 -0.0911 -0.1441
  153DOPC   C2418324   4.971  -0.069  13.456  0.6075  0.1037  1.1151
  153DOPC   H4R18325   4.942  -0.175  13.438 -0.3909  0.6199 -0.5362
  153DOPC   H4S18326   5.082  -0.065  13.464  1.0864 -1.6117 -2.5387
  153DOPC   C2518327   4.932   0.005  13.315  0.4725 -0.4882  0.6336
  153DOPC   H5R18328   4.925   0.113  13.339 -1.6915 -0.5214  0.3855
  153DOPC   H5S18329   4.829  -0.024  13.285  0.3695  0.1755  0.3208
  153DOPC   C2618330   5.034  -0.008  13.204  0.4110  0.3542 -0.3461
  153DOPC   H6R18331   5.138  -0.001  13.241 -0.1571 -0.6610  1.5923
  153DOPC   H6S18332   5.015   0.062  13.120 -1.0481  1.9916  1.2686
  153DOPC   C2718333   5.017  -0.150  13.141  0.3685  0.1652 -0.3446
  153DOPC   H7R18334   4.909  -0.166  13.120  1.0259 -0.8989 -3.4455
  153DOPC   H7S18335   5.050  -0.231  13.210  2.8360 -0.3522 -2.0113
  153DOPC   C2818336   5.101  -0.176  13.010  0.1492  0.2783  0.3901
  153DOPC   H8R18337   5.109  -0.285  12.991  0.2852  0.6747 -2.1836
  153DOPC   H8S18338   5.206  -0.152  13.037  0.7678 -1.6260 -0.1957
  153DOPC   C2918339   5.050  -0.094  12.890  0.6576  0.1762  0.1787
  153DOPC   H9R18340   4.943  -0.068  12.893  0.5476 -0.0840 -0.9213
  153DOPC  C21018341   5.121  -0.083  12.779 -0.1671 -0.3324 -0.1794
  153DOPC  H10R18342   5.085  -0.030  12.690  2.4882  0.7942 -0.6835
  153DOPC  C21118343   5.261  -0.138  12.765  0.3101 -0.0463 -0.1366
  153DOPC  H11R18344   5.323  -0.152  12.856  1.2655 -2.3848 -1.0804
  153DOPC  H11S18345   5.309  -0.071  12.691 -3.2735  0.2043 -2.4696
  153DOPC  C21218346   5.266  -0.278  12.698  0.3294 -0.1865  0.3311
  153DOPC  H12R18347   5.210  -0.285  12.602 -0.4789  0.1225  0.7789
  153DOPC  H12S18348   5.230  -0.349  12.776 -0.1105  0.1288  0.4151
  153DOPC  C21318349   5.399  -0.329  12.666 -0.1962 -0.4522 -1.3613
  153DOPC  H13R18350   5.403  -0.440  12.670  0.9552 -0.4155  2.2192
  153DOPC  H13S18351   5.477  -0.302  12.741  0.7195  1.9131 -3.0648
  153DOPC  C21418352   5.461  -0.286  12.537  0.0645  0.3540  0.4915
  153DOPC  H14R18353   5.564  -0.324  12.525  0.1274  0.3985  0.8899
  153DOPC  H14S18354   5.469  -0.175  12.525  1.5461  0.2433  0.2447
  153DOPC  C21518355   5.375  -0.315  12.412 -0.0809 -0.2862  1.0354
  153DOPC  H15R18356   5.283  -0.254  12.417  0.6744  0.8462  1.6268
  153DOPC  H15S18357   5.333  -0.418  12.420 -0.4959  0.0195  4.5346
  153DOPC  C21618358   5.449  -0.294  12.276 -0.4182  0.3106 -0.0203
  153DOPC  H16R18359   5.538  -0.360  12.286  0.2636  1.1061 -0.6420
  153DOPC  H16S18360   5.470  -0.185  12.276 -1.2868  0.4826 -0.3121
  153DOPC  C21718361   5.370  -0.320  12.153  0.7025  0.0079  0.0805
  153DOPC  H17R18362   5.280  -0.256  12.155  0.8181  0.2213 -1.0495
  153DOPC  H17S18363   5.323  -0.421  12.158  0.3401  0.1947  0.4861
  153DOPC  C21818364   5.454  -0.294  12.031  0.3653 -0.4975 -0.0321
  153DOPC  H18R18365   5.401  -0.266  11.937 -0.8314  2.3117  1.3653
  153DOPC  H18S18366   5.521  -0.382  12.015  0.1785 -0.9234  1.4050
  153DOPC  H18T18367   5.520  -0.207  12.050  2.4944 -1.7857 -1.0405
  153DOPC   C3318368   5.307  -0.428  13.303  0.4238  0.1036  0.3021
  153DOPC   H3X18369   5.414  -0.399  13.303  0.7409 -1.0088  0.8894
  153DOPC   H3Y18370   5.255  -0.382  13.217 -1.9761  0.2132  1.7155
  153DOPC   C3418371   5.315  -0.576  13.264  0.6459  0.1628  0.1761
  153DOPC   H4X18372   5.214  -0.620  13.279  0.6347  0.7507  2.2198
  153DOPC   H4Y18373   5.372  -0.644  13.331 -1.5016 -1.8467  0.1105
  153DOPC   C3518374   5.359  -0.598  13.121  0.1601 -0.2212 -0.4278
  153DOPC   H5X18375   5.411  -0.695  13.107  2.7175  1.2341 -1.9116
  153DOPC   H5Y18376   5.439  -0.523  13.100 -0.2334  0.4076  0.2680
  153DOPC   C3618377   5.248  -0.583  13.020 -1.0108  0.5587 -0.7345
  153DOPC   H6X18378   5.159  -0.637  13.058 -0.0131 -0.6928 -0.1090
  153DOPC   H6Y18379   5.224  -0.475  13.007  0.9148  1.1367  0.1042
  153DOPC   C3718380   5.293  -0.652  12.888 -0.0903 -0.4594 -0.3410
  153DOPC   H7X18381   5.373  -0.587  12.848 -1.6109  0.8424 -1.3897
  153DOPC   H7Y18382   5.332  -0.755  12.906 -1.7775 -0.7187  2.5394
  153DOPC   C3818383   5.180  -0.652  12.783 -0.0517  0.7197  0.3908
  153DOPC   H8X18384   5.223  -0.662  12.681 -2.9197 -2.3851 -0.7145
  153DOPC   H8Y18385   5.133  -0.552  12.790  1.2223  1.2003  3.3788
  153DOPC   C3918386   5.074  -0.760  12.799  0.4846  0.3348 -0.9486
  153DOPC   H9X18387   5.016  -0.756  12.892 -0.4664  0.1874 -1.5216
  153DOPC  C31018388   5.051  -0.866  12.721 -0.5998  0.2613  0.1401
  153DOPC  H10X18389   4.986  -0.945  12.761  1.5034 -1.4071  0.4402
  153DOPC  C31118390   5.112  -0.901  12.585  0.2858  0.2487 -0.3445
  153DOPC  H11X18391   5.207  -0.845  12.568 -0.2859  0.9278 -1.3999
  153DOPC  H11Y18392   5.036  -0.868  12.511 -0.9750  1.0452  1.2504
  153DOPC  C31218393   5.150  -1.051  12.563  0.0581 -0.3697  0.3145
  153DOPC  H12X18394   5.059  -1.107  12.596 -1.4069  2.0302  0.5635
  153DOPC  H12Y18395   5.234  -1.065  12.634  0.1266  0.7910  0.4735
  153DOPC  C31318396   5.178  -1.090  12.409  0.7217  0.2624  0.7012
  153DOPC  H13X18397   5.175  -1.201  12.402 -2.5175  0.0470  3.2766
  153DOPC  H13Y18398   5.091  -1.051  12.352 -1.3398 -1.5417  2.4280
  153DOPC  C31418399   5.307  -1.042  12.358  0.2895  0.1079 -0.2993
  153DOPC  H14X18400   5.306  -0.931  12.356  1.0240  0.1603 -4.2520
  153DOPC  H14Y18401   5.390  -1.067  12.428  0.3038  2.2299  0.5274
  153DOPC  C31518402   5.337  -1.081  12.210  0.1144  0.5137 -0.4003
  153DOPC  H15X18403   5.422  -1.018  12.176  0.6456  0.6848  1.1770
  153DOPC  H15Y18404   5.248  -1.047  12.153 -2.1823  0.0845  2.6731
  153DOPC  C31618405   5.365  -1.230  12.189 -0.4764 -0.1772 -0.0062
  153DOPC  H16X18406   5.467  -1.248  12.227 -0.3250  0.1842 -0.2414
  153DOPC  H16Y18407   5.284  -1.291  12.236 -2.7254  1.8889 -0.9368
  153DOPC  C31718408   5.371  -1.266  12.040 -0.0881  0.4025 -0.3268
  153DOPC  H17X18409   5.417  -1.189  11.974 -0.5265  1.2889  0.3708
  153DOPC  H17Y18410   5.432  -1.359  12.041  0.3619  0.6706  1.2195
  153DOPC  C31818411   5.232  -1.292  11.977  0.4488  0.8598  0.4001
  153DOPC  H18X18412   5.255  -1.324  11.873 -3.1393  1.0639 -0.5944
  153DOPC  H18Y18413   5.166  -1.366  12.027  0.1981  0.7193 -0.1309
  153DOPC  H18Z18414   5.176  -1.196  11.974 -0.1689  0.5716  2.1321
  154DOPC     N18415   0.524   4.404  15.105  0.7275  0.3309  0.5994
  154DOPC   C1218416   0.374   4.388  15.138 -0.8758  0.7514 -0.4836
  154DOPC  H12A18417   0.312   4.353  15.056 -1.3560  2.2573 -0.7851
  154DOPC  H12B18418   0.334   4.486  15.155 -0.6471  0.4210  2.6006
  154DOPC   C1318419   0.605   4.458  15.218  0.2528 -0.0916 -0.1800
  154DOPC  H13A18420   0.599   4.394  15.305  1.5469 -0.1837 -0.1342
  154DOPC  H13B18421   0.706   4.479  15.186 -0.7106  1.7947 -2.2661
  154DOPC  H13C18422   0.564   4.551  15.255  0.7637 -0.1881  0.6574
  154DOPC   C1418423   0.527   4.506  14.990 -0.1384  0.3385 -0.0129
  154DOPC  H14A18424   0.624   4.510  14.942  0.0953  0.3454  0.4595
  154DOPC  H14B18425   0.450   4.485  14.918  0.7850 -1.2438 -0.5832
  154DOPC  H14C18426   0.502   4.604  15.027  0.2194 -0.3718  2.2442
  154DOPC   C1518427   0.570   4.270  15.063 -0.1351  0.6422 -0.0365
  154DOPC  H15A18428   0.670   4.267  15.022 -0.5505 -1.4094 -1.0509
  154DOPC  H15B18429   0.507   4.230  14.985 -0.9099 -0.9140  1.3360
  154DOPC  H15C18430   0.567   4.194  15.139 -0.1902 -0.8865 -1.5232
  154DOPC   C1118431   0.344   4.302  15.264  0.3820 -0.3483  0.0610
  154DOPC  H11A18432   0.430   4.303  15.333  0.6929 -1.7992 -0.2752
  154DOPC  H11B18433   0.254   4.349  15.309  0.1231 -0.5827 -0.2043
  154DOPC     P18434   0.182   4.125  15.165  0.1123  0.0339  0.1662
  154DOPC   O1318435   0.075   4.225  15.190  0.6603 -0.7036 -0.1079
  154DOPC   O1418436   0.160   3.990  15.222  0.0210 -0.0311 -0.0970
  154DOPC   O1218437   0.322   4.168  15.219 -0.3968  0.7775 -0.1742
  154DOPC   O1118438   0.203   4.110  15.003 -0.3331 -1.0360  0.0270
  154DOPC    C118439   0.303   4.031  14.948 -0.3511  0.2326  0.5033
  154DOPC    HA18440   0.343   3.956  15.020  0.3535  2.1035  2.1634
  154DOPC    HB18441   0.386   4.095  14.911 -0.1970 -0.9641 -1.3785
  154DOPC    C218442   0.249   3.942  14.837 -0.7224  0.2986  0.3243
  154DOPC    HS18443   0.323   3.862  14.814 -0.3409  0.4539  0.9675
  154DOPC   O2118444   0.220   4.013  14.716 -0.1972 -0.1733 -0.3050
  154DOPC   C2118445   0.321   4.064  14.651  0.3375 -0.6227  0.6679
  154DOPC   O2218446   0.437   4.041  14.667 -0.0332  0.8967 -0.3610
  154DOPC   C2218447   0.274   4.150  14.535  0.3219 -0.0218  0.7585
  154DOPC   H2R18448   0.357   4.187  14.472  1.1960 -0.1369  1.8131
  154DOPC   H2S18449   0.221   4.241  14.572  1.5625  0.3439  1.6825
  154DOPC    C318450   0.122   3.862  14.876  0.5165  0.1311 -1.3192
  154DOPC    HX18451   0.048   3.936  14.915 -0.7897 -1.9168  0.3002
  154DOPC    HY18452   0.154   3.792  14.957 -1.6858 -0.5657 -0.9839
  154DOPC   O3118453   0.070   3.782  14.767  0.6719  0.1616 -0.2263
  154DOPC   C3118454  -0.028   3.836  14.694  0.2497  0.7783 -0.6344
  154DOPC   O3218455  -0.101   3.931  14.719  0.4380 -0.2525 -0.6677
  154DOPC   C3218456  -0.039   3.751  14.572  0.2255 -0.6333 -0.1604
  154DOPC   H2X18457   0.065   3.731  14.538  0.6138 -0.9142  1.1549
  154DOPC   H2Y18458  -0.093   3.655  14.589  0.3262 -0.5449  0.7035
  154DOPC   C2318459   0.172   4.070  14.445 -0.3444  0.1030 -0.1049
  154DOPC   H3R18460   0.090   4.033  14.510 -1.3257 -0.9451 -1.8658
  154DOPC   H3S18461   0.218   3.973  14.416  0.1112  0.0104  0.8864
  154DOPC   C2418462   0.124   4.155  14.328 -0.2917 -0.4641 -0.0506
  154DOPC   H4R18463   0.099   4.255  14.368 -1.4399 -1.8261  2.9325
  154DOPC   H4S18464   0.031   4.116  14.282 -0.1697 -1.2312  0.3257
  154DOPC   C2518465   0.233   4.178  14.220 -0.4879 -0.2080  0.0559
  154DOPC   H5R18466   0.333   4.159  14.264 -0.4386 -2.1158 -0.7843
  154DOPC   H5S18467   0.240   4.287  14.197 -2.3990 -0.1032 -0.1856
  154DOPC   C2618468   0.215   4.088  14.096 -0.8194 -0.0369  0.0819
  154DOPC   H6R18469   0.133   4.137  14.040 -1.2125  0.5504  1.1374
  154DOPC   H6S18470   0.187   3.989  14.137 -0.4797 -0.7861 -1.4338
  154DOPC   C2718471   0.338   4.071  14.005  0.6296  0.4702 -0.4409
  154DOPC   H7R18472   0.428   4.064  14.070 -0.2578 -0.5491  0.7476
  154DOPC   H7S18473   0.343   4.169  13.954  2.1234  1.5496  1.6180
  154DOPC   C2818474   0.344   3.961  13.905  0.0394 -0.3183  0.5826
  154DOPC   H8R18475   0.344   3.869  13.967  1.5335 -0.4977  0.3490
  154DOPC   H8S18476   0.439   3.972  13.849 -1.1664 -0.2806 -1.5568
  154DOPC   C2918477   0.231   3.957  13.805  0.4918  0.5155 -0.3778
  154DOPC   H9R18478   0.133   3.969  13.853  0.2886 -2.4564  0.1163
  154DOPC  C21018479   0.243   3.932  13.673  0.6576 -0.4412 -0.2659
  154DOPC  H10R18480   0.147   3.939  13.618  1.1012 -0.8456 -1.1179
  154DOPC  C21118481   0.365   3.890  13.601  0.2852 -0.3564  0.5314
  154DOPC  H11R18482   0.356   3.792  13.549  1.3213  0.5089 -1.3765
  154DOPC  H11S18483   0.452   3.879  13.670  1.5619  1.9810 -0.5885
  154DOPC  C21218484   0.411   3.997  13.497 -0.2554 -0.2759  0.0586
  154DOPC  H12R18485   0.514   3.968  13.468  0.0962  0.3547  0.6595
  154DOPC  H12S18486   0.420   4.091  13.556 -2.6054 -0.7696  1.3529
  154DOPC  C21318487   0.316   4.018  13.379  0.1852 -0.7898 -1.2695
  154DOPC  H13R18488   0.344   4.106  13.318  1.1866 -0.4289 -0.3204
  154DOPC  H13S18489   0.214   4.027  13.423  1.2011  0.4808  1.0353
  154DOPC  C21418490   0.312   3.898  13.276 -1.0159  0.2835 -0.3620
  154DOPC  H14R18491   0.230   3.939  13.213 -0.7385  0.4485 -0.6135
  154DOPC  H14S18492   0.292   3.803  13.329 -1.6337  1.9209  2.5897
  154DOPC  C21518493   0.447   3.898  13.200 -0.0752 -0.1109  0.8120
  154DOPC  H15R18494   0.523   3.847  13.263 -0.0017  1.3089  1.9251
  154DOPC  H15S18495   0.487   4.001  13.196  3.5640 -1.3951  0.9128
  154DOPC  C21618496   0.433   3.844  13.054  0.1730  0.3348  0.3325
  154DOPC  H16R18497   0.352   3.904  13.007 -0.2003 -0.1171  0.3887
  154DOPC  H16S18498   0.390   3.742  13.063  2.0419 -0.8177 -2.2793
  154DOPC  C21718499   0.563   3.835  12.979  0.4407 -0.1281  0.6787
  154DOPC  H17R18500   0.539   3.802  12.875  0.4231  3.7897 -0.7230
  154DOPC  H17S18501   0.633   3.771  13.037  1.4066  0.9190  0.6968
  154DOPC  C21818502   0.626   3.972  12.961 -0.3426  0.0070  0.6023
  154DOPC  H18R18503   0.662   4.007  13.060 -0.0760 -0.0567  0.5279
  154DOPC  H18S18504   0.557   4.043  12.912  1.4474  1.8120  0.5733
  154DOPC  H18T18505   0.718   3.951  12.903  0.3982 -0.0478  1.7614
  154DOPC   C3318506  -0.122   3.821  14.461 -0.3587  0.2280 -0.0706
  154DOPC   H3X18507  -0.058   3.906  14.428  0.5969 -0.4077  0.1044
  154DOPC   H3Y18508  -0.213   3.866  14.506  0.4497  2.9084 -0.9249
  154DOPC   C3418509  -0.167   3.743  14.340  0.3066  0.5974 -0.2471
  154DOPC   H4X18510  -0.231   3.801  14.270 -3.5437 -1.0396  1.6229
  154DOPC   H4Y18511  -0.228   3.654  14.367 -0.4907  0.9360 -0.8686
  154DOPC   C3518512  -0.049   3.688  14.256 -0.1709  0.8523 -0.2763
  154DOPC   H5X18513   0.007   3.620  14.323 -0.6527  0.5093 -0.2216
  154DOPC   H5Y18514   0.026   3.761  14.219  1.3964 -0.5940 -0.0642
  154DOPC   C3618515  -0.095   3.599  14.140  1.0003 -0.3371  0.4049
  154DOPC   H6X18516  -0.144   3.509  14.184  0.0106  0.3245  0.7049
  154DOPC   H6Y18517  -0.174   3.647  14.078 -0.4210  0.1467  2.4922
  154DOPC   C3718518   0.025   3.565  14.049  0.2831 -0.0677  0.8740
  154DOPC   H7X18519   0.062   3.656  13.997  0.4956 -0.0016  1.1377
  154DOPC   H7Y18520   0.107   3.523  14.112 -1.1810 -2.6666  1.1809
  154DOPC   C3818521  -0.009   3.454  13.945 -0.4733  0.7493 -0.5386
  154DOPC   H8X18522  -0.079   3.489  13.866  0.0639 -2.1817 -2.4745
  154DOPC   H8Y18523  -0.056   3.364  13.989 -0.3345  0.8524 -0.1711
  154DOPC   C3918524   0.110   3.401  13.883 -0.2668  0.3890  0.6951
  154DOPC   H9X18525   0.169   3.336  13.948 -0.3317 -1.0873 -0.6794
  154DOPC  C31018526   0.148   3.426  13.757 -0.9688 -0.1090  0.1896
  154DOPC  H10X18527   0.236   3.375  13.717 -0.0366  0.9939  0.7843
  154DOPC  C31118528   0.081   3.515  13.653 -0.1900 -0.6414 -0.4279
  154DOPC  H11X18529   0.066   3.623  13.675  0.9400 -0.2195 -1.5509
  154DOPC  H11Y18530  -0.023   3.477  13.653 -0.5953  0.4297 -0.6656
  154DOPC  C31218531   0.137   3.513  13.515  0.4519 -0.1809  0.0061
  154DOPC  H12X18532   0.150   3.408  13.479  0.4492 -0.3537  0.5064
  154DOPC  H12Y18533   0.236   3.564  13.518 -0.2712  1.3509 -0.7891
  154DOPC  C31318534   0.042   3.592  13.415 -0.5167  0.0077  0.1292
  154DOPC  H13X18535  -0.064   3.574  13.441 -0.1194  0.1981  2.0356
  154DOPC  H13Y18536   0.054   3.701  13.431 -1.4910  0.2409 -0.6668
  154DOPC  C31418537   0.066   3.560  13.263  0.4517  0.1320  0.2008
  154DOPC  H14X18538   0.165   3.592  13.224 -0.5632  1.8464 -1.1078
  154DOPC  H14Y18539   0.077   3.449  13.258  2.5960  0.2616  0.8855
  154DOPC  C31518540  -0.050   3.607  13.169 -0.2581 -0.2986 -0.2663
  154DOPC  H15X18541  -0.047   3.718  13.178  0.8133 -0.4689  2.3192
  154DOPC  H15Y18542  -0.144   3.563  13.208 -0.3012  0.3243  0.3559
  154DOPC  C31618543  -0.022   3.572  13.022 -0.0267  0.2947  0.1288
  154DOPC  H16X18544   0.072   3.623  12.991 -0.1678  0.5682  0.1462
  154DOPC  H16Y18545  -0.004   3.462  13.015  0.3074  0.4764 -2.8090
  154DOPC  C31718546  -0.138   3.604  12.925 -0.0967 -0.7737 -0.5998
  154DOPC  H17X18547  -0.140   3.711  12.894 -1.5437 -0.9038 -0.9998
  154DOPC  H17Y18548  -0.119   3.545  12.833  0.3530  0.5318 -1.3717
  154DOPC  C31818549  -0.283   3.558  12.964 -0.5009  0.1872  0.0806
  154DOPC  H18X18550  -0.285   3.455  13.004  1.1902 -0.0077 -0.2519
  154DOPC  H18Y18551  -0.335   3.622  13.039 -1.4319 -1.4367  0.8709
  154DOPC  H18Z18552  -0.340   3.546  12.869 -2.7667 -0.0295  1.3969
  155DOPC     N18553   2.044   2.218  15.572  0.2890 -0.4447  0.4309
  155DOPC   C1218554   1.994   2.361  15.548 -0.1056 -0.2831 -0.3429
  155DOPC  H12A18555   2.065   2.414  15.610 -0.3312 -0.7132  0.2909
  155DOPC  H12B18556   1.892   2.372  15.580 -0.4981 -2.0420 -0.8982
  155DOPC   C1318557   2.191   2.203  15.529  0.6917 -0.7657  0.1328
  155DOPC  H13A18558   2.224   2.100  15.527  0.5761 -0.7942 -0.5323
  155DOPC  H13B18559   2.208   2.243  15.430  0.7968  1.0861  0.8513
  155DOPC  H13C18560   2.245   2.272  15.592 -1.2655  0.2430  0.7939
  155DOPC   C1418561   1.954   2.124  15.490 -0.5330 -0.3282 -0.3787
  155DOPC  H14A18562   1.858   2.110  15.537 -1.2016 -0.9986 -1.8878
  155DOPC  H14B18563   1.938   2.167  15.393  2.4770  0.2886 -0.7019
  155DOPC  H14C18564   2.001   2.027  15.485 -1.8638 -0.9681 -0.8419
  155DOPC   C1518565   2.036   2.186  15.715 -0.0003  0.3129  1.3322
  155DOPC  H15A18566   1.933   2.200  15.743  0.3748  1.6189  2.2086
  155DOPC  H15B18567   2.096   2.250  15.779  0.5233  1.0069  0.1868
  155DOPC  H15C18568   2.072   2.086  15.736 -2.6462 -0.4506  2.6914
  155DOPC   C1118569   2.015   2.424  15.409  0.5682 -0.2699  0.3891
  155DOPC  H11A18570   2.012   2.535  15.401 -0.7185 -0.2341  1.1382
  155DOPC  H11B18571   2.121   2.406  15.378 -0.7176 -3.9458 -2.6655
  155DOPC     P18572   1.959   2.330  15.158  0.1995  0.0979 -0.3333
  155DOPC   O1318573   1.829   2.347  15.089  0.1917  0.7688  0.3728
  155DOPC   O1418574   2.033   2.202  15.146 -0.6098  0.1190 -0.3786
  155DOPC   O1218575   1.930   2.356  15.317  0.0118  0.4602 -0.3253
  155DOPC   O1118576   2.056   2.445  15.116  0.1939  0.6516 -0.5679
  155DOPC    C118577   2.006   2.572  15.096  0.9566 -0.5827 -0.0282
  155DOPC    HA18578   2.065   2.656  15.140 -0.5461  2.6252 -3.5601
  155DOPC    HB18579   1.900   2.588  15.124  0.6338 -1.0923 -0.9420
  155DOPC    C218580   2.026   2.620  14.950 -0.0163 -0.1490  0.9202
  155DOPC    HS18581   2.035   2.730  14.958  1.5395  0.0726 -2.1967
  155DOPC   O2118582   1.927   2.578  14.849 -0.3048 -0.0892  0.0660
  155DOPC   C2118583   1.885   2.669  14.762  0.5256  0.6814  0.1526
  155DOPC   O2218584   1.908   2.789  14.759 -0.2670  0.4110 -0.6099
  155DOPC   C2218585   1.787   2.595  14.669 -0.5478 -0.1038 -0.0842
  155DOPC   H2R18586   1.693   2.654  14.675 -0.5905 -0.2569  1.1661
  155DOPC   H2S18587   1.755   2.500  14.718  2.3905 -0.0790  2.1883
  155DOPC    C318588   2.175   2.586  14.908  0.6553 -0.4493 -0.3093
  155DOPC    HX18589   2.190   2.476  14.921  2.4188 -0.0473  1.6291
  155DOPC    HY18590   2.246   2.636  14.978 -1.0168  1.8788 -0.1570
  155DOPC   O3118591   2.201   2.619  14.770  0.1268 -0.8081 -0.4513
  155DOPC   C3118592   2.246   2.739  14.756 -0.6044 -0.4164  0.1590
  155DOPC   O3218593   2.249   2.826  14.843  0.7470  0.1785  0.0851
  155DOPC   C3218594   2.270   2.770  14.616  0.0068 -0.4426  0.2615
  155DOPC   H2X18595   2.364   2.828  14.605  0.4155 -1.0147  0.6965
  155DOPC   H2Y18596   2.278   2.676  14.558 -2.1072  0.5813 -1.8832
  155DOPC   C2318597   1.838   2.598  14.528 -0.2262  0.6140  0.0985
  155DOPC   H3R18598   1.885   2.697  14.510 -1.4878  1.0103 -1.2509
  155DOPC   H3S18599   1.755   2.596  14.454  0.0614 -0.2000 -0.2195
  155DOPC   C2418600   1.939   2.480  14.497 -0.1955 -0.1449 -0.2224
  155DOPC   H4R18601   1.892   2.382  14.520  0.0572 -0.7952 -2.2595
  155DOPC   H4S18602   2.023   2.498  14.567  0.0004  1.5410 -0.8259
  155DOPC   C2518603   1.997   2.491  14.356 -0.2136 -0.0746  0.2556
  155DOPC   H5R18604   2.093   2.435  14.347  1.0921  2.3941 -3.4328
  155DOPC   H5S18605   2.026   2.597  14.338  1.2977 -0.3077  1.1092
  155DOPC   C2618606   1.920   2.426  14.238  0.4070  0.2164  0.4518
  155DOPC   H6R18607   1.994   2.422  14.154  1.2313  0.2106  1.1691
  155DOPC   H6S18608   1.835   2.492  14.208 -0.0723 -0.5879  0.0113
  155DOPC   C2718609   1.865   2.289  14.274  0.1699  0.2623 -0.1269
  155DOPC   H7R18610   1.788   2.300  14.353  0.2818  2.5630 -0.2728
  155DOPC   H7S18611   1.939   2.222  14.323  1.1559  0.9459 -0.6594
  155DOPC   C2818612   1.798   2.222  14.160  0.2879  0.0770  0.1365
  155DOPC   H8R18613   1.860   2.228  14.068  0.4826  0.6108  0.2963
  155DOPC   H8S18614   1.708   2.281  14.136 -0.9397 -2.2276 -1.2421
  155DOPC   C2918615   1.749   2.080  14.191 -0.0659  0.0905  0.3540
  155DOPC   H9R18616   1.721   2.070  14.297 -0.3946 -0.0946  0.2524
  155DOPC  C21018617   1.735   1.974  14.106 -0.5924  0.2191 -0.3366
  155DOPC  H10R18618   1.698   1.875  14.137 -0.3068 -0.5082 -2.2146
  155DOPC  C21118619   1.776   1.991  13.957 -0.8923 -0.1025 -0.4055
  155DOPC  H11R18620   1.805   2.095  13.933 -0.0421 -0.4761 -1.0086
  155DOPC  H11S18621   1.684   1.969  13.899 -2.4935  1.6185  1.3345
  155DOPC  C21218622   1.906   1.909  13.915  0.3211  0.2092  0.4777
  155DOPC  H12R18623   1.885   1.800  13.923  0.1119  0.2745  0.8274
  155DOPC  H12S18624   1.992   1.935  13.981 -1.1976  2.0673  1.8150
  155DOPC  C21318625   1.940   1.942  13.768  0.7767  0.3058  0.7146
  155DOPC  H13R18626   2.034   1.893  13.735  0.3985  0.9202 -1.4473
  155DOPC  H13S18627   1.964   2.051  13.763  0.6809  0.2854 -0.8131
  155DOPC  C21418628   1.830   1.927  13.667 -1.1502 -0.3406 -0.4542
  155DOPC  H14R18629   1.747   1.997  13.690 -0.7280  0.9234 -2.5363
  155DOPC  H14S18630   1.786   1.827  13.686  0.7274 -1.2122 -0.4463
  155DOPC  C21518631   1.879   1.930  13.521  0.2913 -0.7288  0.0748
  155DOPC  H15R18632   1.938   2.023  13.508 -0.0472 -0.7770 -2.2226
  155DOPC  H15S18633   1.787   1.934  13.459  1.1114  0.4303 -1.1146
  155DOPC  C21618634   1.957   1.807  13.469  0.0947  0.4706 -0.4030
  155DOPC  H16R18635   1.895   1.715  13.468  0.8491 -0.0399 -0.6733
  155DOPC  H16S18636   2.033   1.781  13.546  0.7075  0.3539 -1.0428
  155DOPC  C21718637   2.028   1.833  13.336  1.0293  0.2537 -0.0152
  155DOPC  H17R18638   2.118   1.772  13.313  0.8456 -0.4952  1.1729
  155DOPC  H17S18639   2.066   1.937  13.323 -0.8929  0.8938 -0.7796
  155DOPC  C21818640   1.929   1.803  13.218  0.2582 -0.0641 -0.1809
  155DOPC  H18R18641   1.894   1.698  13.224  1.2557 -0.3233  2.5110
  155DOPC  H18S18642   1.982   1.824  13.123  0.6049  1.9965  0.4113
  155DOPC  H18T18643   1.842   1.872  13.213 -1.3411 -1.9379  0.1667
  155DOPC   C3318644   2.164   2.850  14.541  0.4790 -0.3200 -0.6204
  155DOPC   H3X18645   2.086   2.866  14.618 -0.5201  1.2171 -1.8896
  155DOPC   H3Y18646   2.113   2.784  14.467  0.4961 -0.4099 -0.5529
  155DOPC   C3418647   2.218   2.976  14.468  0.4544 -0.0174 -0.1422
  155DOPC   H4X18648   2.284   3.045  14.526 -0.9489  1.2680 -0.0171
  155DOPC   H4Y18649   2.137   3.034  14.419  0.6013  1.7254  1.5406
  155DOPC   C3518650   2.311   2.946  14.350 -0.2821  0.6541 -0.0534
  155DOPC   H5X18651   2.275   2.849  14.310 -1.5354  0.8412  0.5808
  155DOPC   H5Y18652   2.410   2.910  14.387 -0.0519 -0.6813 -1.8129
  155DOPC   C3618653   2.315   3.048  14.231  0.6370 -0.0334 -0.9209
  155DOPC   H6X18654   2.392   3.021  14.155  0.9578 -0.6303 -0.3927
  155DOPC   H6Y18655   2.213   3.040  14.188  0.1998 -1.7329  0.3373
  155DOPC   C3718656   2.350   3.183  14.290  0.3137 -0.3699 -0.0784
  155DOPC   H7X18657   2.262   3.232  14.336 -0.2796  0.0416 -1.5788
  155DOPC   H7Y18658   2.426   3.164  14.368 -1.2277  1.3355  1.9491
  155DOPC   C3818659   2.407   3.291  14.193 -0.5367 -0.0086  0.3250
  155DOPC   H8X18660   2.496   3.249  14.142 -0.2844  1.1085 -0.2051
  155DOPC   H8Y18661   2.451   3.372  14.255  2.0950  0.4262 -1.9156
  155DOPC   C3918662   2.308   3.344  14.095  0.8034  0.0787  0.3989
  155DOPC   H9X18663   2.240   3.422  14.130 -1.0026 -1.4755  0.5119
  155DOPC  C31018664   2.301   3.310  13.968  0.4158 -0.9235  0.4739
  155DOPC  H10X18665   2.221   3.350  13.904  1.0113 -2.3954 -1.2840
  155DOPC  C31118666   2.391   3.211  13.902  1.0053  0.1532 -0.0942
  155DOPC  H11X18667   2.341   3.119  13.866  1.1083 -0.7264  1.8861
  155DOPC  H11Y18668   2.460   3.168  13.978  0.3173 -0.9774 -0.0818
  155DOPC  C31218669   2.460   3.248  13.773 -0.3834  0.1934  0.3545
  155DOPC  H12X18670   2.543   3.175  13.761 -0.8276 -0.0675 -1.5248
  155DOPC  H12Y18671   2.494   3.354  13.773 -2.2673  0.8488 -0.4152
  155DOPC  C31318672   2.366   3.216  13.661 -0.3980 -0.2217 -0.3369
  155DOPC  H13X18673   2.349   3.107  13.676  0.5236 -0.2422  0.5751
  155DOPC  H13Y18674   2.259   3.247  13.665 -1.1465 -2.3878 -1.8485
  155DOPC  C31418675   2.428   3.243  13.523  0.1984  0.6294  0.1775
  155DOPC  H14X18676   2.460   3.350  13.515 -0.7057  0.9385  0.6132
  155DOPC  H14Y18677   2.519   3.182  13.504 -0.2738  0.5168 -2.0535
  155DOPC  C31518678   2.328   3.214  13.406 -0.0374  0.1714  0.3959
  155DOPC  H15X18679   2.243   3.285  13.413 -2.2738 -2.3609  0.7280
  155DOPC  H15Y18680   2.286   3.112  13.423 -0.1995 -0.3138 -2.5414
  155DOPC  C31618681   2.402   3.213  13.269  0.5468  0.1876 -0.3218
  155DOPC  H16X18682   2.433   3.319  13.254 -2.0494  1.2383  1.2127
  155DOPC  H16Y18683   2.489   3.143  13.273 -0.2891 -0.8276  0.6287
  155DOPC  C31718684   2.300   3.190  13.157 -0.6160 -0.2049  0.3746
  155DOPC  H17X18685   2.244   3.095  13.167  2.2939 -2.2456 -1.1205
  155DOPC  H17Y18686   2.217   3.264  13.159  0.5438  1.1039  1.2188
  155DOPC  C31818687   2.360   3.184  13.014  0.0686 -0.5143  0.2222
  155DOPC  H18X18688   2.441   3.260  13.011  2.6709 -2.9964  1.5307
  155DOPC  H18Y18689   2.409   3.087  12.990 -1.1758 -1.7386  2.3266
  155DOPC  H18Z18690   2.282   3.188  12.936  0.3860 -2.3069 -0.2497
  156DOPC     N18691   6.028   6.335  14.749  0.7023 -0.0059  0.1514
  156DOPC   C1218692   6.128   6.285  14.643  0.4085  0.5385  0.3206
  156DOPC  H12A18693   6.217   6.252  14.695 -0.1858 -1.2540  0.2918
  156DOPC  H12B18694   6.136   6.367  14.574 -2.3082  1.7251  1.2748
  156DOPC   C1318695   5.887   6.345  14.707 -0.2499 -0.2212  0.1587
  156DOPC  H13A18696   5.855   6.259  14.650 -0.6242 -0.0716  0.1401
  156DOPC  H13B18697   5.810   6.349  14.783 -1.9705  0.3396 -1.5489
  156DOPC  H13C18698   5.878   6.437  14.652  0.1453  0.9292  1.9148
  156DOPC   C1418699   6.052   6.482  14.790  1.0014 -0.3714 -0.6696
  156DOPC  H14A18700   6.058   6.547  14.703  0.2952 -0.3044 -0.6803
  156DOPC  H14B18701   5.975   6.520  14.856  0.3320  0.8877 -2.0974
  156DOPC  H14C18702   6.149   6.492  14.836  1.4502 -1.3188 -1.3702
  156DOPC   C1518703   6.022   6.249  14.869  0.2323  0.6643 -0.1970
  156DOPC  H15A18704   5.987   6.151  14.841 -0.0837  0.3731  1.1507
  156DOPC  H15B18705   5.965   6.294  14.949  0.1351 -0.2199  0.2376
  156DOPC  H15C18706   6.120   6.238  14.913 -0.3202  1.7981  1.3842
  156DOPC   C1118707   6.080   6.156  14.567  0.3802 -0.3768  0.0311
  156DOPC  H11A18708   5.980   6.178  14.525  0.5217 -0.9770 -0.6511
  156DOPC  H11B18709   6.137   6.139  14.473 -0.9041 -0.7673 -0.6908
  156DOPC     P18710   6.198   5.942  14.646  0.2367  0.1682  0.5742
  156DOPC   O1318711   6.189   5.847  14.757  0.3752 -0.3277 -0.0284
  156DOPC   O1418712   6.323   6.013  14.623 -0.3699 -0.3009 -0.0119
  156DOPC   O1218713   6.076   6.045  14.657 -0.4657 -0.2182 -0.1791
  156DOPC   O1118714   6.161   5.860  14.519  0.4261  0.0635 -0.3884
  156DOPC    C118715   6.034   5.783  14.514 -0.1588  0.1639 -0.5874
  156DOPC    HA18716   5.951   5.856  14.525  0.0057  0.0393  1.8906
  156DOPC    HB18717   6.027   5.716  14.603  0.2928  1.9367  0.8216
  156DOPC    C218718   6.005   5.708  14.381  0.3562  0.2816 -0.3612
  156DOPC    HS18719   5.908   5.654  14.383  0.5260 -0.0445 -0.7281
  156DOPC   O2118720   6.104   5.607  14.350 -0.5509  0.6084 -0.3069
  156DOPC   C2118721   6.082   5.494  14.408  0.9355 -0.4716 -0.2754
  156DOPC   O2218722   5.981   5.464  14.475  0.0135  0.2955  0.0916
  156DOPC   C2218723   6.208   5.409  14.414 -0.6485  0.2869 -0.0195
  156DOPC   H2R18724   6.280   5.473  14.470  0.5746  1.7302 -2.9928
  156DOPC   H2S18725   6.253   5.397  14.313 -0.9003 -0.8394 -0.0081
  156DOPC    C318726   5.995   5.813  14.266  0.0377 -0.0650 -0.5904
  156DOPC    HX18727   6.082   5.882  14.272  0.9767 -1.1936 -0.8561
  156DOPC    HY18728   5.900   5.867  14.283 -0.1445 -1.2429  3.0559
  156DOPC   O3118729   5.996   5.757  14.137 -0.3749  0.0681 -0.1635
  156DOPC   C3118730   6.109   5.747  14.064  0.7279 -0.0314 -0.4566
  156DOPC   O3218731   6.218   5.785  14.103 -0.2956 -0.1032  0.5716
  156DOPC   C3218732   6.075   5.679  13.926 -0.1791  0.4793 -0.2753
  156DOPC   H2X18733   5.965   5.684  13.921 -0.4451 -1.0507  2.0584
  156DOPC   H2Y18734   6.124   5.739  13.847  1.0810  1.8368  1.4451
  156DOPC   C2318735   6.200   5.282  14.492 -0.0533  0.5707 -0.8928
  156DOPC   H3R18736   6.098   5.241  14.480 -0.6638  1.2363  1.5091
  156DOPC   H3S18737   6.206   5.311  14.599  1.2319 -1.7148 -0.2768
  156DOPC   C2418738   6.321   5.192  14.464  0.0877 -0.0399  0.2451
  156DOPC   H4R18739   6.352   5.129  14.551  0.2063 -1.8733 -1.0742
  156DOPC   H4S18740   6.404   5.263  14.444  0.3764 -0.4416  0.0168
  156DOPC   C2518741   6.307   5.109  14.334  0.1812 -0.2217 -0.1202
  156DOPC   H5R18742   6.270   5.174  14.252  0.6753  0.5848  0.2795
  156DOPC   H5S18743   6.232   5.030  14.355 -1.0327  0.7275 -0.7622
  156DOPC   C2618744   6.442   5.041  14.299 -0.2359 -0.0221  0.3465
  156DOPC   H6R18745   6.479   4.994  14.392 -0.7378 -1.1889 -0.0207
  156DOPC   H6S18746   6.523   5.109  14.264  0.4637 -1.6056 -1.2978
  156DOPC   C2718747   6.435   4.938  14.190  0.2135  0.4557  0.0646
  156DOPC   H7R18748   6.405   4.843  14.239 -2.5571  1.2657  0.1499
  156DOPC   H7S18749   6.537   4.929  14.148 -0.5475 -0.4707 -1.6884
  156DOPC   C2818750   6.340   4.966  14.070  0.2583 -0.0885 -0.4654
  156DOPC   H8R18751   6.239   4.997  14.101 -1.5404 -1.7366 -4.0254
  156DOPC   H8S18752   6.321   4.873  14.012 -1.2297 -1.5703  2.2435
  156DOPC   C2918753   6.412   5.078  13.992 -0.1918 -0.3773  0.5389
  156DOPC   H9R18754   6.424   5.169  14.053  1.5275 -1.1347  1.4061
  156DOPC  C21018755   6.496   5.049  13.885 -0.0963 -0.5466  0.2645
  156DOPC  H10R18756   6.534   5.143  13.841 -0.6137  0.0309  1.0287
  156DOPC  C21118757   6.509   4.926  13.802  0.0637  0.4944  0.1204
  156DOPC  H11R18758   6.434   4.847  13.823 -0.3025 -0.0467 -2.7743
  156DOPC  H11S18759   6.608   4.879  13.821 -0.4454 -0.2805  0.9500
  156DOPC  C21218760   6.492   4.967  13.656 -0.0653 -0.6740  0.0992
  156DOPC  H12R18761   6.568   5.046  13.638 -1.2428 -0.1627 -3.5367
  156DOPC  H12S18762   6.393   5.018  13.651 -0.8875 -2.2668 -1.8890
  156DOPC  C21318763   6.486   4.849  13.553 -0.2121 -0.4989  0.1321
  156DOPC  H13R18764   6.416   4.771  13.588  1.9820 -1.9318  1.5488
  156DOPC  H13S18765   6.586   4.800  13.562 -0.8330 -1.6674  0.9203
  156DOPC  C21418766   6.459   4.897  13.408 -0.2321  0.3527 -0.3368
  156DOPC  H14R18767   6.549   4.944  13.362 -0.2858 -0.9302 -1.8199
  156DOPC  H14S18768   6.396   4.985  13.431  0.5543  0.2879  2.3785
  156DOPC  C21518769   6.391   4.785  13.325 -0.0492  0.4112 -0.5163
  156DOPC  H15R18770   6.285   4.767  13.352  0.2396 -0.2633  0.2248
  156DOPC  H15S18771   6.450   4.692  13.339 -2.0722 -0.7974  0.5378
  156DOPC  C21618772   6.382   4.807  13.173  0.6834  0.3346 -0.9894
  156DOPC  H16R18773   6.485   4.795  13.132  0.9129 -0.0573 -0.3103
  156DOPC  H16S18774   6.334   4.903  13.143 -0.7528  0.2021  0.7623
  156DOPC  C21718775   6.295   4.692  13.117 -0.3338 -0.6035  0.0399
  156DOPC  H17R18776   6.196   4.706  13.164  1.1983  1.5194  3.0081
  156DOPC  H17S18777   6.352   4.600  13.144  0.2980  0.2055  1.6307
  156DOPC  C21818778   6.280   4.711  12.970 -0.1945  0.2918  1.3935
  156DOPC  H18R18779   6.204   4.642  12.927  0.9635  0.4932 -1.1574
  156DOPC  H18S18780   6.375   4.682  12.922 -0.6162 -1.3500  1.5041
  156DOPC  H18T18781   6.256   4.817  12.946 -0.4933 -0.4513 -2.0358
  156DOPC   C3318782   6.132   5.530  13.922  0.0598  1.1449  0.1160
  156DOPC   H3X18783   6.069   5.465  13.987  0.1229 -0.7112 -1.5718
  156DOPC   H3Y18784   6.231   5.534  13.972  0.1244 -3.2790  0.7661
  156DOPC   C3418785   6.134   5.461  13.782 -0.1420 -0.2610 -1.3541
  156DOPC   H4X18786   6.035   5.422  13.754 -1.5906  0.6810  1.9302
  156DOPC   H4Y18787   6.197   5.372  13.801  0.6327  0.6277  0.5917
  156DOPC   C3518788   6.195   5.554  13.677 -0.7916  0.1361 -0.2154
  156DOPC   H5X18789   6.287   5.595  13.724 -0.8048 -0.7999  0.6661
  156DOPC   H5Y18790   6.131   5.639  13.647  1.7172  3.0626  2.1157
  156DOPC   C3618791   6.221   5.465  13.550 -0.1504 -0.0161  0.2889
  156DOPC   H6X18792   6.271   5.526  13.471  1.4116  2.6171  3.0743
  156DOPC   H6Y18793   6.294   5.386  13.577 -1.0591 -0.8393  0.3622
  156DOPC   C3718794   6.100   5.396  13.467 -0.3954 -0.9314 -0.2248
  156DOPC   H7X18795   6.040   5.329  13.532 -2.2854 -0.5769 -1.5159
  156DOPC   H7Y18796   6.039   5.488  13.449  0.2690 -0.2422  0.8746
  156DOPC   C3818797   6.132   5.341  13.327 -0.0086  0.3335  0.2430
  156DOPC   H8X18798   6.171   5.426  13.268 -1.0320 -0.4002 -1.5817
  156DOPC   H8Y18799   6.035   5.318  13.277  0.4916  1.7362 -1.4809
  156DOPC   C3918800   6.205   5.212  13.339 -0.4751 -0.3794 -0.1434
  156DOPC   H9X18801   6.206   5.167  13.440  1.8928 -0.0703  0.0241
  156DOPC  C31018802   6.279   5.158  13.239  1.0417  0.0765 -0.4314
  156DOPC  H10X18803   6.323   5.058  13.253  0.0241 -0.4883 -1.1450
  156DOPC  C31118804   6.272   5.221  13.101  0.8904  0.0680  0.2938
  156DOPC  H11X18805   6.333   5.309  13.075  0.4770 -0.5449 -3.1588
  156DOPC  H11Y18806   6.168   5.252  13.078  0.7096 -0.9933 -0.3777
  156DOPC  C31218807   6.309   5.118  12.995  0.0719 -0.1791  0.3831
  156DOPC  H12X18808   6.222   5.050  12.980  0.1356  0.1960 -2.1818
  156DOPC  H12Y18809   6.405   5.069  13.019  0.4192  0.3122  0.0100
  156DOPC  C31318810   6.338   5.189  12.860 -0.2022 -0.0501 -0.4446
  156DOPC  H13X18811   6.257   5.264  12.847  1.2418  1.2226 -2.8719
  156DOPC  H13Y18812   6.433   5.246  12.859 -0.8890  1.1257 -1.3275
  156DOPC  C31418813   6.339   5.075  12.751 -0.1346  0.1604 -0.3548
  156DOPC  H14X18814   6.419   5.005  12.785  0.6083  1.3777  0.4712
  156DOPC  H14Y18815   6.241   5.023  12.755 -0.7690  1.4126  1.9663
  156DOPC  C31518816   6.381   5.131  12.607  0.6340 -0.5083 -0.1724
  156DOPC  H15X18817   6.409   5.050  12.536 -0.6247  0.4023 -1.7652
  156DOPC  H15Y18818   6.481   5.165  12.643  0.9521 -2.3460  0.8009
  156DOPC  C31618819   6.284   5.238  12.555 -0.3841 -0.4394 -0.2388
  156DOPC  H16X18820   6.280   5.321  12.630  1.1593  0.9490 -1.6141
  156DOPC  H16Y18821   6.326   5.291  12.467 -2.1827 -0.0279 -0.8943
  156DOPC  C31718822   6.150   5.180  12.509  0.0049  0.2481  0.1493
  156DOPC  H17X18823   6.080   5.148  12.589  0.7246  0.7867  1.0184
  156DOPC  H17Y18824   6.111   5.276  12.471  2.8501  0.5384 -2.4872
  156DOPC  C31818825   6.162   5.076  12.396 -0.1115  0.2094 -0.6347
  156DOPC  H18X18826   6.220   5.122  12.313 -0.0748  1.9170  0.2930
  156DOPC  H18Y18827   6.213   4.983  12.430 -0.4189 -0.2522 -1.4003
  156DOPC  H18Z18828   6.062   5.040  12.364 -0.3847 -1.1695  1.5346
  157DOPC     N18829   5.795   0.526  14.879  0.1506 -0.1794  0.3389
  157DOPC   C1218830   5.759   0.630  14.774  0.3282 -0.2690  0.6234
  157DOPC  H12A18831   5.739   0.726  14.820 -0.3143  1.3148 -2.6467
  157DOPC  H12B18832   5.665   0.599  14.731  0.5935  1.1478 -1.0817
  157DOPC   C1318833   5.825   0.394  14.818 -0.1150 -0.5563  0.2752
  157DOPC  H13A18834   5.736   0.343  14.786 -0.6826 -2.7170  4.5690
  157DOPC  H13B18835   5.900   0.402  14.741  1.4386 -1.7315  1.5905
  157DOPC  H13C18836   5.867   0.331  14.895  0.6028 -0.0195  0.3428
  157DOPC   C1418837   5.691   0.517  14.982  0.7970 -0.1376 -0.1890
  157DOPC  H14A18838   5.595   0.493  14.939  0.8350 -0.9541  0.1545
  157DOPC  H14B18839   5.711   0.445  15.060  1.2876  0.7062  0.4762
  157DOPC  H14C18840   5.669   0.612  15.029 -1.9965 -1.0785  0.6251
  157DOPC   C1518841   5.922   0.564  14.948  0.0946 -0.2023 -0.4712
  157DOPC  H15A18842   5.988   0.600  14.870  0.6624 -0.8516 -0.2952
  157DOPC  H15B18843   5.977   0.483  14.993 -0.3185 -0.0998  0.2307
  157DOPC  H15C18844   5.917   0.646  15.018  1.4179 -0.2935 -0.2479
  157DOPC   C1118845   5.857   0.661  14.666 -0.6494 -0.2992  0.3793
  157DOPC  H11A18846   5.905   0.573  14.617 -1.0529  0.0391 -0.6548
  157DOPC  H11B18847   5.799   0.712  14.586 -1.0234  1.9521  1.9961
  157DOPC     P18848   5.945   0.892  14.743  0.0519 -0.0038 -0.3633
  157DOPC   O1318849   6.016   0.935  14.864  0.2517  0.3886  0.5249
  157DOPC   O1418850   5.801   0.931  14.738 -0.0369 -0.7176  0.3840
  157DOPC   O1218851   5.960   0.737  14.719  0.3585 -0.5976 -0.8147
  157DOPC   O1118852   6.017   0.955  14.627 -0.3701 -0.0146  0.1297
  157DOPC    C118853   5.958   0.977  14.500  0.4140  0.1517  0.4296
  157DOPC    HA18854   5.923   1.081  14.485  0.6623  0.1159 -0.4313
  157DOPC    HB18855   5.868   0.914  14.481  0.7801 -0.2355 -0.0611
  157DOPC    C218856   6.070   0.957  14.387 -0.0703 -0.2596  0.0387
  157DOPC    HS18857   6.120   0.861  14.410  2.1629  0.7774 -0.1236
  157DOPC   O2118858   6.158   1.073  14.393 -0.7495  0.5343 -0.2371
  157DOPC   C2118859   6.284   1.051  14.354  0.6972  0.9115 -0.2564
  157DOPC   O2218860   6.327   0.944  14.323  0.0501  0.8615  0.4706
  157DOPC   C2218861   6.352   1.188  14.351 -0.2662  0.1215  0.8498
  157DOPC   H2R18862   6.398   1.206  14.450  1.3922 -1.0417  0.3283
  157DOPC   H2S18863   6.276   1.266  14.329 -2.0678 -1.7704 -0.0463
  157DOPC    C318864   6.004   0.953  14.253  0.3466  0.6691 -0.4420
  157DOPC    HX18865   5.973   1.058  14.234  0.9198  0.7463 -0.9525
  157DOPC    HY18866   5.913   0.890  14.268  0.8185  0.2182  0.6164
  157DOPC   O3118867   6.090   0.917  14.145  0.3226  0.0389 -0.3017
  157DOPC   C3118868   6.121   0.785  14.136  0.5749 -0.4198  0.2849
  157DOPC   O3218869   6.078   0.698  14.210 -0.9379  0.7386  0.2309
  157DOPC   C3218870   6.206   0.779  14.006 -0.5014  0.2401  0.2226
  157DOPC   H2X18871   6.134   0.740  13.931 -1.3168  0.3612  0.9283
  157DOPC   H2Y18872   6.253   0.874  13.974  0.5779 -0.3739 -0.0780
  157DOPC   C2318873   6.461   1.189  14.245 -0.3651  0.2541  0.0863
  157DOPC   H3R18874   6.506   1.087  14.246 -1.8335 -0.4341  2.3555
  157DOPC   H3S18875   6.538   1.262  14.277 -0.6983  0.5971  0.1080
  157DOPC   C2418876   6.397   1.209  14.100  0.0490 -0.2876 -0.6124
  157DOPC   H4R18877   6.357   1.312  14.086 -0.2721 -0.5096 -1.3683
  157DOPC   H4S18878   6.318   1.135  14.076  0.3132  0.2026 -3.2361
  157DOPC   C2518879   6.511   1.175  13.991  0.1484  0.2306 -0.5431
  157DOPC   H5R18880   6.551   1.073  14.013 -2.3987 -0.4221  1.5632
  157DOPC   H5S18881   6.597   1.243  14.009  0.6913 -0.6539  0.3054
  157DOPC   C2618882   6.450   1.197  13.849  0.3616 -0.4242  0.3802
  157DOPC   H6R18883   6.392   1.292  13.857  0.3458 -0.2918 -0.9856
  157DOPC   H6S18884   6.365   1.128  13.829 -1.0409  1.1401  0.7180
  157DOPC   C2718885   6.557   1.214  13.743 -0.4768  0.1496 -0.4791
  157DOPC   H7R18886   6.599   1.112  13.728 -0.4236  0.1766 -0.5166
  157DOPC   H7S18887   6.628   1.291  13.781  0.0497 -0.7297  0.3523
  157DOPC   C2818888   6.503   1.246  13.604  0.0945  0.2904  0.1992
  157DOPC   H8R18889   6.595   1.253  13.542  0.8618 -0.9933  1.1287
  157DOPC   H8S18890   6.455   1.346  13.600 -0.3101  0.0721 -3.5682
  157DOPC   C2918891   6.404   1.136  13.551 -0.6822 -0.8171  0.0203
  157DOPC   H9R18892   6.302   1.138  13.592 -0.0371 -0.2561  1.6891
  157DOPC  C21018893   6.450   1.037  13.465 -0.1409  0.6236  0.3887
  157DOPC  H10R18894   6.376   0.963  13.432 -0.7949  1.2170  0.5003
  157DOPC  C21118895   6.584   1.026  13.396 -0.0646  0.0768  0.0577
  157DOPC  H11R18896   6.628   0.927  13.420 -0.5373  0.4793  2.9426
  157DOPC  H11S18897   6.653   1.106  13.430 -0.1140 -0.7350  2.2244
  157DOPC  C21218898   6.586   1.050  13.245 -0.4139 -0.7455  0.3819
  157DOPC  H12R18899   6.522   0.982  13.186 -0.4819  0.3718 -0.8580
  157DOPC  H12S18900   6.691   1.031  13.215 -0.9447  0.8007 -2.8397
  157DOPC  C21318901   6.563   1.203  13.207  0.0354 -0.2758  0.4155
  157DOPC  H13R18902   6.634   1.268  13.262 -2.1985  2.1493  0.6358
  157DOPC  H13S18903   6.463   1.236  13.242 -1.8808 -2.0577 -2.8547
  157DOPC  C21418904   6.569   1.243  13.059  0.2081  0.7854  1.1659
  157DOPC  H14R18905   6.538   1.349  13.050 -0.1278  0.5184 -1.5861
  157DOPC  H14S18906   6.483   1.198  13.006  0.4167  0.8360  0.7781
  157DOPC  C21518907   6.695   1.214  12.968  0.4751  0.5258 -0.0688
  157DOPC  H15R18908   6.740   1.114  12.989 -0.3368 -0.1393 -1.3453
  157DOPC  H15S18909   6.770   1.294  12.984  1.7280 -0.9811  2.1891
  157DOPC  C21618910   6.662   1.188  12.823 -0.2889  0.5600 -0.0649
  157DOPC  H16R18911   6.751   1.192  12.755  0.6919 -1.2097  1.0436
  157DOPC  H16S18912   6.593   1.268  12.789 -0.2310  0.8487  0.4941
  157DOPC  C21718913   6.598   1.045  12.799 -0.4236  0.1333  0.4074
  157DOPC  H17R18914   6.515   1.039  12.873  0.5968  1.2863  1.7017
  157DOPC  H17S18915   6.674   0.972  12.833  0.5052  1.1496  0.5581
  157DOPC  C21818916   6.560   1.013  12.650 -0.0678  0.7463  0.4784
  157DOPC  H18R18917   6.487   1.077  12.597 -0.7008 -1.8458 -2.0722
  157DOPC  H18S18918   6.537   0.905  12.638 -0.3324  0.9172 -0.6700
  157DOPC  H18T18919   6.658   1.032  12.601 -0.8784 -0.2926 -1.6596
  157DOPC   C3318920   6.324   0.674  14.016  0.2595  1.0055 -0.2130
  157DOPC   H3X18921   6.287   0.581  14.063 -2.6419  0.9966 -2.2503
  157DOPC   H3Y18922   6.393   0.716  14.092 -0.5248  1.1678  0.4254
  157DOPC   C3418923   6.398   0.646  13.886  0.1705 -0.3845  0.2640
  157DOPC   H4X18924   6.320   0.596  13.825  0.4750  1.0646 -1.3898
  157DOPC   H4Y18925   6.477   0.569  13.898  0.9926  0.0595 -1.8795
  157DOPC   C3518926   6.449   0.774  13.806  0.1537 -0.0558 -0.1386
  157DOPC   H5X18927   6.494   0.846  13.878 -0.1621  1.3949 -1.3416
  157DOPC   H5Y18928   6.367   0.830  13.756  0.1386 -0.6487 -0.7873
  157DOPC   C3618929   6.544   0.732  13.689  0.1190  0.8722  0.7476
  157DOPC   H6X18930   6.571   0.827  13.637  1.8478 -0.3398 -0.6783
  157DOPC   H6Y18931   6.630   0.675  13.730 -0.0674 -0.4440 -0.6041
  157DOPC   C3718932   6.468   0.654  13.582 -0.0344  0.7164  0.6566
  157DOPC   H7X18933   6.451   0.548  13.611 -0.4711 -0.4277 -3.2515
  157DOPC   H7Y18934   6.364   0.690  13.569 -1.6412 -3.1610  1.3523
  157DOPC   C3818935   6.534   0.639  13.443  0.5412  0.7482 -0.4255
  157DOPC   H8X18936   6.636   0.596  13.444  0.1822 -0.3726 -3.2764
  157DOPC   H8Y18937   6.542   0.746  13.412  2.9660  1.0666  1.0120
  157DOPC   C3918938   6.460   0.563  13.333  0.4912 -0.5106 -0.3581
  157DOPC   H9X18939   6.385   0.493  13.372 -0.7597  1.8976  1.8685
  157DOPC  C31018940   6.466   0.575  13.200 -0.3534  0.1512 -0.0651
  157DOPC  H10X18941   6.401   0.511  13.138 -0.0620 -0.9161  0.7021
  157DOPC  C31118942   6.560   0.682  13.134 -0.5607 -0.3010  0.0827
  157DOPC  H11X18943   6.654   0.682  13.192  0.4719 -0.2806 -1.5298
  157DOPC  H11Y18944   6.511   0.780  13.115  1.6709  0.6281 -1.2233
  157DOPC  C31218945   6.616   0.625  13.004  0.5794  0.0999 -0.0012
  157DOPC  H12X18946   6.657   0.525  13.030 -1.2345 -0.5985  0.3776
  157DOPC  H12Y18947   6.699   0.684  12.960  0.8732  0.7463  1.3809
  157DOPC  C31318948   6.506   0.612  12.890  0.2005 -0.3566  0.5362
  157DOPC  H13X18949   6.423   0.551  12.933  0.4154  0.3916  2.0676
  157DOPC  H13Y18950   6.468   0.712  12.860  1.6401  0.4443  1.2519
  157DOPC  C31418951   6.560   0.556  12.760  0.0267  0.4948  0.0678
  157DOPC  H14X18952   6.646   0.617  12.722 -0.7846  0.9993 -1.0185
  157DOPC  H14Y18953   6.600   0.453  12.772 -0.4605  0.4358  1.2541
  157DOPC  C31518954   6.439   0.555  12.665 -0.1876  0.5468  0.8969
  157DOPC  H15X18955   6.384   0.649  12.684 -1.4580 -0.2615  1.3866
  157DOPC  H15Y18956   6.363   0.478  12.692 -0.5603  0.3414 -0.6264
  157DOPC  C31618957   6.478   0.549  12.513  0.1676  0.2597  0.2835
  157DOPC  H16X18958   6.531   0.642  12.485  0.4390 -0.5598 -2.1526
  157DOPC  H16Y18959   6.535   0.456  12.494  0.8759  0.8811 -0.7460
  157DOPC  C31718960   6.352   0.540  12.428  1.0896  0.2086 -0.4400
  157DOPC  H17X18961   6.299   0.443  12.436 -0.5546  1.0954 -0.1334
  157DOPC  H17Y18962   6.285   0.613  12.478  2.0950 -0.0604  1.3891
  157DOPC  C31818963   6.368   0.581  12.285 -0.5952 -0.0400  0.3269
  157DOPC  H18X18964   6.425   0.674  12.266 -1.6949  0.6489  0.3267
  157DOPC  H18Y18965   6.399   0.496  12.221  2.8474  0.5743  0.9433
  157DOPC  H18Z18966   6.267   0.603  12.245 -0.4046  1.3883  0.5645
  158DOPC     N18967   3.447   0.619  14.117  0.7322  1.0028 -0.0889
  158DOPC   C1218968   3.552   0.563  14.019 -0.3210 -0.0347 -0.5816
  158DOPC  H12A18969   3.540   0.600  13.919 -1.1787  1.1448 -0.0639
  158DOPC  H12B18970   3.543   0.455  14.019 -0.1008 -0.0545 -0.5959
  158DOPC   C1318971   3.455   0.548  14.256  0.4023  0.0225  0.6160
  158DOPC  H13A18972   3.457   0.440  14.255 -0.2177  0.0153  0.2981
  158DOPC  H13B18973   3.550   0.578  14.298 -0.0008 -1.1956  2.5137
  158DOPC  H13C18974   3.373   0.586  14.314  0.8284  1.7710  0.1386
  158DOPC   C1418975   3.313   0.584  14.065  0.0313  0.4855 -0.3919
  158DOPC  H14A18976   3.309   0.476  14.058  1.1835  0.4105 -0.0988
  158DOPC  H14B18977   3.232   0.609  14.133  0.2785 -0.7044  0.3777
  158DOPC  H14C18978   3.287   0.627  13.970 -0.8655 -0.6890 -0.7007
  158DOPC   C1518979   3.457   0.764  14.137 -0.9322 -0.2254 -1.0791
  158DOPC  H15A18980   3.367   0.813  14.170 -0.2490  0.7279 -0.5697
  158DOPC  H15B18981   3.479   0.809  14.042 -1.6126  0.8395 -0.7441
  158DOPC  H15C18982   3.552   0.791  14.182 -0.5095 -0.7540 -1.6381
  158DOPC   C1118983   3.697   0.590  14.057  0.1057 -0.5501 -0.4394
  158DOPC  H11A18984   3.754   0.569  13.964 -0.6243  0.8353 -1.2407
  158DOPC  H11B18985   3.700   0.698  14.084 -1.9124 -0.6593  0.3574
  158DOPC     P18986   3.876   0.533  14.232  0.0373 -0.5468 -0.2517
  158DOPC   O1318987   3.927   0.398  14.263  0.0310  0.3994 -0.3076
  158DOPC   O1418988   3.860   0.622  14.349 -0.4349 -0.0233  0.1803
  158DOPC   O1218989   3.734   0.512  14.171  0.1972 -0.1122  0.0122
  158DOPC   O1118990   3.964   0.606  14.117 -0.1560  0.6891  0.1843
  158DOPC    C118991   4.009   0.743  14.127 -0.0694  0.0761 -0.2424
  158DOPC    HA18992   4.109   0.749  14.175 -0.5928 -2.0716  1.2508
  158DOPC    HB18993   3.939   0.803  14.190  0.6412  1.7248 -0.9546
  158DOPC    C218994   4.001   0.815  13.991  0.4417  1.0928 -0.3171
  158DOPC    HS18995   3.897   0.823  13.953 -0.9131  1.6148  3.1320
  158DOPC   O2118996   4.095   0.746  13.904  0.7326 -0.3822 -0.6426
  158DOPC   C2118997   4.084   0.750  13.778  0.1374  0.3556 -0.6581
  158DOPC   O2218998   3.990   0.798  13.714  0.1092  0.0597  0.0312
  158DOPC   C2218999   4.196   0.668  13.705  0.7793 -0.4107  0.1940
  158DOPC   H2R19000   4.186   0.564  13.743 -0.4052 -0.3657  0.0424
  158DOPC   H2S19001   4.294   0.716  13.724  0.4653  0.0809  0.6024
  158DOPC    C319002   4.056   0.958  14.024 -0.8464 -0.0417  0.7030
  158DOPC    HX19003   4.149   0.942  14.082 -0.9957 -1.7672  0.5189
  158DOPC    HY19004   3.971   1.006  14.077 -4.1852 -3.3140 -1.2052
  158DOPC   O3119005   4.086   1.037  13.910 -0.0430 -0.4298  0.5831
  158DOPC   C3119006   3.978   1.071  13.841  0.3145 -0.0159  0.0460
  158DOPC   O3219007   3.862   1.055  13.877  0.5668  0.6393  0.7421
  158DOPC   C3219008   4.017   1.146  13.719  0.1108 -0.3658 -0.0531
  158DOPC   H2X19009   4.079   1.234  13.749  0.8638 -1.4662  1.8477
  158DOPC   H2Y19010   4.071   1.080  13.648 -0.7444 -0.2466 -0.8344
  158DOPC   C2319011   4.200   0.676  13.552  0.6805 -0.1443  0.4927
  158DOPC   H3R19012   4.183   0.782  13.524 -3.3714 -0.9275 -0.6884
  158DOPC   H3S19013   4.113   0.616  13.516  1.7724 -0.1697 -2.3724
  158DOPC   C2419014   4.321   0.622  13.476 -0.3650 -0.1013 -0.0910
  158DOPC   H4R19015   4.338   0.515  13.501  1.2871  0.1944  0.1235
  158DOPC   H4S19016   4.412   0.681  13.499 -0.8057  1.5350 -2.1717
  158DOPC   C2519017   4.305   0.628  13.324  0.2283 -0.1104  0.4150
  158DOPC   H5R19018   4.281   0.731  13.289 -3.3370 -0.6977  0.7055
  158DOPC   H5S19019   4.217   0.569  13.291  2.1235 -2.6111 -0.3888
  158DOPC   C2619020   4.424   0.579  13.242  0.7978 -0.2465  0.9529
  158DOPC   H6R19021   4.426   0.468  13.235 -1.7675 -0.2346 -2.3436
  158DOPC   H6S19022   4.522   0.609  13.284  1.6294 -0.6653 -0.6118
  158DOPC   C2719023   4.415   0.636  13.101  0.6767 -0.4183  0.3273
  158DOPC   H7R19024   4.423   0.747  13.093 -0.7615 -0.2475  0.8843
  158DOPC   H7S19025   4.311   0.614  13.069  1.0473 -0.8885 -0.5732
  158DOPC   C2819026   4.519   0.573  13.005  0.3022 -0.2026  0.2050
  158DOPC   H8R19027   4.510   0.463  13.003 -0.5961 -0.1285  0.0086
  158DOPC   H8S19028   4.622   0.580  13.047  0.3864 -3.8686  0.8769
  158DOPC   C2919029   4.513   0.632  12.866  0.6135 -0.1704  0.2086
  158DOPC   H9R19030   4.555   0.734  12.861 -0.7054  0.3747 -0.1310
  158DOPC  C21019031   4.443   0.593  12.763  0.1647 -0.1012  0.1946
  158DOPC  H10R19032   4.438   0.659  12.675  0.2930  2.5621  2.0586
  158DOPC  C21119033   4.372   0.457  12.756  0.0070  0.1954  0.7087
  158DOPC  H11R19034   4.264   0.468  12.729  0.2975 -1.4423 -1.4330
  158DOPC  H11S19035   4.375   0.400  12.851  0.4785  0.2058  0.6976
  158DOPC  C21219036   4.420   0.390  12.617 -0.7537  0.1540 -0.8128
  158DOPC  H12R19037   4.376   0.458  12.542  0.8939  0.8519 -1.2002
  158DOPC  H12S19038   4.357   0.299  12.605 -0.3612 -0.1440 -0.6586
  158DOPC  C21319039   4.573   0.367  12.608 -0.3023 -0.0014  0.5627
  158DOPC  H13R19040   4.596   0.307  12.699 -1.6520 -0.7552  0.4352
  158DOPC  H13S19041   4.635   0.458  12.599 -0.4824 -0.0998 -2.4144
  158DOPC  C21419042   4.614   0.299  12.481  0.1089 -0.0344 -0.2788
  158DOPC  H14R19043   4.576   0.349  12.389  0.8778 -0.7723 -1.0226
  158DOPC  H14S19044   4.575   0.195  12.472 -1.7231  0.4353  1.3832
  158DOPC  C21519045   4.766   0.278  12.467  0.6188 -0.2716 -0.5786
  158DOPC  H15R19046   4.808   0.244  12.564 -0.8253  2.0814  0.9763
  158DOPC  H15S19047   4.809   0.379  12.451 -1.0098  0.3331 -1.3795
  158DOPC  C21619048   4.823   0.181  12.360  0.3351  0.3117 -0.2032
  158DOPC  H16R19049   4.782   0.205  12.259 -1.0925  0.0958  0.3035
  158DOPC  H16S19050   4.784   0.079  12.379  0.0179  0.7392  1.6450
  158DOPC  C21719051   4.973   0.191  12.340 -0.0413  0.3187  0.3528
  158DOPC  H17R19052   5.011   0.156  12.438  1.4184  0.7546 -0.0360
  158DOPC  H17S19053   4.999   0.298  12.332  0.6408  0.1468  0.1726
  158DOPC  C21819054   5.040   0.101  12.238  0.1686  0.7875 -0.6355
  158DOPC  H18R19055   5.009   0.115  12.133  2.0390 -2.6628 -1.7961
  158DOPC  H18S19056   5.025  -0.007  12.259  1.9421  0.2849 -1.7978
  158DOPC  H18T19057   5.151   0.111  12.238  0.6056 -2.7824  0.2568
  158DOPC   C3319058   3.899   1.209  13.638  0.8461 -0.5202 -0.2309
  158DOPC   H3X19059   3.856   1.293  13.696  2.5167  0.3121 -0.1217
  158DOPC   H3Y19060   3.809   1.144  13.626 -0.2348  1.3940 -4.6364
  158DOPC   C3419061   3.941   1.271  13.497 -0.2006 -0.2919  0.0177
  158DOPC   H4X19062   4.043   1.310  13.515  0.1577 -1.7193  1.2323
  158DOPC   H4Y19063   3.872   1.352  13.462 -0.8663 -1.0626 -0.4871
  158DOPC   C3519064   3.962   1.154  13.398  0.0777  0.1466  0.3465
  158DOPC   H5X19065   3.866   1.098  13.393 -0.6953  1.4639 -0.0180
  158DOPC   H5Y19066   4.041   1.081  13.427 -3.5041 -4.1747  0.3944
  158DOPC   C3619067   3.987   1.211  13.257 -0.2256  0.2325 -0.2128
  158DOPC   H6X19068   3.907   1.283  13.227 -2.2989 -1.9619 -0.2386
  158DOPC   H6Y19069   4.076   1.277  13.250 -0.5573  0.6363 -0.7356
  158DOPC   C3719070   3.985   1.100  13.156 -0.1047 -0.3137  0.1652
  158DOPC   H7X19071   4.062   1.024  13.180  0.5017  0.2296 -0.0301
  158DOPC   H7Y19072   3.888   1.047  13.173  0.1681 -0.9635 -0.2298
  158DOPC   C3819073   4.007   1.140  13.008  0.1411 -0.5173 -0.0221
  158DOPC   H8X19074   3.996   1.043  12.954  1.3535 -1.4317  1.2809
  158DOPC   H8Y19075   4.113   1.172  12.994 -0.2621  0.3288 -1.3535
  158DOPC   C3919076   3.917   1.245  12.951  0.2203  0.1245 -0.3198
  158DOPC   H9X19077   3.850   1.301  13.017 -0.6552 -0.2100 -0.9141
  158DOPC  C31019078   3.924   1.289  12.825  0.1014  0.5151 -0.0722
  158DOPC  H10X19079   3.857   1.372  12.798  0.8295  1.0163 -0.3598
  158DOPC  C31119080   4.009   1.237  12.713 -1.0390 -0.0274 -0.4826
  158DOPC  H11X19081   4.011   1.126  12.710  1.0395 -0.1691  2.2998
  158DOPC  H11Y19082   4.112   1.274  12.729 -1.1821  0.2703 -0.2348
  158DOPC  C31219083   3.971   1.302  12.583 -1.0951  0.4425  0.0672
  158DOPC  H12X19084   3.998   1.409  12.589  0.5331  0.0227  0.7627
  158DOPC  H12Y19085   3.868   1.292  12.543 -1.4800 -0.3567  1.2042
  158DOPC  C31319086   4.058   1.250  12.465 -0.7218 -0.2534 -0.0342
  158DOPC  H13X19087   4.161   1.287  12.486 -0.2213 -0.3634 -2.0282
  158DOPC  H13Y19088   4.055   1.140  12.456  0.7841 -0.3824  0.6955
  158DOPC  C31419089   4.019   1.308  12.327 -0.0420 -0.2863 -0.6039
  158DOPC  H14X19090   3.925   1.255  12.302 -0.9636 -0.2968  2.4789
  158DOPC  H14Y19091   3.996   1.417  12.336  0.9347 -0.2626  3.3216
  158DOPC  C31519092   4.121   1.279  12.217  0.1136  0.1688  0.6940
  158DOPC  H15X19093   4.217   1.331  12.237 -0.4287  2.0142 -1.0683
  158DOPC  H15Y19094   4.087   1.333  12.125  3.0178  0.3230 -0.3873
  158DOPC  C31619095   4.139   1.133  12.168 -0.5831 -0.4144  0.4269
  158DOPC  H16X19096   4.167   1.064  12.251 -3.7278  0.4435  2.3812
  158DOPC  H16Y19097   4.037   1.102  12.138 -0.3184 -1.9834  1.0186
  158DOPC  C31719098   4.243   1.134  12.044 -0.1738 -0.2628  0.2348
  158DOPC  H17X19099   4.204   1.204  11.967 -1.5000  0.1738  1.2542
  158DOPC  H17Y19100   4.340   1.164  12.091 -0.1908  1.5184 -0.7712
  158DOPC  C31819101   4.262   0.997  11.987 -0.1253  0.5210 -0.1920
  158DOPC  H18X19102   4.350   0.999  11.919 -1.0931  1.4856 -1.4724
  158DOPC  H18Y19103   4.283   0.929  12.072  0.9823  0.4052 -0.5366
  158DOPC  H18Z19104   4.171   0.971  11.928  0.3453  1.6104 -1.4531
  159DOPC     N19105   0.343   0.621  14.482  0.0628 -0.3201 -0.1324
  159DOPC   C1219106   0.369   0.628  14.335 -0.2238 -0.6344 -0.7354
  159DOPC  H12A19107   0.417   0.724  14.327  0.0519 -0.7898 -0.9838
  159DOPC  H12B19108   0.272   0.626  14.288 -2.4837 -0.2109  3.4686
  159DOPC   C1319109   0.475   0.640  14.562  0.2273 -0.1601  0.7141
  159DOPC  H13A19110   0.448   0.616  14.663 -2.8093 -1.6476 -0.3049
  159DOPC  H13B19111   0.545   0.567  14.524 -0.8638 -1.2519  0.7530
  159DOPC  H13C19112   0.520   0.738  14.554  1.3506 -0.7636 -0.7621
  159DOPC   C1419113   0.286   0.492  14.539  0.2456 -0.8091 -0.3050
  159DOPC  H14A19114   0.355   0.411  14.520  2.2545  0.5509  0.8549
  159DOPC  H14B19115   0.271   0.502  14.645 -0.2618  0.5108 -0.4923
  159DOPC  H14C19116   0.189   0.465  14.500  0.3936 -2.5144  0.4065
  159DOPC   C1519117   0.252   0.730  14.525 -0.2388 -0.2367 -0.5424
  159DOPC  H15A19118   0.258   0.738  14.633  0.1710  2.7511 -0.7139
  159DOPC  H15B19119   0.152   0.714  14.488 -0.5190 -1.0289  0.4927
  159DOPC  H15C19120   0.291   0.822  14.485  0.5829 -0.6380 -0.6755
  159DOPC   C1119121   0.465   0.534  14.266 -0.5129  0.8463  0.4618
  159DOPC  H11A19122   0.438   0.432  14.299 -1.5568  0.1831 -2.2088
  159DOPC  H11B19123   0.443   0.535  14.157  1.9640  0.5396 -0.1072
  159DOPC     P19124   0.678   0.698  14.250  0.2388  0.2850  0.1785
  159DOPC   O1319125   0.780   0.675  14.147  0.5160  0.1213  0.3616
  159DOPC   O1419126   0.725   0.744  14.383  0.4267  0.2064  0.2286
  159DOPC   O1219127   0.598   0.573  14.287  0.3387  0.3570 -0.4527
  159DOPC   O1119128   0.575   0.794  14.191  0.2179 -0.7857 -0.4479
  159DOPC    C119129   0.597   0.941  14.199  0.1836  0.0517 -0.4353
  159DOPC    HA19130   0.701   0.957  14.234  0.7055 -3.0986 -0.2188
  159DOPC    HB19131   0.545   0.984  14.286 -2.0216  0.1669 -1.7450
  159DOPC    C219132   0.581   1.019  14.066  0.3996  0.1456 -0.6310
  159DOPC    HS19133   0.606   1.127  14.072 -2.7618  0.9947 -0.8681
  159DOPC   O2119134   0.441   1.013  14.025  0.0670  0.9171  0.2392
  159DOPC   C2119135   0.360   1.104  14.087  0.7243 -0.2057 -0.4934
  159DOPC   O2219136   0.404   1.198  14.153 -0.6716 -0.1157 -0.6369
  159DOPC   C2219137   0.218   1.097  14.039 -0.0912  0.2567 -0.0833
  159DOPC   H2R19138   0.153   1.120  14.126 -2.0616 -2.1298 -0.8196
  159DOPC   H2S19139   0.199   0.999  13.992  0.2302  1.1760 -2.2683
  159DOPC    C319140   0.683   0.957  13.960  0.9071 -0.6684 -0.2060
  159DOPC    HX19141   0.658   0.849  13.976 -0.3561 -0.2437  0.9572
  159DOPC    HY19142   0.781   0.988  14.001  0.5744  2.2939 -1.4272
  159DOPC   O3119143   0.653   1.016  13.831 -0.0847  0.0089 -0.2433
  159DOPC   C3119144   0.601   0.930  13.735 -0.2675 -0.8901 -1.0932
  159DOPC   O3219145   0.589   0.814  13.745 -0.2837  0.5230 -0.6577
  159DOPC   C3219146   0.580   1.010  13.613 -0.5800 -0.0032  0.1224
  159DOPC   H2X19147   0.472   1.031  13.596 -0.7399 -0.7337  0.2121
  159DOPC   H2Y19148   0.627   1.109  13.631 -0.9504 -0.1081  1.9142
  159DOPC   C2319149   0.184   1.189  13.927  0.4423 -0.3993  0.7208
  159DOPC   H3R19150   0.184   1.291  13.972 -2.3514 -0.6349  1.4436
  159DOPC   H3S19151   0.082   1.162  13.893  0.3708  0.1980  0.4390
  159DOPC   C2419152   0.276   1.184  13.802 -0.2350  0.3008 -0.1092
  159DOPC   H4R19153   0.296   1.084  13.759  2.0510  1.7413 -2.6912
  159DOPC   H4S19154   0.374   1.230  13.828 -0.0738  0.3936 -0.8703
  159DOPC   C2519155   0.225   1.278  13.692 -0.0360  0.0053  0.1764
  159DOPC   H5R19156   0.272   1.377  13.712  0.5710 -0.3878  0.7107
  159DOPC   H5S19157   0.115   1.275  13.705  0.0970  0.2390  1.4170
  159DOPC   C2619158   0.263   1.242  13.555 -0.3664 -0.9496  0.5210
  159DOPC   H6R19159   0.200   1.163  13.508 -0.6132  0.7242 -2.1886
  159DOPC   H6S19160   0.371   1.218  13.565 -0.2581 -0.2679  1.0504
  159DOPC   C2719161   0.264   1.352  13.444 -0.4268  0.2235  0.0088
  159DOPC   H7R19162   0.338   1.434  13.459 -0.4908  0.9508 -3.0685
  159DOPC   H7S19163   0.160   1.390  13.437  0.0402  1.3011 -1.5667
  159DOPC   C2819164   0.301   1.302  13.305  0.6480  0.3060 -0.0589
  159DOPC   H8R19165   0.257   1.202  13.287 -1.2741  1.1808 -0.4315
  159DOPC   H8S19166   0.410   1.283  13.315  0.5844  0.0357  0.1186
  159DOPC   C2919167   0.265   1.405  13.193  0.0053 -0.2652 -0.3403
  159DOPC   H9R19168   0.181   1.473  13.216  0.6655  0.5413 -0.2407
  159DOPC  C21019169   0.330   1.424  13.073  0.0937 -0.2595  0.4140
  159DOPC  H10R19170   0.293   1.497  12.998  1.8100 -0.2543 -0.4630
  159DOPC  C21119171   0.440   1.338  13.024  0.1246  0.2771  0.1588
  159DOPC  H11R19172   0.487   1.265  13.094  0.6873 -0.5438 -1.0386
  159DOPC  H11S19173   0.525   1.396  12.981  1.5628 -1.3769  0.6491
  159DOPC  C21219174   0.397   1.243  12.912  0.6125  0.7115  0.3274
  159DOPC  H12R19175   0.326   1.165  12.946  0.5650  0.6588  0.1078
  159DOPC  H12S19176   0.488   1.191  12.876 -0.6336 -1.4788  0.1866
  159DOPC  C21319177   0.343   1.304  12.783 -0.8052 -0.0218  0.4903
  159DOPC  H13R19178   0.417   1.378  12.747 -0.3654  0.3150  1.9992
  159DOPC  H13S19179   0.249   1.361  12.801  0.2425  2.5049 -1.3896
  159DOPC  C21419180   0.310   1.194  12.677 -0.0338  0.1530  0.4086
  159DOPC  H14R19181   0.237   1.118  12.711  0.6481 -0.8673 -0.3765
  159DOPC  H14S19182   0.399   1.131  12.657 -0.4177 -0.4326  0.5376
  159DOPC  C21519183   0.260   1.263  12.554  0.1546 -0.2430 -0.6492
  159DOPC  H15R19184   0.344   1.323  12.511 -0.3109  1.0229  0.1732
  159DOPC  H15S19185   0.173   1.321  12.590  0.5932 -1.0161  1.8461
  159DOPC  C21619186   0.215   1.168  12.449 -0.2629  0.4672  0.1469
  159DOPC  H16R19187   0.147   1.094  12.496 -0.3485 -0.9790 -2.1268
  159DOPC  H16S19188   0.300   1.112  12.404  0.7864  1.3918  0.9192
  159DOPC  C21719189   0.151   1.241  12.330  0.8830  1.2216  0.1452
  159DOPC  H17R19190   0.214   1.329  12.307  2.1383  1.0360  2.5709
  159DOPC  H17S19191   0.055   1.276  12.372  0.0426 -1.0179  0.2516
  159DOPC  C21819192   0.134   1.145  12.215  0.2866  0.0270  0.0238
  159DOPC  H18R19193   0.093   1.190  12.122 -0.3988 -0.3339  0.1480
  159DOPC  H18S19194   0.062   1.065  12.243  0.5677  0.5170  2.2833
  159DOPC  H18T19195   0.236   1.111  12.185  0.8504  1.6121  0.0452
  159DOPC   C3319196   0.646   0.958  13.482  0.2903 -0.1631  0.2799
  159DOPC   H3X19197   0.627   0.849  13.482 -0.3364 -0.1191 -2.3498
  159DOPC   H3Y19198   0.755   0.981  13.480 -0.1062  1.9555 -1.6466
  159DOPC   C3419199   0.596   1.021  13.353 -0.4490 -0.2815 -0.8850
  159DOPC   H4X19200   0.634   1.125  13.350 -1.6476  0.2401  0.7504
  159DOPC   H4Y19201   0.485   1.026  13.357 -0.3748  1.2341 -0.0600
  159DOPC   C3519202   0.659   0.951  13.235 -0.4802 -0.6680 -0.1370
  159DOPC   H5X19203   0.613   0.851  13.225 -2.9804  0.2272  1.5805
  159DOPC   H5Y19204   0.765   0.939  13.267 -0.8839 -1.0517  1.1138
  159DOPC   C3619205   0.633   1.017  13.099 -0.0737  0.1097 -0.1296
  159DOPC   H6X19206   0.525   1.028  13.073 -0.3444  1.3460  1.3918
  159DOPC   H6Y19207   0.673   1.121  13.104 -0.6512  0.3257  0.1656
  159DOPC   C3719208   0.703   0.936  12.979  0.0156  0.6699 -0.2546
  159DOPC   H7X19209   0.810   0.945  13.009 -0.1943 -0.0779  0.7939
  159DOPC   H7Y19210   0.666   0.831  12.988  0.3109  0.5210 -0.7188
  159DOPC   C3819211   0.669   0.988  12.841  0.6476  0.1110 -0.1981
  159DOPC   H8X19212   0.686   1.098  12.840  0.7877  0.0887 -0.2719
  159DOPC   H8Y19213   0.559   0.988  12.827  0.3818  0.5876  1.6179
  159DOPC   C3919214   0.751   0.925  12.732  0.0577  0.2351 -0.1943
  159DOPC   H9X19215   0.856   0.903  12.754  0.3305 -2.3339 -3.2890
  159DOPC  C31019216   0.720   0.894  12.606  0.3906 -0.4061 -0.2137
  159DOPC  H10X19217   0.795   0.847  12.540 -2.2216 -3.1596 -1.4471
  159DOPC  C31119218   0.587   0.896  12.543 -0.3607  0.2044 -0.8351
  159DOPC  H11X19219   0.506   0.944  12.602  0.3178  0.1530  0.1721
  159DOPC  H11Y19220   0.549   0.792  12.532  0.8284 -0.2314 -0.9574
  159DOPC  C31219221   0.604   0.961  12.402  0.5624 -0.0453  0.0169
  159DOPC  H12X19222   0.636   1.065  12.425  0.9673 -0.8288  3.6001
  159DOPC  H12Y19223   0.504   0.956  12.353  0.4371 -0.5534  0.3122
  159DOPC  C31319224   0.693   0.892  12.300  0.1273 -0.6350  0.2035
  159DOPC  H13X19225   0.796   0.879  12.338 -0.2109 -1.1632  0.9734
  159DOPC  H13Y19226   0.665   0.789  12.269  0.3289 -0.9841  1.1573
  159DOPC  C31419227   0.690   0.977  12.171  0.0956  0.8118 -0.1055
  159DOPC  H14X19228   0.594   0.946  12.125 -0.9355  0.8153  1.9350
  159DOPC  H14Y19229   0.672   1.084  12.197 -0.4351  1.3661 -2.5180
  159DOPC  C31519230   0.807   0.966  12.073 -0.4165  0.5366  0.5612
  159DOPC  H15X19231   0.905   0.980  12.123 -0.3102  1.7539  0.0441
  159DOPC  H15Y19232   0.801   1.046  11.997  0.4889  1.1503  1.1188
  159DOPC  C31619233   0.810   0.829  12.001 -0.0715  0.0398  0.4598
  159DOPC  H16X19234   0.818   0.736  12.061 -0.6582 -1.0485 -1.0600
  159DOPC  H16Y19235   0.712   0.813  11.950  0.4360  0.6685 -0.7601
  159DOPC  C31719236   0.920   0.821  11.890  0.2451  0.0309 -0.3127
  159DOPC  H17X19237   0.891   0.906  11.824 -1.5098  0.2740  0.7142
  159DOPC  H17Y19238   1.021   0.833  11.935  0.2903 -0.2810 -0.3321
  159DOPC  C31819239   0.925   0.682  11.832 -0.1937  0.3037  0.7852
  159DOPC  H18X19240   0.998   0.686  11.749 -0.9762 -0.6640  0.0150
  159DOPC  H18Y19241   0.977   0.619  11.908  1.9326  1.5781  0.4678
  159DOPC  H18Z19242   0.829   0.637  11.797 -0.0168  0.2856  0.3196
  160DOPC     N19243   2.690   5.631  14.697  0.0584 -0.2496  0.2379
  160DOPC   C1219244   2.823   5.698  14.657  0.6003 -0.3818  0.1837
  160DOPC  H12A19245   2.867   5.634  14.582  1.0811 -1.0375  1.0006
  160DOPC  H12B19246   2.887   5.696  14.745 -1.3524 -1.7650  1.6565
  160DOPC   C1319247   2.605   5.608  14.576 -0.9713  0.4095  0.6969
  160DOPC  H13A19248   2.644   5.530  14.512 -0.9363  2.3783 -1.8677
  160DOPC  H13B19249   2.502   5.581  14.597 -1.3065 -0.5820 -1.8249
  160DOPC  H13C19250   2.611   5.699  14.517  0.4105  0.7893  1.3943
  160DOPC   C1419251   2.623   5.722  14.793 -0.1178  0.5957  0.3407
  160DOPC  H14A19252   2.690   5.753  14.872  1.9037 -0.1013 -1.0133
  160DOPC  H14B19253   2.586   5.808  14.739  0.5275 -0.3567 -1.7303
  160DOPC  H14C19254   2.537   5.678  14.843  0.0224 -0.8977 -0.6590
  160DOPC   C1519255   2.721   5.504  14.766 -0.2096 -0.0910 -0.2491
  160DOPC  H15A19256   2.784   5.446  14.701  0.7722  0.1475  0.4804
  160DOPC  H15B19257   2.628   5.453  14.788  0.1351  0.1122  1.8525
  160DOPC  H15C19258   2.766   5.516  14.863  0.8036  0.0608 -0.7321
  160DOPC   C1119259   2.830   5.839  14.595 -0.0191  0.5198 -0.6522
  160DOPC  H11A19260   2.802   5.909  14.677  1.7133  2.1975 -1.4128
  160DOPC  H11B19261   2.938   5.862  14.577  0.2266  0.4754  0.6584
  160DOPC     P19262   2.708   6.011  14.441  0.3518  0.0631  0.1407
  160DOPC   O1319263   2.712   6.092  14.566  0.1093 -0.0947 -0.2375
  160DOPC   O1419264   2.576   6.001  14.370 -0.0286  0.3694  0.5066
  160DOPC   O1219265   2.756   5.861  14.477 -0.2473 -0.4234  0.4066
  160DOPC   O1119266   2.820   6.057  14.341 -0.6290  0.6877 -0.6599
  160DOPC    C119267   2.893   5.965  14.257 -0.5949 -0.2543  0.0893
  160DOPC    HA19268   2.874   5.857  14.274  0.3933 -0.2943  1.0306
  160DOPC    HB19269   3.000   5.979  14.282 -0.7733 -0.3668  0.9477
  160DOPC    C219270   2.874   5.985  14.100  0.1655  0.3631  0.2361
  160DOPC    HS19271   2.955   5.934  14.045  0.9473  1.4092  0.3869
  160DOPC   O2119272   2.880   6.127  14.072 -0.1173  0.0265  0.2809
  160DOPC   C2119273   2.995   6.181  14.035  0.0083  0.2317  1.0650
  160DOPC   O2219274   3.101   6.125  14.052 -0.5383 -0.7434  0.3088
  160DOPC   C2219275   2.967   6.325  13.986  0.4246 -0.3675  0.5214
  160DOPC   H2R19276   2.967   6.390  14.076 -1.1815 -0.3892  0.5621
  160DOPC   H2S19277   2.866   6.330  13.941  0.4457  0.9473  0.5728
  160DOPC    C319278   2.732   5.942  14.053 -0.1247 -0.0532 -0.2936
  160DOPC    HX19279   2.659   5.978  14.129 -0.7858 -1.2394 -0.3498
  160DOPC    HY19280   2.723   5.832  14.066 -0.5486 -0.2764 -2.1675
  160DOPC   O3119281   2.709   5.973  13.914 -0.1817  0.4721 -0.6913
  160DOPC   C3119282   2.625   6.075  13.904  0.3124  0.4306  0.0616
  160DOPC   O3219283   2.574   6.139  13.999 -0.0122 -0.6050  0.0408
  160DOPC   C3219284   2.587   6.101  13.760 -0.2766 -0.3559  0.5910
  160DOPC   H2X19285   2.493   6.161  13.755  0.0219  0.0668 -0.0383
  160DOPC   H2Y19286   2.666   6.155  13.705 -0.8330  0.6233  0.7300
  160DOPC   C2319287   3.060   6.376  13.883 -0.2789  0.4647 -0.5975
  160DOPC   H3R19288   3.156   6.421  13.915 -0.8724  1.5294 -0.2927
  160DOPC   H3S19289   3.013   6.467  13.841  0.6028  2.0526  1.6912
  160DOPC   C2419290   3.074   6.286  13.764  0.6635  0.6126  0.0086
  160DOPC   H4R19291   3.086   6.178  13.787 -0.9253  0.1626 -1.1016
  160DOPC   H4S19292   3.166   6.317  13.710  0.7926 -2.7309 -1.9749
  160DOPC   C2519293   2.956   6.303  13.675  0.7579  0.5077 -0.2819
  160DOPC   H5R19294   2.923   6.408  13.655 -1.1120  0.2990  1.4414
  160DOPC   H5S19295   2.873   6.254  13.729  1.0192  1.5331  1.0862
  160DOPC   C2619296   2.964   6.244  13.529  0.9827  0.4670  0.1052
  160DOPC   H6R19297   3.056   6.278  13.477  0.6681  0.3931 -0.5032
  160DOPC   H6S19298   2.875   6.265  13.466  0.7077  0.0828  0.3599
  160DOPC   C2719299   2.965   6.090  13.544  0.6288 -0.5313  0.4035
  160DOPC   H7R19300   2.869   6.055  13.589 -0.7675 -0.1752 -2.1268
  160DOPC   H7S19301   3.048   6.049  13.606  0.8326 -1.2557 -0.3242
  160DOPC   C2819302   2.992   6.030  13.400 -0.1456  0.2061 -0.5830
  160DOPC   H8R19303   3.042   5.932  13.412  0.0629  0.1742 -1.6286
  160DOPC   H8S19304   3.061   6.099  13.347  0.4090  0.4823  0.4602
  160DOPC   C2919305   2.862   6.021  13.326 -0.3004 -0.4077 -0.0682
  160DOPC   H9R19306   2.796   5.938  13.355  1.7576 -1.5530  1.6071
  160DOPC  C21019307   2.835   6.107  13.227  0.0781 -0.4803 -0.2163
  160DOPC  H10R19308   2.741   6.082  13.175  0.7424 -0.8153 -1.2968
  160DOPC  C21119309   2.921   6.216  13.172 -0.2314  0.1108 -0.6075
  160DOPC  H11R19310   3.030   6.194  13.171  0.1427  1.7425 -0.0434
  160DOPC  H11S19311   2.920   6.302  13.243 -1.8264 -0.3931  0.0134
  160DOPC  C21219312   2.899   6.253  13.029 -0.4046 -0.1502 -0.4766
  160DOPC  H12R19313   2.965   6.338  13.000 -1.2773  0.3938 -0.9242
  160DOPC  H12S19314   2.794   6.287  13.013 -1.3430 -3.5893 -2.7825
  160DOPC  C21319315   2.919   6.133  12.930 -0.4941 -0.5665  0.5165
  160DOPC  H13R19316   2.847   6.052  12.953 -0.1670 -1.3716 -1.1398
  160DOPC  H13S19317   3.018   6.083  12.934  0.3727  1.0948  0.7396
  160DOPC  C21419318   2.880   6.164  12.784  0.3002  0.1371  0.2580
  160DOPC  H14R19319   2.937   6.255  12.757  0.5185  0.8461  2.8241
  160DOPC  H14S19320   2.772   6.181  12.769  0.2202 -1.2813 -1.1639
  160DOPC  C21519321   2.918   6.045  12.695 -0.5686  0.2401  0.5490
  160DOPC  H15R19322   2.867   5.953  12.730 -1.8666  0.2631 -1.1529
  160DOPC  H15S19323   3.025   6.016  12.695 -0.6583 -0.1893 -1.0804
  160DOPC  C21619324   2.875   6.065  12.548  0.4902 -0.0609  0.4217
  160DOPC  H16R19325   2.764   6.052  12.547  0.5547 -0.7026  0.9318
  160DOPC  H16S19326   2.912   5.981  12.485 -0.3351 -0.1264  0.0067
  160DOPC  C21719327   2.902   6.198  12.476  0.3019 -0.8002 -0.0473
  160DOPC  H17R19328   2.996   6.244  12.514  0.3389  0.5873 -1.7071
  160DOPC  H17S19329   2.819   6.264  12.507  0.4305 -1.5064  1.9014
  160DOPC  C21819330   2.893   6.187  12.324  0.3073  0.6571 -0.8856
  160DOPC  H18R19331   2.964   6.114  12.280 -0.5994  0.2841 -1.7420
  160DOPC  H18S19332   2.898   6.291  12.286 -0.7190  0.6106 -1.1729
  160DOPC  H18T19333   2.791   6.153  12.299 -0.1159  0.6708  0.6815
  160DOPC   C3319334   2.551   5.978  13.681  0.7605  0.1770 -0.0545
  160DOPC   H3X19335   2.492   5.905  13.741  0.7498 -0.4986 -0.8613
  160DOPC   H3Y19336   2.645   5.926  13.653  1.4440 -0.3308  2.8052
  160DOPC   C3419337   2.475   6.023  13.556  0.5624 -0.3497  0.8104
  160DOPC   H4X19338   2.515   6.115  13.507 -1.0471 -1.0313 -2.0148
  160DOPC   H4Y19339   2.370   6.048  13.580  0.0334 -0.6727 -0.9901
  160DOPC   C3519340   2.464   5.921  13.438  0.8024  0.1174 -0.0566
  160DOPC   H5X19341   2.379   5.855  13.467 -0.0805  1.2924  0.1156
  160DOPC   H5Y19342   2.550   5.856  13.413  0.9867  0.2589  0.2045
  160DOPC   C3619343   2.414   5.998  13.310  0.0645  0.1552  0.1107
  160DOPC   H6X19344   2.339   6.074  13.339  0.1400  0.0380  0.6327
  160DOPC   H6Y19345   2.494   6.044  13.249 -1.2246  0.8341 -1.1155
  160DOPC   C3719346   2.353   5.913  13.201 -0.0752 -0.5071 -0.9035
  160DOPC   H7X19347   2.431   5.839  13.174 -0.1576 -0.8206 -0.3101
  160DOPC   H7Y19348   2.267   5.854  13.240 -1.0883  0.8766 -0.9538
  160DOPC   C3819349   2.324   5.990  13.068  0.4902  0.2500 -0.1824
  160DOPC   H8X19350   2.416   6.020  13.015  0.3403 -0.4517 -0.8573
  160DOPC   H8Y19351   2.267   6.082  13.094 -1.8088 -1.3292  0.7301
  160DOPC   C3919352   2.236   5.898  12.979 -0.0702  0.5239 -0.1270
  160DOPC   H9X19353   2.154   5.843  13.029  0.1487 -0.7368 -1.0945
  160DOPC  C31019354   2.239   5.880  12.848  0.1669 -0.2984 -0.2907
  160DOPC  H10X19355   2.180   5.797  12.806  3.5849 -3.4280  0.5386
  160DOPC  C31119356   2.331   5.945  12.757 -0.7650  0.3071  0.0883
  160DOPC  H11X19357   2.381   6.032  12.804  1.7526 -1.2798  0.5300
  160DOPC  H11Y19358   2.277   5.980  12.667  1.0515 -0.6065 -1.4423
  160DOPC  C31219359   2.435   5.838  12.716 -0.2458  0.1405  0.0908
  160DOPC  H12X19360   2.397   5.742  12.674  0.5114  0.6913 -1.9493
  160DOPC  H12Y19361   2.504   5.820  12.801  0.2983  1.8631  0.0332
  160DOPC  C31319362   2.519   5.889  12.591 -0.4767  0.1740  0.4506
  160DOPC  H13X19363   2.542   5.996  12.614 -0.3617  0.1908  0.2611
  160DOPC  H13Y19364   2.609   5.825  12.581 -0.5019  0.3155 -0.8404
  160DOPC  C31419365   2.442   5.881  12.456 -0.4620 -0.2795  0.1086
  160DOPC  H14X19366   2.408   5.775  12.454  0.0730 -0.5561  2.8006
  160DOPC  H14Y19367   2.366   5.961  12.472 -0.5464 -0.1491 -0.8757
  160DOPC  C31519368   2.518   5.910  12.323  0.1206  0.5343  0.5193
  160DOPC  H15X19369   2.560   6.013  12.325  0.3524  0.4300  1.2214
  160DOPC  H15Y19370   2.448   5.918  12.237  2.1085 -0.9426 -1.3024
  160DOPC  C31619371   2.638   5.814  12.283 -0.1494 -0.0861 -0.3604
  160DOPC  H16X19372   2.721   5.832  12.354 -0.3619 -1.8183  0.3692
  160DOPC  H16Y19373   2.596   5.712  12.300  0.5446 -0.4484 -0.7377
  160DOPC  C31719374   2.669   5.825  12.132  0.4816 -0.1176 -0.3102
  160DOPC  H17X19375   2.590   5.778  12.069 -2.1692  1.1615  1.8363
  160DOPC  H17Y19376   2.657   5.931  12.103  0.9967 -0.3504 -1.3892
  160DOPC  C31819377   2.812   5.778  12.117 -0.1914 -0.4307  0.0689
  160DOPC  H18X19378   2.850   5.793  12.014  0.8350  0.6309  0.5879
  160DOPC  H18Y19379   2.886   5.831  12.180 -0.0458  0.5206 -0.8746
  160DOPC  H18Z19380   2.823   5.671  12.146  0.4441  0.3240  2.8783
  161DOPC     N19381   3.413   1.406  14.903  0.1725  0.0753  0.2107
  161DOPC   C1219382   3.472   1.485  14.786  0.2445  0.0860  0.6586
  161DOPC  H12A19383   3.465   1.590  14.813 -0.1956  0.3870 -0.5570
  161DOPC  H12B19384   3.407   1.476  14.701  0.6761 -1.5369  0.4763
  161DOPC   C1319385   3.498   1.419  15.027  0.2558  0.3000 -0.5965
  161DOPC  H13A19386   3.467   1.344  15.099  0.1371  1.0702  0.1737
  161DOPC  H13B19387   3.603   1.413  15.000  0.3913 -1.2747  0.1396
  161DOPC  H13C19388   3.470   1.516  15.066 -2.0565 -0.4174 -0.3632
  161DOPC   C1419389   3.407   1.264  14.871 -0.7168  0.5491  0.5826
  161DOPC  H14A19390   3.342   1.254  14.785  0.2742  3.0953 -0.5687
  161DOPC  H14B19391   3.508   1.236  14.845 -0.8356  0.6955 -0.0517
  161DOPC  H14C19392   3.375   1.194  14.947 -3.8390  1.1785  0.0099
  161DOPC   C1519393   3.281   1.469  14.937 -0.8438  0.6763  0.7215
  161DOPC  H15A19394   3.214   1.463  14.853  1.1468  1.3267 -1.0133
  161DOPC  H15B19395   3.283   1.566  14.984 -0.3281  0.0805  1.9711
  161DOPC  H15C19396   3.250   1.410  15.022 -4.7650 -0.3723 -1.2097
  161DOPC   C1119397   3.609   1.451  14.731 -1.0578 -0.4176 -0.2990
  161DOPC  H11A19398   3.642   1.522  14.653  0.4066 -2.3684 -1.5378
  161DOPC  H11B19399   3.687   1.468  14.810 -0.7144  0.5118 -0.8260
  161DOPC     P19400   3.573   1.280  14.545  0.2826 -0.0985  0.4595
  161DOPC   O1319401   3.493   1.155  14.553  0.1825  0.1808 -0.1157
  161DOPC   O1419402   3.693   1.281  14.463 -0.0882  0.0313 -0.3395
  161DOPC   O1219403   3.617   1.314  14.690  0.5106 -0.6177 -0.0810
  161DOPC   O1119404   3.474   1.396  14.507 -0.9596 -0.0359 -0.3821
  161DOPC    C119405   3.488   1.502  14.415  0.3881  0.3344 -0.4541
  161DOPC    HA19406   3.579   1.560  14.445  1.1236 -0.8193 -0.3797
  161DOPC    HB19407   3.394   1.557  14.435 -1.0986 -1.3864 -2.3447
  161DOPC    C219408   3.487   1.470  14.259 -0.2322  0.0069 -0.3133
  161DOPC    HS19409   3.408   1.394  14.239 -0.0818 -0.6844  1.5662
  161DOPC   O2119410   3.615   1.423  14.233  0.2752  0.6950  0.7604
  161DOPC   C2119411   3.619   1.333  14.132 -0.4491  0.6372 -0.3674
  161DOPC   O2219412   3.521   1.295  14.069 -0.0063 -0.4441 -0.2416
  161DOPC   C2219413   3.761   1.307  14.099 -0.1635 -0.2110 -0.3876
  161DOPC   H2R19414   3.775   1.231  14.020 -1.0355  0.0421 -0.7987
  161DOPC   H2S19415   3.810   1.271  14.192  2.1838  2.0333 -0.6602
  161DOPC    C319416   3.452   1.602  14.182  0.0139  0.5888 -0.7218
  161DOPC    HX19417   3.545   1.664  14.188 -0.0459  0.8960 -2.5329
  161DOPC    HY19418   3.374   1.649  14.246 -0.5229 -0.5473 -0.5297
  161DOPC   O3119419   3.419   1.586  14.045  0.0888 -0.4344 -0.2259
  161DOPC   C3119420   3.295   1.518  14.036  0.6578  0.3472  0.2641
  161DOPC   O3219421   3.219   1.505  14.130 -0.3032 -0.1688 -0.2363
  161DOPC   C3219422   3.263   1.481  13.895 -0.2928 -0.4157  0.4104
  161DOPC   H2X19423   3.271   1.578  13.842  2.8042 -1.0661 -0.5453
  161DOPC   H2Y19424   3.331   1.400  13.861 -0.7168 -0.9794  0.8712
  161DOPC   C2319425   3.835   1.437  14.057 -0.2380 -0.0057 -1.0099
  161DOPC   H3R19426   3.937   1.409  14.023 -0.6241 -2.0119 -0.6316
  161DOPC   H3S19427   3.833   1.514  14.137  0.1415  0.0083 -1.0139
  161DOPC   C2419428   3.767   1.499  13.929 -0.1640  0.1510 -0.5848
  161DOPC   H4R19429   3.660   1.522  13.950 -0.6342  0.1406 -2.7449
  161DOPC   H4S19430   3.781   1.419  13.854 -0.8311 -0.7206  0.1965
  161DOPC   C2519431   3.852   1.625  13.883  0.6806 -0.0160  0.7390
  161DOPC   H5R19432   3.871   1.702  13.960  2.5868  1.1302 -0.7757
  161DOPC   H5S19433   3.791   1.668  13.801  2.5262 -0.0480 -0.7344
  161DOPC   C2619434   3.986   1.587  13.831  0.1796 -0.8750 -0.2692
  161DOPC   H6R19435   3.977   1.531  13.736 -1.1515 -0.1247 -0.6216
  161DOPC   H6S19436   4.041   1.532  13.910  1.1297 -0.7615 -0.8374
  161DOPC   C2719437   4.075   1.717  13.805 -0.9229  0.4141  0.2098
  161DOPC   H7R19438   4.176   1.672  13.814 -0.4521  1.5851  0.9596
  161DOPC   H7S19439   4.060   1.796  13.882  0.0867 -0.4011  1.2758
  161DOPC   C2819440   4.050   1.778  13.661 -0.1011  0.7699  0.1402
  161DOPC   H8R19441   4.048   1.695  13.587  0.1731 -1.7308  2.7554
  161DOPC   H8S19442   4.132   1.845  13.630 -0.3668  0.7431 -0.6364
  161DOPC   C2919443   3.921   1.858  13.647 -0.4119  0.0542 -0.4671
  161DOPC   H9R19444   3.908   1.941  13.717 -1.2436 -0.3915 -0.0834
  161DOPC  C21019445   3.833   1.842  13.552 -0.3486  0.8972  0.8999
  161DOPC  H10R19446   3.763   1.923  13.524 -0.4220  0.3833 -0.4878
  161DOPC  C21119447   3.831   1.734  13.450  0.0524  0.0259  0.5615
  161DOPC  H11R19448   3.787   1.636  13.479 -1.5820  0.2311 -1.0277
  161DOPC  H11S19449   3.935   1.712  13.415 -0.6021 -1.6277 -0.5077
  161DOPC  C21219450   3.763   1.779  13.315  0.4220 -0.3986  0.4595
  161DOPC  H12R19451   3.821   1.869  13.285  0.2658 -0.3289  0.3696
  161DOPC  H12S19452   3.660   1.813  13.336  1.1582  3.2792 -1.1158
  161DOPC  C21319453   3.776   1.671  13.208 -0.5874 -0.6554 -0.2588
  161DOPC  H13R19454   3.769   1.572  13.259  1.7842 -0.1539  1.2084
  161DOPC  H13S19455   3.877   1.692  13.167 -0.3136  1.8994  1.4678
  161DOPC  C21419456   3.670   1.679  13.092 -0.4763 -0.3978 -0.5956
  161DOPC  H14R19457   3.568   1.666  13.134 -0.0280  0.8264  0.9951
  161DOPC  H14S19458   3.689   1.598  13.018  0.1207 -0.0871 -0.7882
  161DOPC  C21519459   3.671   1.809  13.021 -0.1656  0.5415 -0.1281
  161DOPC  H15R19460   3.679   1.892  13.094 -1.3562  0.1203  0.5124
  161DOPC  H15S19461   3.581   1.813  12.956  0.8447 -2.5523 -1.9215
  161DOPC  C21619462   3.793   1.830  12.928 -0.0292  0.0654 -0.0624
  161DOPC  H16R19463   3.785   1.753  12.848 -2.2880 -0.3613  0.5220
  161DOPC  H16S19464   3.883   1.816  12.992 -1.0371  3.5052  2.4219
  161DOPC  C21719465   3.807   1.963  12.852  0.1883 -0.6846 -0.0427
  161DOPC  H17R19466   3.807   2.051  12.920 -1.0468 -0.6642 -0.0384
  161DOPC  H17S19467   3.716   1.982  12.791 -0.7931  0.3420  1.6703
  161DOPC  C21819468   3.924   1.973  12.762 -0.3276  0.4285  0.1593
  161DOPC  H18R19469   3.927   2.075  12.717 -0.6434  1.0229  1.4415
  161DOPC  H18S19470   3.922   1.899  12.679  0.4937 -0.1884  0.6760
  161DOPC  H18T19471   4.014   1.953  12.824 -1.0878  1.2483  1.5960
  161DOPC   C3319472   3.118   1.438  13.876 -0.5831  0.1072  0.1329
  161DOPC   H3X19473   3.052   1.515  13.923 -0.4163 -0.7281  1.8118
  161DOPC   H3Y19474   3.096   1.337  13.917 -1.2772  0.5387  0.8422
  161DOPC   C3419475   3.092   1.429  13.724  0.0014  1.1052  0.2845
  161DOPC   H4X19476   3.160   1.353  13.680 -1.2907 -1.8867  3.0106
  161DOPC   H4Y19477   3.109   1.527  13.674  1.9028  0.1218 -1.1526
  161DOPC   C3519478   2.949   1.379  13.705  0.7142 -0.4749  0.3402
  161DOPC   H5X19479   2.875   1.444  13.757  1.7009  0.4783  0.6000
  161DOPC   H5Y19480   2.945   1.277  13.750  2.1645 -1.0583 -0.7642
  161DOPC   C3619481   2.919   1.364  13.556 -0.7858  0.4495 -0.4798
  161DOPC   H6X19482   3.010   1.313  13.517 -1.1686  0.4466 -1.3946
  161DOPC   H6Y19483   2.839   1.289  13.540  1.1628 -1.4115 -2.1268
  161DOPC   C3719484   2.902   1.498  13.482  0.7586  0.8857 -0.1150
  161DOPC   H7X19485   2.986   1.567  13.504  0.2330  0.8101  2.4925
  161DOPC   H7Y19486   2.909   1.477  13.373 -0.5057 -1.1914  0.1605
  161DOPC   C3819487   2.762   1.559  13.502 -0.1141  0.8013  0.7926
  161DOPC   H8X19488   2.777   1.656  13.451 -0.8698  0.7464  0.4555
  161DOPC   H8Y19489   2.753   1.567  13.613  1.9977  1.6783  0.9610
  161DOPC   C3919490   2.667   1.473  13.429  0.2245 -0.2921  0.2863
  161DOPC   H9X19491   2.630   1.391  13.493 -2.2632  0.4596 -0.0468
  161DOPC  C31019492   2.645   1.472  13.295 -0.2572 -0.2939  0.4148
  161DOPC  H10X19493   2.578   1.395  13.256  1.8095 -1.8892 -0.1866
  161DOPC  C31119494   2.698   1.578  13.194  0.1361  0.3060 -0.1857
  161DOPC  H11X19495   2.778   1.638  13.243 -0.9231  2.0074 -0.4378
  161DOPC  H11Y19496   2.619   1.655  13.183  0.5305  0.5330 -1.5939
  161DOPC  C31219497   2.745   1.513  13.068 -0.2051  0.3632  0.3464
  161DOPC  H12X19498   2.665   1.453  13.020 -0.9044  0.3590  1.4671
  161DOPC  H12Y19499   2.832   1.448  13.094 -0.8931 -0.7967 -0.1764
  161DOPC  C31319500   2.778   1.620  12.968 -0.5874 -0.6893 -0.0004
  161DOPC  H13X19501   2.703   1.701  12.967 -1.4046 -1.4224  0.5903
  161DOPC  H13Y19502   2.873   1.668  12.999 -1.4513  2.0033 -1.2505
  161DOPC  C31419503   2.804   1.563  12.828 -0.2327 -0.1008  0.3859
  161DOPC  H14X19504   2.885   1.624  12.784 -1.4334 -0.0523 -1.8981
  161DOPC  H14Y19505   2.842   1.459  12.831  1.2138  0.4180  1.1227
  161DOPC  C31519506   2.686   1.557  12.731  0.6661  0.2095 -0.5982
  161DOPC  H15X19507   2.606   1.513  12.794  0.9180 -0.2848 -0.6202
  161DOPC  H15Y19508   2.701   1.491  12.642 -0.1909  0.3100 -0.8255
  161DOPC  C31619509   2.645   1.696  12.693  0.5471 -0.0998  0.3862
  161DOPC  H16X19510   2.612   1.761  12.776  2.9350 -0.5258  1.7655
  161DOPC  H16Y19511   2.741   1.733  12.649  1.1450 -1.0250  0.8732
  161DOPC  C31719512   2.528   1.714  12.589 -0.1676 -0.2924 -0.2197
  161DOPC  H17X19513   2.565   1.683  12.489  1.6727 -2.9115  1.1417
  161DOPC  H17Y19514   2.452   1.643  12.627 -1.8613  1.2965 -0.4991
  161DOPC  C31819515   2.462   1.848  12.570  0.5826 -0.1158 -0.5630
  161DOPC  H18X19516   2.457   1.903  12.666  1.0014 -1.2125  0.1132
  161DOPC  H18Y19517   2.539   1.896  12.506  1.8922  0.2732  1.2237
  161DOPC  H18Z19518   2.363   1.830  12.523  0.3532 -1.0556  0.2258
  162DOPC     N19519   1.883   5.374  14.186 -1.1139  0.0917 -0.1458
  162DOPC   C1219520   1.844   5.401  14.044  0.4247  0.2269  0.2949
  162DOPC  H12A19521   1.739   5.423  14.041  0.9329  3.0081 -0.1917
  162DOPC  H12B19522   1.866   5.312  13.987 -0.0432 -0.4600  1.1618
  162DOPC   C1319523   1.889   5.498  14.268  0.2134  0.2245 -0.8478
  162DOPC  H13A19524   1.947   5.581  14.231  2.1141 -0.5305  0.2891
  162DOPC  H13B19525   1.788   5.536  14.278 -0.9679 -1.8306 -3.7212
  162DOPC  H13C19526   1.928   5.475  14.366  0.8098  0.4178 -1.0368
  162DOPC   C1419527   2.023   5.311  14.188  0.2636  0.4889 -0.3622
  162DOPC  H14A19528   2.023   5.219  14.132  1.5447  0.2270  0.0206
  162DOPC  H14B19529   2.103   5.372  14.146  0.6713  1.8247  2.1536
  162DOPC  H14C19530   2.058   5.282  14.286 -0.7185  0.7264  0.0671
  162DOPC   C1519531   1.793   5.274  14.249  1.0399  0.1323  0.3540
  162DOPC  H15A19532   1.693   5.314  14.242  0.9634 -0.2044 -0.5695
  162DOPC  H15B19533   1.819   5.252  14.352 -0.1009  2.0454  1.0989
  162DOPC  H15C19534   1.798   5.182  14.192 -0.0248  0.7295 -0.7312
  162DOPC   C1119535   1.904   5.532  13.986  0.1223  0.2434  0.5685
  162DOPC  H11A19536   1.863   5.547  13.884  3.5694 -0.0149 -0.9980
  162DOPC  H11B19537   1.867   5.618  14.046 -0.8882  0.4171 -0.2673
  162DOPC     P19538   2.148   5.642  14.030  0.1723  0.1244  0.0180
  162DOPC   O1319539   2.263   5.565  14.087  0.5654 -0.2590  0.8533
  162DOPC   O1419540   2.079   5.739  14.108  0.3733  0.1268  0.1009
  162DOPC   O1219541   2.048   5.529  13.976 -0.2540  0.1857  0.0002
  162DOPC   O1119542   2.198   5.722  13.903 -0.5250  0.0369  0.0500
  162DOPC    C119543   2.209   5.658  13.775  0.2746  0.1099 -0.2535
  162DOPC    HA19544   2.242   5.552  13.774  0.4502  0.1606 -1.1557
  162DOPC    HB19545   2.285   5.719  13.722  1.6800 -0.0042  1.5711
  162DOPC    C219546   2.078   5.690  13.693  0.1802  0.1992  0.8667
  162DOPC    HS19547   2.017   5.600  13.715  2.5485 -1.4324  1.2472
  162DOPC   O2119548   2.116   5.677  13.555  1.0897 -0.3878 -0.1395
  162DOPC   C2119549   2.125   5.568  13.496  0.1676  0.4270 -0.3333
  162DOPC   O2219550   2.099   5.454  13.536  0.8902 -0.1372 -0.2001
  162DOPC   C2219551   2.176   5.604  13.357  0.8285 -0.0910 -0.4859
  162DOPC   H2R19552   2.275   5.648  13.379  0.2537  1.4738 -0.8357
  162DOPC   H2S19553   2.112   5.690  13.324  1.2645  0.7182  0.7209
  162DOPC    C319554   2.011   5.826  13.723 -0.0445  0.4148  0.0156
  162DOPC    HX19555   2.083   5.906  13.696  2.0838 -1.5228 -0.3524
  162DOPC    HY19556   1.989   5.835  13.832 -0.0783 -0.3178  0.0728
  162DOPC   O3119557   1.896   5.841  13.645  0.3361 -0.2836  0.2700
  162DOPC   C3119558   1.787   5.792  13.702  1.0168  0.3784  0.0796
  162DOPC   O3219559   1.772   5.767  13.816 -0.1718  0.0089 -0.2957
  162DOPC   C3219560   1.671   5.777  13.594 -0.1054 -0.5835  0.0091
  162DOPC   H2X19561   1.591   5.710  13.631 -0.9160 -1.6420 -3.2892
  162DOPC   H2Y19562   1.630   5.880  13.582  1.4442  0.0502 -0.1082
  162DOPC   C2319563   2.176   5.490  13.255 -0.2378 -0.1155 -0.1260
  162DOPC   H3R19564   2.082   5.434  13.272 -0.5154  1.0192  2.7580
  162DOPC   H3S19565   2.268   5.428  13.265  0.9293  1.6339  0.4402
  162DOPC   C2419566   2.190   5.551  13.116  0.4828  0.0268 -0.0844
  162DOPC   H4R19567   2.266   5.631  13.106  0.9854 -0.7341 -3.6361
  162DOPC   H4S19568   2.090   5.592  13.089 -1.3283 -2.9374  1.5935
  162DOPC   C2519569   2.220   5.450  13.005 -1.2039  0.1906  0.3691
  162DOPC   H5R19570   2.144   5.369  13.009 -1.8815  0.8453  1.2810
  162DOPC   H5S19571   2.315   5.395  13.022 -0.5665  1.3911  0.8060
  162DOPC   C2619572   2.227   5.517  12.864  0.7265  0.3453 -0.2473
  162DOPC   H6R19573   2.315   5.582  12.849  0.7232  0.0808 -1.5902
  162DOPC   H6S19574   2.130   5.569  12.846 -0.7260 -2.0534  0.1467
  162DOPC   C2719575   2.236   5.407  12.762  0.2596  0.1833  0.1652
  162DOPC   H7R19576   2.137   5.356  12.771 -1.4729  3.2629 -0.2648
  162DOPC   H7S19577   2.314   5.334  12.794  0.2249 -0.5148 -1.2503
  162DOPC   C2819578   2.274   5.461  12.625 -0.3941  0.1883  0.2242
  162DOPC   H8R19579   2.364   5.527  12.629  0.5288 -0.7063 -2.9841
  162DOPC   H8S19580   2.193   5.523  12.581 -0.7180 -0.4185 -0.0416
  162DOPC   C2919581   2.294   5.349  12.528 -0.0714  0.3889  0.5402
  162DOPC   H9R19582   2.342   5.264  12.577 -2.7531 -3.7960 -3.3017
  162DOPC  C21019583   2.282   5.345  12.394  0.3810 -0.0896 -0.1372
  162DOPC  H10R19584   2.288   5.253  12.333  0.5859  0.7745 -1.4610
  162DOPC  C21119585   2.239   5.474  12.317 -0.2258  0.3104  0.3523
  162DOPC  H11R19586   2.275   5.562  12.375  2.2064 -0.1550 -0.3775
  162DOPC  H11S19587   2.129   5.487  12.310  0.0093  2.0020 -0.6366
  162DOPC  C21219588   2.305   5.465  12.180 -0.3004 -0.0018  0.6386
  162DOPC  H12R19589   2.254   5.375  12.140 -0.2455  0.7580 -1.2497
  162DOPC  H12S19590   2.415   5.446  12.182 -0.7393 -2.9283  2.1337
  162DOPC  C21319591   2.280   5.584  12.088 -0.5283 -0.6295  0.0205
  162DOPC  H13R19592   2.322   5.677  12.132  1.1098 -1.0125 -0.6636
  162DOPC  H13S19593   2.169   5.589  12.093 -0.5201 -1.1794  1.1731
  162DOPC  C21419594   2.324   5.559  11.936 -0.1886  0.6156 -0.5491
  162DOPC  H14R19595   2.291   5.459  11.900 -0.1013  0.4048 -0.0449
  162DOPC  H14S19596   2.434   5.564  11.931 -0.2602  1.9522 -1.1294
  162DOPC  C21519597   2.281   5.670  11.835 -0.6297 -0.8121  0.0386
  162DOPC  H15R19598   2.172   5.670  11.815 -0.1884  2.0689 -3.3615
  162DOPC  H15S19599   2.331   5.645  11.740  1.8188 -2.8166  1.7204
  162DOPC  C21619600   2.328   5.811  11.871 -0.1507 -0.5255 -0.6068
  162DOPC  H16R19601   2.438   5.806  11.873 -0.2018 -1.7986  1.4499
  162DOPC  H16S19602   2.287   5.825  11.973 -1.8987  1.5045 -1.5037
  162DOPC  C21719603   2.289   5.925  11.778 -0.1603 -0.0480 -0.3980
  162DOPC  H17R19604   2.181   5.928  11.753  0.0059 -0.7272 -1.2298
  162DOPC  H17S19605   2.328   5.899  11.678  1.3099  0.0613  0.1207
  162DOPC  C21819606   2.326   6.067  11.826  0.1638  0.1796 -0.0571
  162DOPC  H18R19607   2.269   6.135  11.760  1.5822  2.8667  1.3069
  162DOPC  H18S19608   2.434   6.093  11.818  0.1591  1.0344  1.9861
  162DOPC  H18T19609   2.290   6.074  11.931 -0.7062  1.2178 -0.4122
  162DOPC   C3319610   1.722   5.723  13.461  0.2562 -0.7123  0.2272
  162DOPC   H3X19611   1.811   5.781  13.428 -0.6732  1.5145  1.4225
  162DOPC   H3Y19612   1.642   5.738  13.386 -0.7144 -0.2573  1.3365
  162DOPC   C3419613   1.748   5.578  13.470 -0.0234 -0.0542  0.5651
  162DOPC   H4X19614   1.663   5.518  13.510 -1.1869  2.2027  1.6768
  162DOPC   H4Y19615   1.826   5.565  13.548  1.6092  2.0796 -0.6091
  162DOPC   C3519616   1.789   5.503  13.338  0.6177  0.4691  0.6367
  162DOPC   H5X19617   1.877   5.554  13.292  0.4644  0.2959  0.1501
  162DOPC   H5Y19618   1.700   5.506  13.271  1.3734 -1.6771 -0.5620
  162DOPC   C3619619   1.808   5.353  13.366 -0.0012  1.1322 -0.6717
  162DOPC   H6X19620   1.889   5.333  13.440 -0.8705  0.0817  0.0188
  162DOPC   H6Y19621   1.717   5.320  13.421  0.6180  0.9742  0.2912
  162DOPC   C3719622   1.834   5.266  13.242  0.1728 -1.0121 -0.2224
  162DOPC   H7X19623   1.945   5.259  13.239  0.2855  0.4817 -0.4127
  162DOPC   H7Y19624   1.797   5.162  13.255 -1.4552 -0.2841  1.3424
  162DOPC   C3819625   1.777   5.310  13.109 -0.2658 -0.4794  0.0966
  162DOPC   H8X19626   1.796   5.418  13.091  1.5214 -0.8569 -0.4794
  162DOPC   H8Y19627   1.666   5.305  13.116 -0.1395 -2.2363  1.8966
  162DOPC   C3919628   1.837   5.225  12.999 -0.1559 -0.7121  0.2911
  162DOPC   H9X19629   1.944   5.244  12.982  0.1251 -1.7326  0.8495
  162DOPC  C31019630   1.769   5.128  12.931 -0.5335 -0.2898  0.0344
  162DOPC  H10X19631   1.825   5.084  12.847 -0.3041  0.7302 -0.3569
  162DOPC  C31119632   1.627   5.080  12.944  0.5439  0.4460  0.5518
  162DOPC  H11X19633   1.575   5.129  13.029  2.6366 -0.2331  2.3234
  162DOPC  H11Y19634   1.621   4.972  12.968  0.4552  0.7235  1.8588
  162DOPC  C31219635   1.542   5.105  12.820  0.2650  0.2225  1.4251
  162DOPC  H12X19636   1.561   5.203  12.771 -2.0521 -0.2524 -0.6566
  162DOPC  H12Y19637   1.434   5.092  12.839 -0.0867 -1.6979 -1.2923
  162DOPC  C31319638   1.570   5.000  12.706  0.0501 -0.2326 -0.1987
  162DOPC  H13X19639   1.679   4.994  12.690 -0.0201 -1.0024 -0.4016
  162DOPC  H13Y19640   1.538   4.906  12.756  0.2805  0.7911  1.9954
  162DOPC  C31419641   1.499   5.022  12.571 -0.3238 -0.1136  0.1161
  162DOPC  H14X19642   1.393   5.048  12.592  0.3163  0.9460  2.3574
  162DOPC  H14Y19643   1.556   5.107  12.528  1.5613 -1.0632  0.6507
  162DOPC  C31519644   1.520   4.900  12.488  0.1553  0.1572 -0.3101
  162DOPC  H15X19645   1.436   4.828  12.498  1.1508 -1.1070 -0.7293
  162DOPC  H15Y19646   1.605   4.844  12.533 -1.1689 -1.2194  0.5987
  162DOPC  C31619647   1.541   4.927  12.341 -0.3226  0.5833  0.0092
  162DOPC  H16X19648   1.609   5.011  12.318  1.0116 -0.3890  0.3037
  162DOPC  H16Y19649   1.587   4.832  12.305  0.3711  0.4183  1.2703
  162DOPC  C31719650   1.410   4.928  12.262  0.2747 -0.6323 -0.5234
  162DOPC  H17X19651   1.361   4.835  12.296  0.4795  0.0728  1.9349
  162DOPC  H17Y19652   1.340   5.011  12.285  2.2307  1.7656 -2.5757
  162DOPC  C31819653   1.435   4.919  12.113 -0.1844  0.1961 -0.1613
  162DOPC  H18X19654   1.494   5.005  12.074  1.8922 -2.0521 -2.3686
  162DOPC  H18Y19655   1.488   4.825  12.084 -0.4767  0.5894 -2.0903
  162DOPC  H18Z19656   1.331   4.919  12.075 -0.4182  0.4600  0.4611
  163DOPC     N19657   0.992   2.872  15.533  0.3306  0.3363 -0.4011
  163DOPC   C1219658   0.903   2.826  15.423  0.6002 -0.2723  0.2394
  163DOPC  H12A19659   0.850   2.739  15.460  0.4918 -1.1966 -1.9126
  163DOPC  H12B19660   0.964   2.788  15.342 -0.0181 -0.2302 -0.2555
  163DOPC   C1319661   1.073   2.759  15.591  0.1848 -0.0657  0.3397
  163DOPC  H13A19662   1.009   2.679  15.626  0.0481  0.4814  1.3774
  163DOPC  H13B19663   1.137   2.716  15.516 -0.3223  1.8466 -1.2647
  163DOPC  H13C19664   1.143   2.789  15.668  0.6201 -1.5286  0.5563
  163DOPC   C1419665   0.900   2.938  15.638 -0.2267 -0.3063  0.3002
  163DOPC  H14A19666   0.858   3.028  15.594 -0.2949 -1.0257 -1.1698
  163DOPC  H14B19667   0.809   2.880  15.647  1.1717 -2.7293 -0.3454
  163DOPC  H14C19668   0.938   2.951  15.738 -0.1528  1.5368  0.0725
  163DOPC   C1519669   1.082   2.976  15.477  0.0382  0.4586  0.6883
  163DOPC  H15A19670   1.140   2.936  15.396 -3.9100 -0.9488 -1.7208
  163DOPC  H15B19671   1.147   3.026  15.548  0.8613  1.8019 -0.9452
  163DOPC  H15C19672   1.021   3.047  15.423  1.7286  1.1606 -0.3945
  163DOPC   C1119673   0.798   2.927  15.371 -0.4098 -0.3026 -0.3840
  163DOPC  H11A19674   0.752   2.888  15.277 -2.3405 -1.8559  1.1254
  163DOPC  H11B19675   0.718   2.941  15.446  0.0792  0.2972  0.0338
  163DOPC     P19676   0.772   3.173  15.275  0.3074  0.1182 -0.2310
  163DOPC   O1319677   0.864   3.287  15.270 -0.0864  0.4537  0.1065
  163DOPC   O1419678   0.645   3.193  15.354 -0.1232  0.2984 -0.3613
  163DOPC   O1219679   0.853   3.053  15.335  0.1111  0.0267  0.0047
  163DOPC   O1119680   0.739   3.124  15.129  0.1041 -0.0374  0.4046
  163DOPC    C119681   0.849   3.088  15.045  0.2443 -1.1383 -0.0899
  163DOPC    HA19682   0.877   2.981  15.062 -1.0722 -1.4569  0.1918
  163DOPC    HB19683   0.938   3.152  15.059 -0.6019 -0.0118  0.2369
  163DOPC    C219684   0.802   3.091  14.897  0.3155 -0.2776 -0.0508
  163DOPC    HS19685   0.888   3.062  14.834  0.7362 -1.0313  0.8335
  163DOPC   O2119686   0.744   3.218  14.862 -0.3527 -0.0681  0.2511
  163DOPC   C2119687   0.831   3.317  14.838  1.1208  0.6547 -0.3803
  163DOPC   O2219688   0.952   3.297  14.856  0.5327  0.1976 -0.6546
  163DOPC   C2219689   0.765   3.441  14.782  0.7572 -0.3041  0.2209
  163DOPC   H2R19690   0.774   3.528  14.850 -0.7389  0.1363 -0.1023
  163DOPC   H2S19691   0.655   3.427  14.771  0.6633 -0.4714  1.2859
  163DOPC    C319692   0.688   2.971  14.888 -0.0196  0.3384  0.6144
  163DOPC    HX19693   0.594   3.024  14.914  0.5844  2.0906 -0.5446
  163DOPC    HY19694   0.713   2.897  14.967 -0.1632  1.0785  1.3695
  163DOPC   O3119695   0.679   2.914  14.753 -0.8257 -0.2191 -0.0715
  163DOPC   C3119696   0.787   2.835  14.713 -0.6058 -1.0747  0.5375
  163DOPC   O3219697   0.879   2.810  14.790  0.5773  0.0010  0.3773
  163DOPC   C3219698   0.765   2.788  14.574  0.1398 -0.0526  0.7417
  163DOPC   H2X19699   0.744   2.679  14.579 -1.6179  0.3041  1.9359
  163DOPC   H2Y19700   0.676   2.837  14.530  0.4026 -0.7422 -0.6306
  163DOPC   C2319701   0.817   3.480  14.644  0.2206  0.6222  0.6070
  163DOPC   H3R19702   0.927   3.486  14.633  0.0928  1.3514 -0.4259
  163DOPC   H3S19703   0.768   3.575  14.614 -1.4689 -0.7609 -1.2040
  163DOPC   C2419704   0.766   3.376  14.540 -0.0347 -0.0266  0.2880
  163DOPC   H4R19705   0.655   3.369  14.538 -0.0235  0.0130 -0.6724
  163DOPC   H4S19706   0.809   3.279  14.573  0.4121  0.3304  0.7810
  163DOPC   C2519707   0.809   3.404  14.393 -0.0579 -0.4434  0.2503
  163DOPC   H5R19708   0.782   3.508  14.364  2.1616  0.1639  0.1829
  163DOPC   H5S19709   0.748   3.337  14.329  0.4759  1.5939 -2.5616
  163DOPC   C2619710   0.954   3.369  14.364 -0.1334  0.7565  0.1936
  163DOPC   H6R19711   0.973   3.259  14.371 -0.9260  0.6959  1.8278
  163DOPC   H6S19712   1.016   3.419  14.441 -0.2824  1.3634 -0.0812
  163DOPC   C2719713   1.010   3.415  14.226 -0.3747 -0.7037 -0.0939
  163DOPC   H7R19714   1.121   3.422  14.226 -0.4792  2.7986  0.8420
  163DOPC   H7S19715   0.973   3.520  14.224  0.5021 -0.3916 -0.7074
  163DOPC   C2819716   0.947   3.336  14.107  0.4474 -0.3938 -0.4429
  163DOPC   H8R19717   0.839   3.360  14.103  0.0259 -1.8002  1.3356
  163DOPC   H8S19718   0.963   3.228  14.128  0.3129 -0.2464  0.4363
  163DOPC   C2919719   1.006   3.387  13.976  0.0609  0.2756 -0.5414
  163DOPC   H9R19720   1.019   3.496  13.981 -1.3011  0.4400  3.4147
  163DOPC  C21019721   1.059   3.313  13.877  0.8075  1.0838  0.1418
  163DOPC  H10R19722   1.104   3.348  13.783  0.6475 -0.5084 -0.5553
  163DOPC  C21119723   1.049   3.160  13.880  0.0304 -0.4142 -0.1769
  163DOPC  H11R19724   0.957   3.129  13.827 -0.0480 -1.6988  0.6644
  163DOPC  H11S19725   1.057   3.112  13.980  0.3889  0.0931  0.0433
  163DOPC  C21219726   1.166   3.092  13.804 -0.5989  0.0373  0.0739
  163DOPC  H12R19727   1.174   3.145  13.707 -1.3650  2.2162  1.1507
  163DOPC  H12S19728   1.152   2.982  13.790 -0.9323  0.2753 -1.6753
  163DOPC  C21319729   1.299   3.120  13.875 -0.2912  0.6135 -0.1038
  163DOPC  H13R19730   1.288   3.087  13.981 -1.3074  1.5072  0.0826
  163DOPC  H13S19731   1.309   3.229  13.892  0.5612  0.2977  1.6492
  163DOPC  C21419732   1.420   3.053  13.799  0.7506 -0.1352  0.1130
  163DOPC  H14R19733   1.411   2.942  13.806  0.0346 -0.0557  0.5246
  163DOPC  H14S19734   1.515   3.085  13.847  0.9835  0.4057 -0.6864
  163DOPC  C21519735   1.454   3.106  13.656  0.0902 -0.3253 -0.3900
  163DOPC  H15R19736   1.364   3.112  13.591  1.3142  2.4840 -2.0409
  163DOPC  H15S19737   1.530   3.034  13.620  0.5079 -0.5218  0.8375
  163DOPC  C21619738   1.519   3.253  13.649 -0.0314  0.9112  0.6807
  163DOPC  H16R19739   1.628   3.252  13.669 -0.0971  0.9078  1.0483
  163DOPC  H16S19740   1.477   3.304  13.738 -1.0777 -0.7782  1.2107
  163DOPC  C21719741   1.475   3.319  13.519 -0.0675 -0.6818 -0.5655
  163DOPC  H17R19742   1.369   3.350  13.533  0.2466 -0.3940  1.5149
  163DOPC  H17S19743   1.466   3.252  13.431 -0.1854  0.9095 -1.8043
  163DOPC  C21819744   1.572   3.426  13.477 -0.4326 -0.0831  0.4149
  163DOPC  H18R19745   1.559   3.472  13.377 -1.0514 -0.8287  0.1391
  163DOPC  H18S19746   1.677   3.390  13.486  0.6047  2.1657 -1.6291
  163DOPC  H18T19747   1.559   3.517  13.539  1.8861  1.2152 -0.8854
  163DOPC   C3319748   0.890   2.819  14.483  0.0215  0.2118  0.0376
  163DOPC   H3X19749   0.981   2.806  14.546  0.4853 -1.0782 -0.8421
  163DOPC   H3Y19750   0.887   2.928  14.464 -0.2561  0.0419 -0.9384
  163DOPC   C3419751   0.900   2.741  14.360 -0.4751  0.2510  0.2601
  163DOPC   H4X19752   0.792   2.734  14.334 -0.3077  2.0412 -1.1224
  163DOPC   H4Y19753   0.934   2.638  14.386  2.0388  0.7650 -0.6662
  163DOPC   C3519754   0.972   2.807  14.242  0.0597  0.6095 -0.2081
  163DOPC   H5X19755   1.074   2.842  14.271  0.0846 -0.1093  0.6040
  163DOPC   H5Y19756   0.903   2.892  14.226 -0.8691  0.1998  1.4096
  163DOPC   C3619757   0.992   2.724  14.112 -0.2573  0.8458  0.1539
  163DOPC   H6X19758   1.040   2.633  14.153  1.0656  1.9754  1.1849
  163DOPC   H6Y19759   0.892   2.703  14.069  0.1799 -2.3771  0.4627
  163DOPC   C3719760   1.091   2.797  14.022  0.2971 -0.5052  0.1313
  163DOPC   H7X19761   1.046   2.894  13.992  2.4602  0.1637 -1.1904
  163DOPC   H7Y19762   1.190   2.822  14.067  1.2586 -0.1030 -2.0978
  163DOPC   C3819763   1.117   2.704  13.901  0.0996  0.3575  0.2893
  163DOPC   H8X19764   1.136   2.599  13.932 -1.3624 -0.2259 -0.6692
  163DOPC   H8Y19765   1.206   2.751  13.856  0.4643  1.3261  1.9516
  163DOPC   C3919766   0.992   2.693  13.810 -1.0405  0.2057  0.2386
  163DOPC   H9X19767   0.898   2.715  13.864 -0.6576  3.4173 -0.2094
  163DOPC  C31019768   0.984   2.683  13.674 -0.3977 -0.4248 -0.3335
  163DOPC  H10X19769   0.883   2.680  13.629 -1.4091  0.8967  1.6652
  163DOPC  C31119770   1.106   2.679  13.585  0.4596  0.5274 -0.0212
  163DOPC  H11X19771   1.115   2.575  13.548  1.1639  0.8980 -0.9280
  163DOPC  H11Y19772   1.200   2.703  13.639  0.9178  2.9518 -1.7312
  163DOPC  C31219773   1.110   2.797  13.479 -0.0182  0.3332  0.5051
  163DOPC  H12X19774   1.093   2.894  13.531  1.6128 -0.7418  3.2799
  163DOPC  H12Y19775   1.019   2.781  13.418 -0.0683 -0.5897  0.8110
  163DOPC  C31319776   1.236   2.802  13.394 -1.4625 -0.0542 -0.2232
  163DOPC  H13X19777   1.325   2.829  13.455 -2.2226 -0.1436  0.9818
  163DOPC  H13Y19778   1.263   2.707  13.344  1.9623 -0.0007  1.2686
  163DOPC  C31419779   1.232   2.900  13.276  0.3050 -0.0225 -0.4850
  163DOPC  H14X19780   1.138   2.877  13.220  0.0235 -2.4195  0.8385
  163DOPC  H14Y19781   1.225   3.004  13.316  0.1351  0.1288 -0.9002
  163DOPC  C31519782   1.343   2.874  13.181 -0.6201  0.0765  1.0043
  163DOPC  H15X19783   1.332   2.771  13.141 -3.9560 -0.1242  2.0805
  163DOPC  H15Y19784   1.448   2.893  13.212 -0.3485 -0.7015  0.5868
  163DOPC  C31619785   1.330   2.965  13.056 -0.2505 -0.4768  0.6340
  163DOPC  H16X19786   1.225   2.979  13.020  0.1866  0.5527 -0.2869
  163DOPC  H16Y19787   1.367   3.065  13.084 -2.6960  0.4401  0.8514
  163DOPC  C31719788   1.404   2.910  12.933 -0.7109 -0.5638 -0.4107
  163DOPC  H17X19789   1.506   2.891  12.971 -0.0125 -0.2752 -2.0790
  163DOPC  H17Y19790   1.366   2.809  12.903 -0.9101 -0.6686  0.1657
  163DOPC  C31819791   1.404   3.016  12.829 -0.1119  0.6286 -0.2407
  163DOPC  H18X19792   1.434   3.116  12.866 -2.5067  0.9317  1.1409
  163DOPC  H18Y19793   1.466   2.978  12.746  2.5001 -0.4185  2.0226
  163DOPC  H18Z19794   1.297   3.028  12.801 -0.3499 -0.8853 -0.0826
  164DOPC     N19795   1.838   2.088  14.815 -0.5268 -0.6147  0.1276
  164DOPC   C1219796   1.813   2.008  14.688 -0.0188 -0.0425 -0.4786
  164DOPC  H12A19797   1.712   2.029  14.656  0.3190  1.2562 -0.7625
  164DOPC  H12B19798   1.807   1.905  14.718 -2.6710  0.4281  0.9357
  164DOPC   C1319799   1.719   2.070  14.908 -0.4612 -0.5924  0.1161
  164DOPC  H13A19800   1.725   2.146  14.985  0.7450 -0.7474  0.1830
  164DOPC  H13B19801   1.630   2.091  14.850  0.6950  2.6786 -0.6788
  164DOPC  H13C19802   1.716   1.976  14.961  0.5310 -0.4957  0.3653
  164DOPC   C1419803   1.846   2.239  14.790 -0.6289  0.6586 -0.3796
  164DOPC  H14A19804   1.757   2.267  14.736 -1.9465 -1.1693  0.7184
  164DOPC  H14B19805   1.843   2.295  14.882  0.7291  1.6908 -0.9271
  164DOPC  H14C19806   1.939   2.249  14.735 -0.7387  1.5019 -0.4184
  164DOPC   C1519807   1.966   2.059  14.880  0.1189  0.7262 -0.7745
  164DOPC  H15A19808   1.974   1.956  14.910  0.9719  1.0751  0.2834
  164DOPC  H15B19809   1.974   2.115  14.972 -1.4140  1.2205 -0.9151
  164DOPC  H15C19810   2.048   2.063  14.810 -1.4083  0.6248 -2.6358
  164DOPC   C1119811   1.906   2.019  14.569 -0.0451 -0.0219 -0.3241
  164DOPC  H11A19812   1.879   1.960  14.479 -0.5216 -1.6552  0.8407
  164DOPC  H11B19813   1.874   2.120  14.537 -0.1912  0.2338  0.5947
  164DOPC     P19814   2.122   1.880  14.594  0.1073 -0.1800 -0.0851
  164DOPC   O1319815   2.040   1.771  14.667  0.1326 -0.4462  0.0184
  164DOPC   O1419816   2.258   1.895  14.650 -0.2579  0.0325 -0.2154
  164DOPC   O1219817   2.047   2.015  14.595 -0.2567 -0.8202 -0.1906
  164DOPC   O1119818   2.138   1.839  14.445 -0.0615  0.0114  0.2237
  164DOPC    C119819   2.142   1.937  14.331  0.5922 -0.2315  0.1988
  164DOPC    HA19820   2.087   2.032  14.345 -0.2786 -0.5576 -0.8721
  164DOPC    HB19821   2.101   1.891  14.238  2.3388 -1.1008 -0.1970
  164DOPC    C219822   2.289   1.965  14.295 -0.2266 -0.4965 -0.6399
  164DOPC    HS19823   2.330   2.022  14.381 -0.5470  0.5513 -1.1679
  164DOPC   O2119824   2.294   2.041  14.176 -0.2833 -0.0153  0.6726
  164DOPC   C2119825   2.265   2.173  14.186  0.7060 -0.2793 -0.3521
  164DOPC   O2219826   2.241   2.232  14.290 -0.1202 -0.3180 -0.2402
  164DOPC   C2219827   2.263   2.237  14.050 -0.3870  0.2927 -0.2223
  164DOPC   H2R19828   2.362   2.211  14.005  0.2254  0.5477  0.9413
  164DOPC   H2S19829   2.254   2.347  14.061 -3.8839  0.3295 -2.2419
  164DOPC    C319830   2.379   1.837  14.288 -0.4960 -1.3570  0.3416
  164DOPC    HX19831   2.332   1.774  14.210 -0.3152 -0.8122 -0.2246
  164DOPC    HY19832   2.373   1.774  14.379  1.0988 -2.5353 -0.3274
  164DOPC   O3119833   2.509   1.870  14.242 -0.2444  1.0736  0.4582
  164DOPC   C3119834   2.589   1.936  14.322  0.5813 -0.2917  0.4712
  164DOPC   O3219835   2.560   1.982  14.433 -0.0091  0.5399 -0.9373
  164DOPC   C3219836   2.728   1.953  14.257  0.4135  0.5118  0.0698
  164DOPC   H2X19837   2.799   1.924  14.338  1.8350 -0.2468 -1.3937
  164DOPC   H2Y19838   2.737   1.876  14.178 -1.3848  0.6379 -0.3016
  164DOPC   C2319839   2.161   2.174  13.953  0.5423 -0.4451  0.4014
  164DOPC   H3R19840   2.054   2.191  13.981 -0.2614 -4.2189  0.2117
  164DOPC   H3S19841   2.180   2.065  13.955 -0.0989 -0.5578  0.6396
  164DOPC   C2419842   2.172   2.217  13.807 -0.2678  0.4044  0.2252
  164DOPC   H4R19843   2.153   2.121  13.754  0.2882 -0.7917  2.1006
  164DOPC   H4S19844   2.274   2.245  13.772 -0.1316 -0.9460 -0.5207
  164DOPC   C2519845   2.067   2.328  13.773  0.0681  0.0090  0.4036
  164DOPC   H5R19846   2.077   2.421  13.834 -0.9865  0.9215 -0.7387
  164DOPC   H5S19847   1.964   2.302  13.804 -0.5394  1.7835  0.0251
  164DOPC   C2619848   2.056   2.378  13.624 -0.8212 -0.1220 -0.3533
  164DOPC   H6R19849   2.155   2.411  13.587 -0.9530  1.2084  0.4287
  164DOPC   H6S19850   1.988   2.465  13.630 -2.0524 -1.1220  1.7590
  164DOPC   C2719851   1.997   2.267  13.538 -0.1713 -0.1578 -0.2680
  164DOPC   H7R19852   1.897   2.238  13.577  0.1627 -1.0231 -0.0436
  164DOPC   H7S19853   2.055   2.175  13.561 -0.1782 -0.4902 -1.5087
  164DOPC   C2819854   2.009   2.311  13.394 -0.3072 -0.1416 -0.2797
  164DOPC   H8R19855   2.112   2.348  13.375 -0.7958  0.9671 -0.8435
  164DOPC   H8S19856   1.946   2.402  13.387  1.5483  1.0940 -2.1674
  164DOPC   C2919857   1.981   2.212  13.289 -0.4000 -0.0266 -0.0423
  164DOPC   H9R19858   1.951   2.112  13.323 -2.4843  0.4286 -0.3754
  164DOPC  C21019859   1.976   2.236  13.155 -0.3069 -0.1390 -0.2555
  164DOPC  H10R19860   1.962   2.151  13.086  1.9435 -1.3069  0.6261
  164DOPC  C21119861   1.999   2.372  13.092  0.4191  0.0652  0.3365
  164DOPC  H11R19862   2.006   2.456  13.165 -1.9514 -0.3573  1.1147
  164DOPC  H11S19863   1.913   2.385  13.023  1.2575  0.7440 -0.6170
  164DOPC  C21219864   2.116   2.396  12.992  0.8606 -0.2896  0.3191
  164DOPC  H12R19865   2.215   2.360  13.027  1.2997  1.2417  0.7272
  164DOPC  H12S19866   2.129   2.504  12.970 -0.5379  0.0339  1.0215
  164DOPC  C21319867   2.109   2.322  12.858  0.2878  0.4558  0.2636
  164DOPC  H13R19868   2.007   2.335  12.817 -0.7979  3.2908  3.4959
  164DOPC  H13S19869   2.130   2.215  12.880 -0.4820  0.2314 -0.0455
  164DOPC  C21419870   2.201   2.373  12.744 -0.1942  0.3439 -0.3477
  164DOPC  H14R19871   2.306   2.376  12.779  0.2425  1.5885 -1.6675
  164DOPC  H14S19872   2.186   2.481  12.722 -0.6675  0.0418 -1.5824
  164DOPC  C21519873   2.211   2.301  12.617 -0.0892  0.3610 -0.3588
  164DOPC  H15R19874   2.111   2.257  12.596 -0.2501  1.3357 -1.7565
  164DOPC  H15S19875   2.285   2.219  12.631 -1.9222 -1.4671 -0.8902
  164DOPC  C21619876   2.232   2.401  12.501  0.2043  0.1245 -0.9578
  164DOPC  H16R19877   2.333   2.442  12.523 -0.3773  0.4875  1.2528
  164DOPC  H16S19878   2.154   2.476  12.522  0.0309 -0.5519  1.0838
  164DOPC  C21719879   2.210   2.334  12.366 -0.2892 -0.3539  0.4434
  164DOPC  H17R19880   2.122   2.384  12.321 -0.1244 -0.9920 -0.6452
  164DOPC  H17S19881   2.186   2.226  12.382 -1.8056 -0.0073  0.5894
  164DOPC  C21819882   2.332   2.349  12.268  0.1974 -0.1829 -0.0176
  164DOPC  H18R19883   2.427   2.318  12.317 -0.4190 -0.7477  0.8497
  164DOPC  H18S19884   2.330   2.455  12.234  1.2227 -0.4192 -0.8851
  164DOPC  H18T19885   2.315   2.284  12.179  0.1740  1.2274 -1.0846
  164DOPC   C3319886   2.760   2.094  14.209 -0.8247  0.0027 -0.9030
  164DOPC   H3X19887   2.869   2.111  14.197 -1.0169  2.2806  0.0235
  164DOPC   H3Y19888   2.721   2.171  14.279 -0.3387 -0.3598 -0.2199
  164DOPC   C3419889   2.687   2.128  14.080 -0.6456  0.1152  0.7441
  164DOPC   H4X19890   2.577   2.116  14.088 -0.9113 -1.4469 -3.0501
  164DOPC   H4Y19891   2.733   2.062  14.003  2.2076  0.2188  2.2130
  164DOPC   C3519892   2.715   2.271  14.047  0.1379 -0.0971  0.7092
  164DOPC   H5X19893   2.822   2.292  14.028 -0.0052  1.7977  1.7156
  164DOPC   H5Y19894   2.688   2.342  14.128 -0.0248 -0.0451  0.6095
  164DOPC   C3619895   2.636   2.335  13.922 -0.9254  0.3132 -0.9248
  164DOPC   H6X19896   2.533   2.297  13.936 -0.5659 -0.1004  1.0179
  164DOPC   H6Y19897   2.642   2.444  13.939 -1.6868  0.2113  0.1234
  164DOPC   C3719898   2.701   2.286  13.787 -0.1652  0.5074 -0.0655
  164DOPC   H7X19899   2.811   2.287  13.803 -0.2745 -1.2531  1.0681
  164DOPC   H7Y19900   2.673   2.182  13.761 -0.9498  1.0868 -1.6808
  164DOPC   C3819901   2.662   2.387  13.679 -0.4612 -0.3541 -0.3044
  164DOPC   H8X19902   2.737   2.370  13.599 -0.3095  0.6620 -0.3913
  164DOPC   H8Y19903   2.682   2.487  13.722  0.6838 -1.3004  1.4969
  164DOPC   C3919904   2.518   2.384  13.626 -0.3075  0.1533 -0.2694
  164DOPC   H9X19905   2.450   2.412  13.707  0.0920 -0.2241  0.2071
  164DOPC  C31019906   2.478   2.360  13.504  0.2036 -0.3535 -0.0412
  164DOPC  H10X19907   2.372   2.345  13.478 -0.2593  2.6406 -0.2035
  164DOPC  C31119908   2.569   2.350  13.387  0.3335  0.1804  0.1717
  164DOPC  H11X19909   2.597   2.244  13.368 -3.0016 -0.7742 -0.1833
  164DOPC  H11Y19910   2.671   2.394  13.393  1.4140 -2.1289 -0.2190
  164DOPC  C31219911   2.514   2.415  13.253  0.0378  0.2846  0.2068
  164DOPC  H12X19912   2.507   2.526  13.259  0.0682  0.5177 -2.4928
  164DOPC  H12Y19913   2.408   2.385  13.242  0.4609 -0.4302 -3.4061
  164DOPC  C31319914   2.589   2.393  13.124  0.6025 -0.0017  0.7376
  164DOPC  H13X19915   2.698   2.391  13.147  0.2460 -2.1533  2.6093
  164DOPC  H13Y19916   2.570   2.287  13.095 -0.9508  0.1762  1.0243
  164DOPC  C31419917   2.548   2.484  13.016  0.3728 -0.2480  0.1889
  164DOPC  H14X19918   2.571   2.589  13.045 -0.9497  0.2255 -0.3555
  164DOPC  H14Y19919   2.438   2.480  12.997  0.3088  0.3953  0.4069
  164DOPC  C31519920   2.627   2.461  12.887 -0.5741  0.5432  0.5234
  164DOPC  H15X19921   2.618   2.359  12.845  0.8043  0.9351 -0.8093
  164DOPC  H15Y19922   2.734   2.481  12.909 -0.7563  2.3822 -0.0219
  164DOPC  C31619923   2.596   2.565  12.783  0.5284 -0.2420 -0.2469
  164DOPC  H16X19924   2.491   2.541  12.756  1.0217 -2.3306 -0.4759
  164DOPC  H16Y19925   2.615   2.668  12.821  1.0473 -0.8331  1.1723
  164DOPC  C31719926   2.689   2.555  12.662  0.5040  0.0387  0.7969
  164DOPC  H17X19927   2.797   2.557  12.688  0.2390  0.2477  1.9757
  164DOPC  H17Y19928   2.678   2.463  12.602  0.0196  2.1806 -2.7102
  164DOPC  C31819929   2.655   2.667  12.557  0.0036 -0.5684 -0.7526
  164DOPC  H18X19930   2.564   2.644  12.497  0.5863 -3.1545 -0.7489
  164DOPC  H18Y19931   2.645   2.764  12.611 -2.2991 -2.0539  1.7731
  164DOPC  H18Z19932   2.739   2.668  12.484  1.0839  0.3199  0.4431
  165DOPC     N19933   6.565   0.141  14.308  0.1146 -0.2513  0.1802
  165DOPC   C1219934   6.504   0.267  14.236 -0.4191  0.1142 -0.8215
  165DOPC  H12A19935   6.571   0.288  14.154  0.3499 -1.9048 -0.7441
  165DOPC  H12B19936   6.519   0.348  14.307  0.4027 -0.2844 -0.5252
  165DOPC   C1319937   6.476   0.098  14.423  0.2433 -0.6176 -0.3627
  165DOPC  H13A19938   6.386   0.046  14.393 -0.5981  0.7469 -0.3041
  165DOPC  H13B19939   6.531   0.036  14.492 -0.8261  0.3618  1.4530
  165DOPC  H13C19940   6.440   0.187  14.473  1.3583 -0.3674  0.0170
  165DOPC   C1419941   6.703   0.170  14.359  1.1950  0.4089  0.3923
  165DOPC  H14A19942   6.736   0.080  14.409  0.2918 -0.8145 -1.1057
  165DOPC  H14B19943   6.769   0.201  14.278 -0.6454  0.9670 -0.9656
  165DOPC  H14C19944   6.695   0.247  14.433  0.0807 -0.0345  0.7520
  165DOPC   C1519945   6.559   0.026  14.212  0.2335  0.1162  0.6652
  165DOPC  H15A19946   6.609   0.047  14.119 -3.4613  0.5162 -1.3930
  165DOPC  H15B19947   6.459   0.009  14.177  0.4788  0.4613 -0.2391
  165DOPC  H15C19948   6.600  -0.065  14.254 -0.3365 -0.1758  0.5882
  165DOPC   C1119949   6.360   0.283  14.182  0.6025 -0.3759 -0.5983
  165DOPC  H11A19950   6.346   0.389  14.155  0.0134  0.3954  2.3606
  165DOPC  H11B19951   6.345   0.214  14.096 -1.2288  2.3270 -2.5822
  165DOPC     P19952   6.156   0.157  14.286 -0.2900  0.3006 -0.4474
  165DOPC   O1319953   6.122   0.106  14.419 -0.5609  0.1821  0.0081
  165DOPC   O1419954   6.198   0.054  14.187  0.4508 -0.1220 -0.3278
  165DOPC   O1219955   6.264   0.267  14.290 -0.7474  0.2459  0.0682
  165DOPC   O1119956   6.020   0.218  14.237  0.3583 -0.2282 -0.8129
  165DOPC    C119957   6.007   0.350  14.180  0.1171 -0.3934  0.4444
  165DOPC    HA19958   6.076   0.425  14.224 -0.0433  0.1147 -0.1513
  165DOPC    HB19959   5.909   0.394  14.211  1.6518  2.7130  1.2769
  165DOPC    C219960   6.021   0.337  14.021  0.0260  0.1074 -0.2134
  165DOPC    HS19961   5.953   0.256  13.989  1.1536 -0.5911 -0.8949
  165DOPC   O2119962   6.156   0.328  13.974 -0.1625 -0.0224  0.5230
  165DOPC   C2119963   6.161   0.260  13.862 -0.1986  0.2025  0.0168
  165DOPC   O2219964   6.073   0.189  13.815 -0.2923  0.6683  0.1410
  165DOPC   C2219965   6.305   0.279  13.820  0.3559  0.2557  0.6924
  165DOPC   H2R19966   6.370   0.257  13.908  0.4242 -0.3938  0.4839
  165DOPC   H2S19967   6.323   0.384  13.789 -0.3821 -0.0536 -0.8591
  165DOPC    C319968   5.955   0.475  13.961  0.0988 -0.1696 -0.4673
  165DOPC    HX19969   5.999   0.561  14.016  0.4020  0.3160 -1.4400
  165DOPC    HY19970   5.846   0.475  13.982 -0.3674 -0.3451 -2.6802
  165DOPC   O3119971   5.976   0.488  13.815 -0.3760  0.6365 -0.6513
  165DOPC   C3119972   5.890   0.417  13.744 -0.1316 -0.5312  1.0733
  165DOPC   O3219973   5.794   0.356  13.788 -0.1796  0.3120  0.0123
  165DOPC   C3219974   5.928   0.423  13.596 -0.6447 -0.2920 -0.4105
  165DOPC   H2X19975   5.997   0.338  13.577 -1.7139 -1.1153 -0.7076
  165DOPC   H2Y19976   5.838   0.413  13.531 -0.9644 -0.3286  0.0353
  165DOPC   C2319977   6.338   0.203  13.691  0.3372  1.2459 -0.1151
  165DOPC   H3R19978   6.298   0.099  13.700 -0.3497  1.0855 -3.5299
  165DOPC   H3S19979   6.445   0.186  13.715  0.3008 -0.8432 -1.1889
  165DOPC   C2419980   6.296   0.273  13.560  0.4265 -0.3633  0.9035
  165DOPC   H4R19981   6.366   0.349  13.519 -0.4748 -0.2357 -0.4431
  165DOPC   H4S19982   6.200   0.325  13.583 -0.1364 -1.2604  0.6311
  165DOPC   C2519983   6.265   0.178  13.445 -0.2336  0.1428 -0.0790
  165DOPC   H5R19984   6.210   0.223  13.361 -0.6458 -0.5571 -0.1918
  165DOPC   H5S19985   6.198   0.098  13.481 -1.5162  0.9887 -0.5381
  165DOPC   C2619986   6.396   0.101  13.393 -0.1500  0.1712  0.4526
  165DOPC   H6R19987   6.427   0.033  13.476  2.0759  1.7799  1.0372
  165DOPC   H6S19988   6.473   0.179  13.372  1.8127 -2.2007 -1.9719
  165DOPC   C2719989   6.366   0.020  13.265 -0.3628  1.0087 -0.4410
  165DOPC   H7R19990   6.282  -0.049  13.285  0.8469 -0.6757 -0.8662
  165DOPC   H7S19991   6.459  -0.039  13.247  0.6444  2.1400  0.8597
  165DOPC   C2819992   6.327   0.093  13.135 -0.7455  0.0297  0.1409
  165DOPC   H8R19993   6.250   0.172  13.144 -1.9759 -1.0584 -0.5955
  165DOPC   H8S19994   6.295   0.018  13.060  3.5095 -3.1015  1.0746
  165DOPC   C2919995   6.444   0.170  13.080 -0.1277 -0.9267  0.6543
  165DOPC   H9R19996   6.497   0.230  13.156  0.8483  0.6918 -1.1958
  165DOPC  C21019997   6.507   0.163  12.962 -0.7259  0.1211 -0.1790
  165DOPC  H10R19998   6.600   0.222  12.957 -0.1231 -0.6920  1.0230
  165DOPC  C21119999   6.475   0.074  12.842 -0.1041  0.9830 -0.0857
  165DOPC  H11R20000   6.369   0.045  12.855 -0.2275  2.2936  2.5762
  165DOPC  H11S20001   6.531  -0.022  12.850  1.7327  1.9462 -0.6561
  165DOPC  C21220002   6.471   0.140  12.699 -0.2449 -0.2821 -0.7264
  165DOPC  H12R20003   6.576   0.162  12.673  0.6399 -0.8637  2.0062
  165DOPC  H12S20004   6.410   0.233  12.703 -0.1542 -0.2727  1.0849
  165DOPC  C21320005   6.414   0.055  12.586 -0.1528  0.3772 -0.5559
  165DOPC  H13R20006   6.310   0.026  12.610  0.5071 -1.7615 -0.1269
  165DOPC  H13S20007   6.472  -0.037  12.568 -0.9052 -0.3460  0.5928
  165DOPC  C21420008   6.416   0.121  12.455 -0.7000  0.0369 -0.5767
  165DOPC  H14R20009   6.517   0.150  12.420 -0.3353 -1.1642 -0.5632
  165DOPC  H14S20010   6.357   0.214  12.472  1.9964  1.7535  0.0603
  165DOPC  C21520011   6.359   0.029  12.346 -0.4587 -0.6981 -0.1274
  165DOPC  H15R20012   6.252   0.006  12.363 -1.2718  1.4290 -1.9010
  165DOPC  H15S20013   6.421  -0.061  12.367  0.6582  0.0079 -0.3075
  165DOPC  C21620014   6.389   0.084  12.215 -0.5994 -0.7290 -0.5311
  165DOPC  H16R20015   6.388  -0.000  12.142  2.4834 -0.4445 -1.0163
  165DOPC  H16S20016   6.488   0.134  12.204 -0.4509 -0.7280  0.6357
  165DOPC  C21720017   6.288   0.181  12.159  0.3844 -0.5021 -0.0228
  165DOPC  H17R20018   6.272   0.262  12.233  1.4858  0.5261 -0.8754
  165DOPC  H17S20019   6.189   0.130  12.150  0.4468 -0.4547 -1.1212
  165DOPC  C21820020   6.324   0.242  12.028 -0.7856  0.0682 -0.2989
  165DOPC  H18R20021   6.424   0.291  12.029 -1.7989  2.2724  1.4595
  165DOPC  H18S20022   6.260   0.330  12.005 -1.2478 -0.2064 -0.0866
  165DOPC  H18T20023   6.329   0.179  11.936 -1.1626 -0.4258  0.0078
  165DOPC   C3320024   5.988   0.548  13.543  0.1031 -0.1809  0.6173
  165DOPC   H3X20025   6.061   0.591  13.615 -0.1012  0.1149  0.6511
  165DOPC   H3Y20026   5.905   0.620  13.525 -0.9787 -1.2071  1.3505
  165DOPC   C3420027   6.072   0.510  13.423 -0.0793  0.2058  0.6753
  165DOPC   H4X20028   6.126   0.416  13.446  0.0283 -0.4888 -2.0765
  165DOPC   H4Y20029   6.152   0.586  13.412  0.6967 -0.3215  2.2685
  165DOPC   C3520030   5.987   0.499  13.291 -0.1316 -0.0577 -0.3504
  165DOPC   H5X20031   5.949   0.600  13.268  0.2025  0.0005 -0.6461
  165DOPC   H5Y20032   5.897   0.433  13.295  0.5289 -1.1682 -2.2637
  165DOPC   C3620033   6.076   0.457  13.174 -0.1009  0.1286  0.0358
  165DOPC   H6X20034   6.155   0.534  13.170  1.1764 -1.2111 -3.1074
  165DOPC   H6Y20035   6.135   0.363  13.179  0.2626  0.3564 -0.0036
  165DOPC   C3720036   5.993   0.467  13.047 -0.0069 -0.6972  0.1067
  165DOPC   H7X20037   5.913   0.544  13.053 -0.8957 -1.6437  1.0791
  165DOPC   H7Y20038   5.923   0.381  13.039 -2.3597  1.2501 -1.8602
  165DOPC   C3820039   6.069   0.490  12.920  0.0697 -0.6570  0.0132
  165DOPC   H8X20040   6.133   0.577  12.944  1.9923 -2.3617  1.4689
  165DOPC   H8Y20041   5.994   0.516  12.842  1.2820  1.6384 -0.4672
  165DOPC   C3920042   6.141   0.365  12.875  0.4318  0.0292 -0.1810
  165DOPC   H9X20043   6.193   0.308  12.953  2.1163  1.5466 -0.1239
  165DOPC  C31020044   6.138   0.311  12.751  0.2240  0.2909 -0.2251
  165DOPC  H10X20045   6.197   0.221  12.728  1.1510  1.5135 -2.9503
  165DOPC  C31120046   6.059   0.359  12.625 -0.1504 -0.0406  0.2732
  165DOPC  H11X20047   6.126   0.361  12.536 -0.3268 -1.1767  0.1050
  165DOPC  H11Y20048   6.022   0.464  12.618  0.8934  0.2704 -1.1184
  165DOPC  C31220049   5.936   0.264  12.604  0.7460 -0.5863  0.3909
  165DOPC  H12X20050   5.970   0.161  12.628  0.7214 -0.3086  1.6591
  165DOPC  H12Y20051   5.898   0.270  12.499 -0.4763  1.5794  0.9052
  165DOPC  C31320052   5.820   0.312  12.696  0.1634 -0.5069 -0.3534
  165DOPC  H13X20053   5.867   0.338  12.794 -2.3104 -2.0616  1.3504
  165DOPC  H13Y20054   5.762   0.393  12.647 -0.7878 -1.1598 -0.3167
  165DOPC  C31420055   5.715   0.205  12.736  0.7589  0.3434  0.3519
  165DOPC  H14X20056   5.631   0.217  12.665  0.3745 -2.7879  0.1250
  165DOPC  H14Y20057   5.757   0.102  12.726 -1.4055 -0.4884 -0.6661
  165DOPC  C31520058   5.658   0.235  12.880 -0.1710  0.2079 -0.0133
  165DOPC  H15X20059   5.619   0.339  12.888  0.7093  0.5703 -0.2299
  165DOPC  H15Y20060   5.740   0.222  12.953  1.0777 -1.2643 -1.5689
  165DOPC  C31620061   5.544   0.138  12.914 -0.0507 -0.2923 -0.2638
  165DOPC  H16X20062   5.469   0.136  12.831 -0.6363 -0.6819  0.2689
  165DOPC  H16Y20063   5.592   0.038  12.914 -3.1773 -1.9211  1.2156
  165DOPC  C31720064   5.480   0.173  13.053  0.4755 -0.2374 -0.8825
  165DOPC  H17X20065   5.566   0.187  13.122  0.1027  0.3764 -0.5345
  165DOPC  H17Y20066   5.425   0.267  13.031 -0.8763 -0.3166  1.7895
  165DOPC  C31820067   5.389   0.064  13.102  0.0881 -1.1707 -0.2289
  165DOPC  H18X20068   5.373   0.064  13.212 -0.7587 -1.4133 -0.3493
  165DOPC  H18Y20069   5.288   0.080  13.059 -0.5875 -2.4729  0.8334
  165DOPC  H18Z20070   5.424  -0.034  13.065 -0.6082 -1.7095  0.5054
  166DOPC     N20071   1.025   1.828  15.079 -0.3948 -0.5773 -0.4878
  166DOPC   C1220072   1.032   1.833  14.925  0.5334 -0.4129 -0.1912
  166DOPC  H12A20073   0.992   1.737  14.896 -0.4540 -0.6610  1.7545
  166DOPC  H12B20074   1.135   1.840  14.894  0.5527  2.1115  0.2286
  166DOPC   C1320075   1.121   1.925  15.147 -0.9245 -0.0438  0.3364
  166DOPC  H13A20076   1.137   1.907  15.252  3.4056  0.8437  0.0327
  166DOPC  H13B20077   1.218   1.913  15.101 -0.3903 -0.0517  1.4456
  166DOPC  H13C20078   1.096   2.028  15.128 -0.1671  0.0235 -0.3822
  166DOPC   C1420079   1.065   1.691  15.117 -0.4789  0.2317 -0.4018
  166DOPC  H14A20080   1.172   1.675  15.111 -0.5062 -0.5386  0.7653
  166DOPC  H14B20081   1.024   1.652  15.209  0.3997 -2.8124 -1.1732
  166DOPC  H14C20082   1.027   1.617  15.048 -1.4071 -2.1060  2.4119
  166DOPC   C1520083   0.889   1.856  15.128  0.5543  1.0034 -0.2074
  166DOPC  H15A20084   0.894   1.835  15.234  3.3246 -1.4282 -0.6858
  166DOPC  H15B20085   0.816   1.800  15.072 -2.4336  3.9533  0.4351
  166DOPC  H15C20086   0.858   1.958  15.108  2.7358  1.9770  1.0303
  166DOPC   C1120087   0.960   1.947  14.868 -0.1292 -0.1426  0.0599
  166DOPC  H11A20088   0.968   1.958  14.758 -0.0104 -0.4404  0.0375
  166DOPC  H11B20089   0.852   1.932  14.887 -0.2679 -0.1964 -0.7534
  166DOPC     P20090   0.944   2.185  14.993 -0.2395 -0.3019  0.0493
  166DOPC   O1320091   1.022   2.217  15.116 -0.2260 -0.0807  0.5781
  166DOPC   O1420092   0.803   2.162  15.013  0.2226  0.6502 -0.1917
  166DOPC   O1220093   1.019   2.070  14.910 -0.0243 -0.7713 -0.2320
  166DOPC   O1120094   0.957   2.312  14.904  0.3650  0.1093  0.0932
  166DOPC    C120095   0.854   2.395  14.854  0.2007 -0.6483  0.0345
  166DOPC    HA20096   0.874   2.502  14.875 -1.4335 -0.4643  0.7984
  166DOPC    HB20097   0.758   2.383  14.909  0.1695  2.6748  0.8865
  166DOPC    C220098   0.827   2.368  14.706 -0.1107 -0.1698  0.5485
  166DOPC    HS20099   0.758   2.442  14.659  1.3320  0.4357 -0.7030
  166DOPC   O2120100   0.783   2.230  14.688  0.1888 -0.0123  0.5366
  166DOPC   C2120101   0.663   2.211  14.711  0.1065  0.5788  0.6205
  166DOPC   O2220102   0.579   2.296  14.739  0.2102 -0.5303 -0.1329
  166DOPC   C2220103   0.632   2.058  14.685 -0.1435 -0.2901 -0.1838
  166DOPC   H2R20104   0.582   2.023  14.778 -0.7506  0.2351 -0.3090
  166DOPC   H2S20105   0.728   2.001  14.680 -0.7029 -1.4528  1.5950
  166DOPC    C320106   0.949   2.393  14.617  0.4460 -0.4626  0.5557
  166DOPC    HX20107   1.023   2.313  14.639 -1.2371 -2.7612 -1.5355
  166DOPC    HY20108   0.994   2.487  14.656  1.9982 -0.4670 -1.1217
  166DOPC   O3120109   0.917   2.406  14.476 -0.8974 -0.1224 -0.0061
  166DOPC   C3120110   1.018   2.363  14.391  0.5668  0.8546 -0.5683
  166DOPC   O3220111   1.134   2.351  14.431 -0.1727  0.4238  0.0204
  166DOPC   C3220112   0.961   2.333  14.252 -0.2874  0.4830  0.4548
  166DOPC   H2X20113   0.905   2.238  14.244 -0.1998  0.6136 -3.6640
  166DOPC   H2Y20114   0.900   2.423  14.225 -1.1346  0.3140  1.7111
  166DOPC   C2320115   0.531   2.041  14.567 -0.0017  0.2895  0.6454
  166DOPC   H3R20116   0.459   2.124  14.577 -1.3442 -0.7327 -0.3009
  166DOPC   H3S20117   0.482   1.947  14.600  1.2858 -0.3814  0.7185
  166DOPC   C2420118   0.610   2.027  14.435  0.1193 -0.5216  0.2403
  166DOPC   H4R20119   0.666   1.933  14.420  0.5963  0.0779 -2.2047
  166DOPC   H4S20120   0.683   2.109  14.420  0.4457 -0.6796  0.9074
  166DOPC   C2520121   0.514   2.039  14.313 -0.2435  0.0600 -0.3281
  166DOPC   H5R20122   0.494   2.147  14.299 -1.6258 -0.0686  0.4692
  166DOPC   H5S20123   0.417   1.990  14.334 -0.1287  0.1205  0.3864
  166DOPC   C2620124   0.578   1.977  14.181  0.7621 -0.4193  0.0194
  166DOPC   H6R20125   0.603   1.870  14.197  0.3103 -0.2527  2.2307
  166DOPC   H6S20126   0.654   2.045  14.139 -1.1243  0.5348 -2.0821
  166DOPC   C2720127   0.467   1.972  14.067  0.5390  0.2677 -0.1073
  166DOPC   H7R20128   0.419   2.069  14.094 -1.2263 -0.6521  0.2517
  166DOPC   H7S20129   0.391   1.893  14.086  0.9496  0.1121  0.9639
  166DOPC   C2820130   0.510   1.984  13.918  0.2910  0.4716 -0.1436
  166DOPC   H8R20131   0.579   2.071  13.912 -0.4022  1.0595  0.2444
  166DOPC   H8S20132   0.416   2.006  13.864  0.0053 -1.4072 -0.5019
  166DOPC   C2920133   0.570   1.858  13.866  0.1864  0.1508  0.2935
  166DOPC   H9R20134   0.593   1.779  13.940 -2.1559 -1.7939 -0.8933
  166DOPC  C21020135   0.588   1.828  13.736  0.3399 -0.3300  0.2743
  166DOPC  H10R20136   0.637   1.735  13.703 -0.5469 -1.1118  1.1041
  166DOPC  C21120137   0.553   1.922  13.625  0.7112 -0.0077 -0.1692
  166DOPC  H11R20138   0.501   2.014  13.659  0.0908 -0.1501 -0.6931
  166DOPC  H11S20139   0.479   1.870  13.560 -0.1715 -1.5452  1.9427
  166DOPC  C21220140   0.680   1.942  13.546  0.1605  0.3993 -0.1802
  166DOPC  H12R20141   0.747   1.858  13.519  1.1358  0.4215  1.8944
  166DOPC  H12S20142   0.743   2.005  13.613  0.3837 -0.4574  0.4297
  166DOPC  C21320143   0.649   2.024  13.426 -0.0413  0.9811  0.2743
  166DOPC  H13R20144   0.735   2.087  13.393  2.5221 -1.4605  1.7818
  166DOPC  H13S20145   0.561   2.089  13.445 -0.9444 -0.1804  0.1749
  166DOPC  C21420146   0.631   1.932  13.299 -0.5240 -0.6476 -0.2497
  166DOPC  H14R20147   0.558   1.854  13.328  0.6945 -2.4838 -1.8735
  166DOPC  H14S20148   0.723   1.889  13.253 -0.7872 -3.2025  1.4055
  166DOPC  C21520149   0.568   2.009  13.178  0.0551  0.0844  0.6041
  166DOPC  H15R20150   0.620   2.104  13.157  0.3126 -0.1677  0.1017
  166DOPC  H15S20151   0.463   2.045  13.191  0.3732  1.2426  0.0918
  166DOPC  C21620152   0.581   1.922  13.053 -0.3560  0.6030 -0.4206
  166DOPC  H16R20153   0.683   1.880  13.061  0.3697  2.6493  2.2631
  166DOPC  H16S20154   0.572   2.000  12.975  2.2534  0.0177 -1.4053
  166DOPC  C21720155   0.474   1.812  13.038  0.1390 -0.0330 -0.3644
  166DOPC  H17R20156   0.372   1.853  13.057 -0.0104 -0.8569  0.7371
  166DOPC  H17S20157   0.487   1.738  13.120  1.0531  3.4366  2.9246
  166DOPC  C21820158   0.489   1.749  12.901 -0.6261  0.1326 -0.2586
  166DOPC  H18R20159   0.568   1.671  12.894  1.6194  2.3071 -0.4319
  166DOPC  H18S20160   0.518   1.831  12.832  2.9999 -0.9940 -0.2455
  166DOPC  H18T20161   0.393   1.699  12.873  0.7308 -2.9178  0.1221
  166DOPC   C3320162   1.070   2.325  14.142  0.3552  0.0055 -1.1093
  166DOPC   H3X20163   1.110   2.222  14.138 -0.6038 -0.3885 -0.6957
  166DOPC   H3Y20164   1.151   2.398  14.166  0.9249 -0.6685 -0.9469
  166DOPC   C3420165   1.024   2.356  13.996 -0.1792  0.0353  0.1240
  166DOPC   H4X20166   1.115   2.367  13.934 -1.7401 -0.5906 -2.4365
  166DOPC   H4Y20167   0.961   2.448  14.005 -1.9813 -1.2046  0.9185
  166DOPC   C3520168   0.937   2.241  13.929 -0.3704  0.1283 -0.4726
  166DOPC   H5X20169   0.853   2.221  14.000  0.6548  1.3795  1.1740
  166DOPC   H5Y20170   0.999   2.149  13.930 -1.8505 -0.9507  1.9837
  166DOPC   C3620171   0.881   2.271  13.791  0.4284 -0.5391 -0.7296
  166DOPC   H6X20172   0.820   2.188  13.751 -0.4868 -0.2737  0.0744
  166DOPC   H6Y20173   0.817   2.362  13.797  2.2272  1.0804 -3.7414
  166DOPC   C3720174   0.986   2.299  13.681 -0.5401  0.7668 -0.0294
  166DOPC   H7X20175   1.034   2.398  13.695  0.4825  0.1424  0.9899
  166DOPC   H7Y20176   1.065   2.227  13.709  1.2635  3.0204  1.0710
  166DOPC   C3820177   0.934   2.288  13.539 -0.0860 -0.3131  0.1093
  166DOPC   H8X20178   0.880   2.191  13.527 -1.3569  0.5518 -1.6960
  166DOPC   H8Y20179   1.020   2.272  13.470 -0.1851  0.6124 -0.2468
  166DOPC   C3920180   0.847   2.405  13.497  0.2125  0.3730  0.3275
  166DOPC   H9X20181   0.757   2.410  13.559 -1.7494 -1.2690 -2.2164
  166DOPC  C31020182   0.863   2.475  13.389  0.6824  0.6245 -0.0720
  166DOPC  H10X20183   0.791   2.558  13.377  0.8091  0.9010  0.9741
  166DOPC  C31120184   0.967   2.453  13.281  0.0807 -0.3086 -0.1872
  166DOPC  H11X20185   0.958   2.354  13.232  0.3368 -0.8122  0.7608
  166DOPC  H11Y20186   1.066   2.464  13.331 -1.0665 -1.6990  2.6211
  166DOPC  C31220187   0.958   2.558  13.166 -0.6434  0.2860  0.1437
  166DOPC  H12X20188   0.957   2.661  13.208 -1.6672 -0.4617  2.0630
  166DOPC  H12Y20189   0.861   2.540  13.114 -0.3402 -0.8415 -0.0526
  166DOPC  C31320190   1.079   2.541  13.075  0.2871 -0.3371  0.2255
  166DOPC  H13X20191   1.168   2.535  13.141  1.4233  1.3335 -1.0726
  166DOPC  H13Y20192   1.076   2.449  13.013 -2.1777 -0.5186  0.5002
  166DOPC  C31420193   1.100   2.662  12.988  0.0006  0.2931  0.2655
  166DOPC  H14X20194   1.097   2.761  13.038  2.4149 -0.1396  1.4447
  166DOPC  H14Y20195   1.206   2.651  12.957  0.4374 -0.7031  1.9333
  166DOPC  C31520196   1.016   2.675  12.856  0.2061 -0.6974 -0.0130
  166DOPC  H15X20197   0.906   2.664  12.873 -0.1505 -0.0974 -1.6652
  166DOPC  H15Y20198   1.040   2.585  12.795  0.4174 -0.8942  0.3581
  166DOPC  C31620199   1.053   2.812  12.790  0.0855 -0.2815  0.8096
  166DOPC  H16X20200   1.016   2.903  12.841 -2.2167 -0.3149 -0.6580
  166DOPC  H16Y20201   1.164   2.810  12.781  0.0090  1.0821 -0.9288
  166DOPC  C31720202   0.971   2.832  12.657 -0.4755 -0.5818 -0.8646
  166DOPC  H17X20203   1.000   2.738  12.605  0.6640 -1.3229  1.0101
  166DOPC  H17Y20204   0.864   2.832  12.687  0.0611  2.1525  1.4083
  166DOPC  C31820205   1.010   2.956  12.569  0.8055 -0.0378 -0.2408
  166DOPC  H18X20206   0.984   3.049  12.624  0.6570 -0.8590  1.1415
  166DOPC  H18Y20207   1.118   2.977  12.553  0.4246  2.9287  0.4538
  166DOPC  H18Z20208   0.953   2.956  12.474 -0.7749  1.1170  0.6489
  167DOPC     N20209   0.626   1.329  15.290  0.3508  0.1686 -0.1163
  167DOPC   C1220210   0.639   1.472  15.248  0.0396  0.0240  0.2872
  167DOPC  H12A20211   0.646   1.533  15.336 -0.2687 -0.0104  0.3362
  167DOPC  H12B20212   0.548   1.506  15.201 -1.1077 -0.8822  1.7602
  167DOPC   C1320213   0.720   1.307  15.403  0.0043 -0.3747  0.3542
  167DOPC  H13A20214   0.695   1.385  15.473 -0.7920 -0.7483  0.4927
  167DOPC  H13B20215   0.715   1.212  15.453 -0.1129  0.1899  1.4554
  167DOPC  H13C20216   0.820   1.316  15.364  0.0910  0.0707  0.6753
  167DOPC   C1420217   0.642   1.224  15.178  0.3803  0.6489  0.1533
  167DOPC  H14A20218   0.665   1.124  15.213 -0.2698 -0.0611 -1.3330
  167DOPC  H14B20219   0.550   1.227  15.120  1.5437 -0.9768 -1.9240
  167DOPC  H14C20220   0.715   1.255  15.105  0.9623  1.1103  0.9256
  167DOPC   C1520221   0.482   1.320  15.347 -0.6607  0.3119  0.1336
  167DOPC  H15A20222   0.470   1.216  15.377 -0.4556  0.8387  2.2232
  167DOPC  H15B20223   0.405   1.341  15.274 -0.2904 -1.3456 -0.7940
  167DOPC  H15C20224   0.478   1.373  15.441  1.2245 -0.3591  0.6323
  167DOPC   C1120225   0.758   1.501  15.148 -0.3398  0.0483 -0.2685
  167DOPC  H11A20226   0.745   1.609  15.127 -1.1892 -0.0698 -0.3940
  167DOPC  H11B20227   0.855   1.493  15.201  0.4831  1.9371 -1.3890
  167DOPC     P20228   0.884   1.432  14.929  0.1949  0.0570  0.1625
  167DOPC   O1320229   0.850   1.349  14.808  0.1819  0.1750 -1.0263
  167DOPC   O1420230   1.008   1.404  15.009  0.0211  0.4551 -0.3234
  167DOPC   O1220231   0.761   1.427  15.028  0.0102 -0.5983  0.6428
  167DOPC   O1120232   0.883   1.587  14.881  0.1638  0.6383  0.2183
  167DOPC    C120233   0.774   1.633  14.806  0.2988  0.2055  0.1924
  167DOPC    HA20234   0.756   1.741  14.825  0.5816  0.3053 -0.1003
  167DOPC    HB20235   0.677   1.581  14.821 -0.3233  0.6595 -1.8319
  167DOPC    C220236   0.799   1.629  14.654  0.0558 -0.4938 -0.2899
  167DOPC    HS20237   0.844   1.532  14.628 -0.7335 -0.6216 -1.2225
  167DOPC   O2120238   0.890   1.738  14.622 -0.1115 -0.1651 -0.8237
  167DOPC   C2120239   0.980   1.704  14.524  0.2133 -0.2224 -0.2327
  167DOPC   O2220240   1.001   1.588  14.483  0.2830  0.0178  0.7477
  167DOPC   C2220241   1.075   1.821  14.487  0.3482 -0.6763 -0.0181
  167DOPC   H2R20242   1.163   1.778  14.435  1.8589  0.8651  1.1936
  167DOPC   H2S20243   1.109   1.851  14.588 -1.1555 -1.3296  0.7163
  167DOPC    C320244   0.671   1.638  14.571  0.3397  0.1916  0.7726
  167DOPC    HX20245   0.619   1.734  14.597 -0.6040  0.3226 -1.3448
  167DOPC    HY20246   0.603   1.557  14.604 -1.2227  1.5435  1.0548
  167DOPC   O3120247   0.702   1.634  14.429 -0.5249 -0.0825  0.4026
  167DOPC   C3120248   0.659   1.534  14.355  0.5230 -0.5883 -0.0667
  167DOPC   O3220249   0.578   1.452  14.391  0.0412 -0.7074  0.3135
  167DOPC   C3220250   0.718   1.536  14.221 -0.1990 -0.0937 -0.5053
  167DOPC   H2X20251   0.702   1.637  14.177  2.7326  0.8071  0.2477
  167DOPC   H2Y20252   0.828   1.529  14.235 -0.5412 -0.6705  2.4592
  167DOPC   C2320253   1.011   1.933  14.409 -0.7399 -0.0564  0.3877
  167DOPC   H3R20254   1.093   2.006  14.388 -0.2471 -1.1199 -1.6125
  167DOPC   H3S20255   0.950   1.984  14.486 -0.3373  1.2726 -0.1387
  167DOPC   C2420256   0.935   1.892  14.285  0.3862  0.4970 -0.4068
  167DOPC   H4R20257   0.852   1.962  14.264 -0.5056  0.3037  2.1425
  167DOPC   H4S20258   0.884   1.796  14.309  1.4770  0.4812  2.1458
  167DOPC   C2520259   1.030   1.869  14.168  0.5462 -0.4370  0.0611
  167DOPC   H5R20260   1.079   1.769  14.177 -1.3670 -1.2912  1.9305
  167DOPC   H5S20261   1.104   1.951  14.162 -0.6617  0.5637 -2.5450
  167DOPC   C2620262   0.950   1.872  14.033  0.4956  0.6749 -0.6547
  167DOPC   H6R20263   0.905   1.973  14.018 -0.4282 -0.0222 -3.1299
  167DOPC   H6S20264   0.869   1.797  14.045  1.2683  0.0320  0.7281
  167DOPC   C2720265   1.040   1.815  13.924  0.1100 -0.2489  0.1423
  167DOPC   H7R20266   1.050   1.707  13.949  0.6672 -0.0886  0.6320
  167DOPC   H7S20267   1.143   1.856  13.924 -0.2329  0.9001 -2.8796
  167DOPC   C2820268   0.988   1.830  13.778  0.1356 -0.1959 -0.0358
  167DOPC   H8R20269   0.997   1.937  13.750 -0.6416  0.2067  1.1724
  167DOPC   H8S20270   0.879   1.809  13.785  0.1501 -0.0120  0.7828
  167DOPC   C2920271   1.045   1.749  13.667 -0.3662 -0.0372  0.7997
  167DOPC   H9R20272   1.053   1.643  13.696 -2.2742 -0.2812  0.5671
  167DOPC  C21020273   1.077   1.782  13.543  0.9336  0.3320  0.6859
  167DOPC  H10R20274   1.103   1.695  13.481 -1.0287  1.2956 -1.6300
  167DOPC  C21120275   1.050   1.919  13.488 -0.0929 -0.4837 -0.6586
  167DOPC  H11R20276   1.149   1.965  13.469 -0.6190  0.3213 -1.5194
  167DOPC  H11S20277   0.988   1.984  13.553  1.9750  0.5205  0.3958
  167DOPC  C21220278   0.992   1.913  13.349 -0.2563 -0.7605  0.1804
  167DOPC  H12R20279   0.900   1.851  13.358  1.3581 -3.1539  1.1298
  167DOPC  H12S20280   0.964   2.013  13.310 -2.2749 -0.8849  1.1706
  167DOPC  C21320281   1.082   1.859  13.240  0.2462  0.4969  0.4031
  167DOPC  H13R20282   1.141   1.773  13.279 -1.5775 -0.5716  0.9427
  167DOPC  H13S20283   1.158   1.933  13.209  0.0210 -0.0479 -1.5850
  167DOPC  C21420284   1.019   1.803  13.120  0.1073  0.3171  0.7464
  167DOPC  H14R20285   0.975   1.877  13.050 -0.6042 -0.5590  0.2405
  167DOPC  H14S20286   0.939   1.733  13.152 -0.0016  0.9042  1.8010
  167DOPC  C21520287   1.129   1.736  13.024 -0.4209 -1.1047 -0.5295
  167DOPC  H15R20288   1.176   1.639  13.049  2.1704  0.0759 -0.5058
  167DOPC  H15S20289   1.210   1.812  13.022 -1.2052 -0.2418 -0.2331
  167DOPC  C21620290   1.080   1.729  12.881  0.5693 -0.1689 -0.7372
  167DOPC  H16R20291   1.040   1.829  12.851 -0.4345  0.4992  2.5132
  167DOPC  H16S20292   0.998   1.654  12.882  0.1954  0.2405 -0.0301
  167DOPC  C21720293   1.191   1.685  12.785  0.6473  0.0560  0.8198
  167DOPC  H17R20294   1.228   1.589  12.825  0.8092 -0.5560 -0.7271
  167DOPC  H17S20295   1.269   1.763  12.799  0.4705  0.3732  0.0905
  167DOPC  C21820296   1.157   1.682  12.635  0.3296 -0.0567 -1.0591
  167DOPC  H18R20297   1.123   1.784  12.606 -2.0035  0.3109  2.3912
  167DOPC  H18S20298   1.081   1.604  12.612 -0.3259  0.1861  0.1700
  167DOPC  H18T20299   1.250   1.648  12.586  0.8408  1.3710 -1.1375
  167DOPC   C3320300   0.657   1.429  14.123  0.3414 -0.3513 -0.1598
  167DOPC   H3X20301   0.546   1.436  14.119  0.3531 -0.3920 -0.6659
  167DOPC   H3Y20302   0.674   1.329  14.167  0.2202 -0.1168  0.4277
  167DOPC   C3420303   0.710   1.449  13.978 -0.5258  0.2607  0.5807
  167DOPC   H4X20304   0.815   1.484  13.983 -0.5543  0.3083  4.3591
  167DOPC   H4Y20305   0.639   1.516  13.925 -0.6688  0.0755  0.5372
  167DOPC   C3520306   0.704   1.323  13.898 -0.2855  0.4440  0.0869
  167DOPC   H5X20307   0.599   1.287  13.908 -0.2237  0.2904  0.1757
  167DOPC   H5Y20308   0.768   1.244  13.942  0.1234  0.7723  0.0846
  167DOPC   C3620309   0.751   1.343  13.751 -0.5180 -0.3893  0.2723
  167DOPC   H6X20310   0.854   1.384  13.745  1.1867 -4.1939  0.1637
  167DOPC   H6Y20311   0.760   1.244  13.701  0.5456  1.1913 -3.0038
  167DOPC   C3720312   0.662   1.436  13.660 -0.0387 -0.3158 -0.2598
  167DOPC   H7X20313   0.556   1.419  13.689 -0.1604 -0.0696 -0.5519
  167DOPC   H7Y20314   0.672   1.546  13.673  0.8369 -0.2372 -1.4174
  167DOPC   C3820315   0.698   1.419  13.512  0.2466 -0.6819  0.2205
  167DOPC   H8X20316   0.623   1.473  13.451  0.2764 -0.0950  0.7003
  167DOPC   H8Y20317   0.687   1.316  13.472  1.7430  0.3969 -3.3156
  167DOPC   C3920318   0.835   1.462  13.473  0.6421  1.2219 -0.3029
  167DOPC   H9X20319   0.904   1.483  13.557 -0.2119  0.4922  0.5999
  167DOPC  C31020320   0.865   1.494  13.349  0.4171 -0.3765 -0.0817
  167DOPC  H10X20321   0.967   1.535  13.336 -0.2121  2.1098  2.0130
  167DOPC  C31120322   0.785   1.477  13.221 -0.0833  1.0121  0.1668
  167DOPC  H11X20323   0.736   1.569  13.184  0.7106  1.2303 -0.3660
  167DOPC  H11Y20324   0.701   1.405  13.230  1.7294 -1.2462 -0.1589
  167DOPC  C31220325   0.863   1.436  13.103  0.2022  0.0796  0.5131
  167DOPC  H12X20326   0.918   1.340  13.109 -1.1533 -0.8387 -1.0700
  167DOPC  H12Y20327   0.933   1.520  13.082 -2.2439  1.9228 -0.7706
  167DOPC  C31320328   0.787   1.414  12.968  0.1426 -0.0344 -0.4736
  167DOPC  H13X20329   0.738   1.317  12.991  0.1175  0.5220  2.0928
  167DOPC  H13Y20330   0.710   1.491  12.946  0.7128  0.5201 -0.5483
  167DOPC  C31420331   0.861   1.390  12.836 -0.3819 -0.2026  0.2614
  167DOPC  H14X20332   0.949   1.458  12.828 -2.3041  2.4285  0.0031
  167DOPC  H14Y20333   0.894   1.284  12.838  1.2849  0.2344 -1.0249
  167DOPC  C31520334   0.769   1.412  12.724 -0.5724  0.5485  0.1413
  167DOPC  H15X20335   0.741   1.519  12.711  0.6704  0.9351  0.4807
  167DOPC  H15Y20336   0.672   1.361  12.741 -0.3601  0.3117  0.6472
  167DOPC  C31620337   0.828   1.376  12.581 -0.0802 -0.5281 -0.1943
  167DOPC  H16X20338   0.740   1.381  12.513 -2.0093  0.8098  2.1867
  167DOPC  H16Y20339   0.903   1.451  12.549 -0.1329 -1.0157 -1.4893
  167DOPC  C31720340   0.875   1.231  12.575  0.1264 -0.3987 -0.0308
  167DOPC  H17X20341   0.969   1.225  12.635  1.6847 -1.4389 -2.4141
  167DOPC  H17Y20342   0.796   1.166  12.617 -2.3426  2.3057 -0.1378
  167DOPC  C31820343   0.907   1.201  12.424 -0.2216  1.0984  0.1674
  167DOPC  H18X20344   0.956   1.104  12.407  0.9372  1.4048  1.5470
  167DOPC  H18Y20345   0.808   1.198  12.374 -0.3616 -1.4323  0.4687
  167DOPC  H18Z20346   0.971   1.283  12.385  0.9512 -0.2312 -0.7640
  168DOPC     N20347   2.535   0.539  14.041  0.2282 -0.3746  0.1639
  168DOPC   C1220348   2.653   0.459  14.008 -0.1624 -0.2091 -0.0375
  168DOPC  H12A20349   2.707   0.506  13.927 -0.8026 -0.0004 -0.3519
  168DOPC  H12B20350   2.627   0.363  13.966 -0.7018  0.3373 -1.0118
  168DOPC   C1320351   2.433   0.547  13.932  0.0078 -0.5964 -0.0667
  168DOPC  H13A20352   2.463   0.625  13.863  0.3777 -1.5457 -0.9869
  168DOPC  H13B20353   2.418   0.458  13.874 -2.3891  0.2361 -0.8608
  168DOPC  H13C20354   2.336   0.563  13.979 -0.7646 -3.3480 -0.5687
  168DOPC   C1420355   2.559   0.678  14.087 -0.0097  0.2552  0.0526
  168DOPC  H14A20356   2.469   0.737  14.094  0.9869  1.8654 -0.2466
  168DOPC  H14B20357   2.599   0.683  14.187 -1.3066  1.1191  0.5646
  168DOPC  H14C20358   2.619   0.725  14.010  0.4081 -0.7350 -0.2455
  168DOPC   C1520359   2.464   0.455  14.146 -0.0507 -0.1968 -0.2900
  168DOPC  H15A20360   2.537   0.418  14.217 -0.3980 -0.2593  0.0368
  168DOPC  H15B20361   2.416   0.368  14.103 -0.3195 -0.6332  0.8434
  168DOPC  H15C20362   2.400   0.524  14.199  1.6917  0.8629  0.5171
  168DOPC   C1120363   2.749   0.427  14.122 -0.0994 -1.0212 -0.5311
  168DOPC  H11A20364   2.711   0.361  14.203 -0.5843  0.8091  0.7946
  168DOPC  H11B20365   2.834   0.361  14.093  0.8389 -0.7027  1.3469
  168DOPC     P20366   2.914   0.626  14.084 -0.2293  0.0135  0.5966
  168DOPC   O1320367   3.028   0.661  14.175  0.2759  0.3049  0.9915
  168DOPC   O1420368   2.835   0.742  14.030  0.2837  0.3223  0.2719
  168DOPC   O1220369   2.810   0.548  14.179  0.4289  1.1375 -0.5682
  168DOPC   O1120370   2.950   0.518  13.976  0.2679 -0.5562  0.0660
  168DOPC    C120371   3.018   0.557  13.851  0.1208  0.1387 -0.1738
  168DOPC    HA20372   3.101   0.484  13.843 -0.6059 -1.3085  3.4354
  168DOPC    HB20373   3.068   0.656  13.848  2.3915 -0.8892  1.1205
  168DOPC    C220374   2.932   0.529  13.721 -0.1895  0.3000 -0.7169
  168DOPC    HS20375   2.843   0.595  13.708  0.5108  1.8032  1.5340
  168DOPC   O2120376   2.890   0.383  13.736  0.3552 -0.5715 -0.0935
  168DOPC   C2120377   2.807   0.340  13.644  0.6681  0.2649 -0.2889
  168DOPC   O2220378   2.739   0.410  13.565 -0.0755  0.1432 -0.5207
  168DOPC   C2220379   2.817   0.184  13.642 -0.0511  0.0641  0.2934
  168DOPC   H2R20380   2.751   0.161  13.728 -3.3213  0.1642 -2.0020
  168DOPC   H2S20381   2.924   0.162  13.663  0.6467  2.2087 -0.7729
  168DOPC    C320382   3.029   0.539  13.603  0.6385 -0.0461 -0.6028
  168DOPC    HX20383   2.994   0.474  13.521 -1.0340 -1.0865  0.8655
  168DOPC    HY20384   3.123   0.489  13.636  0.4162  0.4547  0.8943
  168DOPC   O3120385   3.048   0.679  13.578  0.3270 -0.0895 -0.0934
  168DOPC   C3120386   3.092   0.709  13.460 -0.1394  0.5486  0.2118
  168DOPC   O3220387   3.102   0.633  13.359  0.0810 -0.3604 -0.8361
  168DOPC   C3220388   3.157   0.852  13.477  0.0191 -0.1538 -0.0300
  168DOPC   H2X20389   3.093   0.930  13.430 -0.5245  1.2158  2.7774
  168DOPC   H2Y20390   3.166   0.872  13.586  0.9070 -0.1775 -0.0946
  168DOPC   C2320391   2.753   0.124  13.517  0.1135  0.3299  0.4522
  168DOPC   H3R20392   2.654   0.174  13.503 -0.1470 -0.0866  0.7892
  168DOPC   H3S20393   2.714   0.021  13.527 -0.4043  0.1968 -2.0625
  168DOPC   C2420394   2.828   0.132  13.385 -0.0244  0.1728 -0.9115
  168DOPC   H4R20395   2.921   0.072  13.391  0.0840  0.4800  1.4256
  168DOPC   H4S20396   2.865   0.233  13.358 -0.3501  0.9210  1.2691
  168DOPC   C2520397   2.743   0.088  13.265  0.1084 -0.7387 -0.7672
  168DOPC   H5R20398   2.671   0.169  13.244 -0.3672 -1.8195 -3.6598
  168DOPC   H5S20399   2.688  -0.007  13.279  0.1064 -0.8693 -1.6204
  168DOPC   C2620400   2.840   0.061  13.147 -0.1921  0.0328  0.0356
  168DOPC   H6R20401   2.896  -0.035  13.152 -0.2566  0.0509  1.5758
  168DOPC   H6S20402   2.922   0.135  13.142  0.4880 -0.6416  0.8419
  168DOPC   C2720403   2.773   0.051  13.011 -0.2818  0.4822  0.9398
  168DOPC   H7R20404   2.726   0.147  12.980  0.7025  0.3679 -1.0484
  168DOPC   H7S20405   2.685  -0.018  13.016 -1.4067  1.8605  0.7720
  168DOPC   C2820406   2.863   0.022  12.894  0.1673  0.3388 -0.4189
  168DOPC   H8R20407   2.967   0.022  12.932  0.3647  2.8088 -0.8498
  168DOPC   H8S20408   2.858   0.113  12.831 -2.3812  0.4696 -0.1585
  168DOPC   C2920409   2.839  -0.105  12.825 -0.4905  0.0989 -0.0805
  168DOPC   H9R20410   2.871  -0.202  12.865  1.0692 -0.7094 -3.0177
  168DOPC  C21020411   2.775  -0.121  12.713 -0.9409  0.1844 -0.1517
  168DOPC  H10R20412   2.740  -0.225  12.697 -1.0344  0.1877  0.0340
  168DOPC  C21120413   2.700  -0.011  12.638 -0.2159  0.2960 -0.0419
  168DOPC  H11R20414   2.705   0.080  12.702  1.7644 -0.7195  1.3582
  168DOPC  H11S20415   2.592  -0.031  12.622 -0.6381  2.7271 -0.6453
  168DOPC  C21220416   2.757   0.029  12.499  0.8794 -0.1933  0.4887
  168DOPC  H12R20417   2.856   0.078  12.493  1.6356 -1.6919  0.3664
  168DOPC  H12S20418   2.681   0.094  12.450  0.6789 -0.7992 -0.0209
  168DOPC  C21320419   2.749  -0.082  12.392 -0.3656  0.4180  0.7602
  168DOPC  H13R20420   2.650  -0.132  12.383 -1.0136  1.7714 -0.0236
  168DOPC  H13S20421   2.819  -0.159  12.430 -0.4592 -0.7366 -1.2684
  168DOPC  C21420422   2.793  -0.030  12.264  0.3970 -0.1017 -0.0949
  168DOPC  H14R20423   2.894   0.016  12.270 -0.2681  1.2770  1.0257
  168DOPC  H14S20424   2.727   0.054  12.233  0.1846 -0.4312 -0.5585
  168DOPC  C21520425   2.778  -0.128  12.153 -0.0088  0.3195  0.1502
  168DOPC  H15R20426   2.673  -0.166  12.151 -0.7222  2.1872 -1.6628
  168DOPC  H15S20427   2.846  -0.213  12.174 -1.7539 -1.3329 -0.5242
  168DOPC  C21620428   2.817  -0.071  12.017 -0.0195  0.2626 -0.1857
  168DOPC  H16R20429   2.899  -0.001  12.045  2.1184 -2.6555  1.3841
  168DOPC  H16S20430   2.734  -0.007  11.980 -1.6444 -1.8389 -0.4121
  168DOPC  C21720431   2.844  -0.170  11.908 -0.5994 -0.0352  0.0159
  168DOPC  H17R20432   2.857  -0.120  11.810 -1.8161 -1.6133 -1.0053
  168DOPC  H17S20433   2.754  -0.234  11.892  0.8342 -1.6517 -2.2906
  168DOPC  C21820434   2.976  -0.249  11.924 -0.3107 -0.1990  0.2913
  168DOPC  H18R20435   2.966  -0.323  12.006  0.1740 -0.0788  0.4616
  168DOPC  H18S20436   3.060  -0.182  11.951  1.1838 -2.4107  1.4462
  168DOPC  H18T20437   3.006  -0.294  11.827 -2.0647  0.1964 -0.4832
  168DOPC   C3320438   3.289   0.843  13.393 -0.0860  0.6344 -0.1815
  168DOPC   H3X20439   3.324   0.738  13.390  1.0209  0.9706  0.4365
  168DOPC   H3Y20440   3.368   0.903  13.443 -0.6277  2.5210 -1.4400
  168DOPC   C3420441   3.284   0.898  13.249  0.0088 -0.2754  0.1703
  168DOPC   H4X20442   3.252   1.004  13.251 -0.4216 -0.2895 -2.2591
  168DOPC   H4Y20443   3.220   0.835  13.183  2.6427 -0.2495 -2.6006
  168DOPC   C3520444   3.414   0.899  13.177  0.6412  0.2743  0.1116
  168DOPC   H5X20445   3.443   0.793  13.159  0.8123  0.5658 -1.4803
  168DOPC   H5Y20446   3.495   0.949  13.234  0.0654  1.1227  0.2015
  168DOPC   C3620447   3.409   0.972  13.046 -0.7122 -0.6336  1.0585
  168DOPC   H6X20448   3.353   0.911  12.971 -0.1746  0.4633 -0.2844
  168DOPC   H6Y20449   3.361   1.073  13.044 -0.0451 -0.3169  0.6086
  168DOPC   C3720450   3.543   0.981  12.962  0.1967  0.2940  0.5882
  168DOPC   H7X20451   3.611   1.051  13.014 -1.2633  0.3450  2.5614
  168DOPC   H7Y20452   3.602   0.887  12.967  1.0235  0.8119  0.7515
  168DOPC   C3820453   3.519   1.026  12.815 -0.6470  0.4103 -0.1962
  168DOPC   H8X20454   3.472   1.126  12.818 -1.6444 -0.0378 -0.3379
  168DOPC   H8Y20455   3.445   0.962  12.761 -1.0055  0.7106 -0.0657
  168DOPC   C3920456   3.650   1.027  12.739  0.6318  0.2834  0.1448
  168DOPC   H9X20457   3.738   1.049  12.802 -1.1920 -1.5602  3.6602
  168DOPC  C31020458   3.663   1.045  12.604  0.1780 -0.2519  0.0597
  168DOPC  H10X20459   3.764   1.058  12.563  0.3782 -0.0404  0.6130
  168DOPC  C31120460   3.546   1.039  12.507 -0.5026 -0.6643  0.1696
  168DOPC  H11X20461   3.532   1.143  12.471  0.0403  0.4836  2.9765
  168DOPC  H11Y20462   3.449   1.029  12.561 -1.3717  0.4807 -1.1317
  168DOPC  C31220463   3.572   0.929  12.396 -0.2551  0.0146 -0.5850
  168DOPC  H12X20464   3.586   0.839  12.460  0.6390  0.0738 -0.6855
  168DOPC  H12Y20465   3.664   0.956  12.338 -0.3890 -1.2038 -1.4169
  168DOPC  C31320466   3.448   0.905  12.302 -0.5650  0.3446  0.3647
  168DOPC  H13X20467   3.368   0.854  12.361 -0.4647  0.4372  0.5849
  168DOPC  H13Y20468   3.412   0.995  12.250 -0.4717 -0.3236 -0.8823
  168DOPC  C31420469   3.491   0.794  12.206  0.7554 -0.4543  0.2447
  168DOPC  H14X20470   3.574   0.825  12.139  0.6748 -1.5114 -0.3670
  168DOPC  H14Y20471   3.529   0.711  12.269 -0.1407 -0.5277  0.7018
  168DOPC  C31520472   3.369   0.753  12.119 -0.4774 -0.0269 -0.5418
  168DOPC  H15X20473   3.339   0.843  12.062 -1.8287 -0.8934 -1.2630
  168DOPC  H15Y20474   3.288   0.711  12.183  3.3906 -2.0195  3.6195
  168DOPC  C31620475   3.413   0.653  12.012 -0.0549  0.3749 -0.1584
  168DOPC  H16X20476   3.496   0.697  11.953 -0.3749  1.1285 -0.0676
  168DOPC  H16Y20477   3.445   0.556  12.056  2.0596 -0.5837 -3.4938
  168DOPC  C31720478   3.300   0.633  11.910  0.3028 -0.0576 -0.3708
  168DOPC  H17X20479   3.208   0.594  11.960 -0.7022 -0.1608 -2.2291
  168DOPC  H17Y20480   3.263   0.724  11.859 -0.0377 -2.3930 -4.7286
  168DOPC  C31820481   3.345   0.533  11.804  0.2427 -0.2340 -0.2560
  168DOPC  H18X20482   3.273   0.522  11.721  1.2385 -1.9596 -0.9518
  168DOPC  H18Y20483   3.448   0.559  11.771  0.6111 -2.1065 -0.6967
  168DOPC  H18Z20484   3.346   0.435  11.856 -2.0434  1.7022  3.9499
  169DOPC     N20485   2.195   1.404  14.659 -0.0525  0.1757 -0.8046
  169DOPC   C1220486   2.154   1.516  14.560  0.1414  0.6510 -0.0589
  169DOPC  H12A20487   2.132   1.602  14.620 -3.9495 -0.6182  0.5783
  169DOPC  H12B20488   2.056   1.497  14.518  0.4186 -0.5270 -0.2290
  169DOPC   C1320489   2.205   1.268  14.596  0.1885  0.0514  0.1769
  169DOPC  H13A20490   2.254   1.193  14.657 -0.8095 -1.4030 -0.7529
  169DOPC  H13B20491   2.104   1.236  14.576 -0.6086  1.5566  1.5422
  169DOPC  H13C20492   2.254   1.287  14.502  0.6119  0.6002  0.5016
  169DOPC   C1420493   2.090   1.397  14.766  0.9354 -0.5529  0.3104
  169DOPC  H14A20494   2.077   1.493  14.814 -0.9315 -0.2680 -0.6521
  169DOPC  H14B20495   1.993   1.392  14.719  1.3792  0.1576 -0.7210
  169DOPC  H14C20496   2.089   1.314  14.835  1.3893 -1.3122 -0.5780
  169DOPC   C1520497   2.326   1.433  14.721  0.3249 -0.9159  0.0007
  169DOPC  H15A20498   2.398   1.439  14.640 -1.8482 -1.1306 -2.0496
  169DOPC  H15B20499   2.363   1.378  14.806  0.8519 -0.7894 -0.1444
  169DOPC  H15C20500   2.315   1.531  14.764 -2.0061 -1.0347 -0.1906
  169DOPC   C1120501   2.255   1.538  14.433 -0.0125 -0.2334 -0.7044
  169DOPC  H11A20502   2.207   1.608  14.362 -0.3349 -0.0387 -0.2983
  169DOPC  H11B20503   2.350   1.588  14.462  1.3210 -2.7948 -0.3283
  169DOPC     P20504   2.209   1.388  14.233  0.1824 -0.2007  0.4226
  169DOPC   O1320505   2.066   1.416  14.250  0.3672 -0.4132  0.3426
  169DOPC   O1420506   2.255   1.257  14.184 -0.1736 -1.0181 -0.3485
  169DOPC   O1220507   2.280   1.417  14.360 -0.0260  1.2982 -0.2463
  169DOPC   O1120508   2.264   1.499  14.127 -0.0623  0.0550 -0.5461
  169DOPC    C120509   2.403   1.508  14.074  0.0644  0.1986 -0.0936
  169DOPC    HA20510   2.465   1.420  14.103 -0.8282 -0.2382  0.5414
  169DOPC    HB20511   2.460   1.593  14.115  1.3201  0.6976 -2.6821
  169DOPC    C220512   2.415   1.507  13.921  0.3520 -0.2344 -0.5876
  169DOPC    HS20513   2.513   1.463  13.891  0.7111  0.8048 -0.9860
  169DOPC   O2120514   2.400   1.640  13.867  0.2193  0.1668  0.4035
  169DOPC   C2120515   2.507   1.720  13.887  0.1096 -0.4321 -0.5596
  169DOPC   O2220516   2.614   1.680  13.926  0.2771  0.4199 -0.6247
  169DOPC   C2220517   2.465   1.866  13.875  0.4438 -0.0513  0.0001
  169DOPC   H2R20518   2.487   1.914  13.973 -1.9103  0.3669  0.3720
  169DOPC   H2S20519   2.357   1.890  13.874  1.1072  3.6481  0.8016
  169DOPC    C320520   2.314   1.406  13.859  0.6466 -0.5784  0.6777
  169DOPC    HX20521   2.205   1.419  13.879  0.4220 -1.5257  0.1419
  169DOPC    HY20522   2.342   1.305  13.897  0.2092 -0.4530  1.3528
  169DOPC   O3120523   2.342   1.396  13.713 -0.1398 -0.1031  0.3872
  169DOPC   C3120524   2.274   1.488  13.643  0.3554 -0.6875  0.1452
  169DOPC   O3220525   2.181   1.556  13.678 -0.5821  0.1445  0.4339
  169DOPC   C3220526   2.345   1.490  13.505  0.4700  0.3808 -0.3174
  169DOPC   H2X20527   2.431   1.560  13.511  1.7349 -1.2380  3.2814
  169DOPC   H2Y20528   2.377   1.385  13.486  2.2276  0.3392  2.3829
  169DOPC   C2320529   2.528   1.922  13.741 -0.7299  0.7079 -0.5275
  169DOPC   H3R20530   2.632   1.885  13.728 -2.0353 -3.3179 -1.0484
  169DOPC   H3S20531   2.531   2.033  13.747 -0.4479  0.6354  1.2338
  169DOPC   C2420532   2.448   1.877  13.618 -0.1924 -0.0449  0.1531
  169DOPC   H4R20533   2.339   1.885  13.639 -0.0594  0.8322  0.5187
  169DOPC   H4S20534   2.457   1.769  13.592 -1.4388 -0.4869  1.4373
  169DOPC   C2520535   2.497   1.953  13.495  0.3507  0.3390  0.0187
  169DOPC   H5R20536   2.605   1.935  13.476  0.2060  0.8588 -1.4444
  169DOPC   H5S20537   2.479   2.063  13.502  0.0244  0.2629  0.4365
  169DOPC   C2620538   2.422   1.904  13.370  0.3880  0.3557  0.1152
  169DOPC   H6R20539   2.317   1.938  13.372 -0.3191 -1.4054 -1.9062
  169DOPC   H6S20540   2.426   1.793  13.370 -0.6444  0.3173  0.5595
  169DOPC   C2720541   2.492   1.950  13.237  0.0959  0.1808  0.1754
  169DOPC   H7R20542   2.595   1.908  13.235 -0.7704 -2.0802  0.0350
  169DOPC   H7S20543   2.508   2.060  13.237  1.9746 -0.0634  1.0381
  169DOPC   C2820544   2.421   1.904  13.109 -0.4449 -0.4740 -0.2533
  169DOPC   H8R20545   2.402   1.794  13.114 -3.7210 -0.0348 -0.9049
  169DOPC   H8S20546   2.487   1.927  13.023 -1.4577  1.3645 -0.5823
  169DOPC   C2920547   2.288   1.981  13.101  0.2134 -0.1768  0.2738
  169DOPC   H9R20548   2.256   2.025  13.196  1.2056  1.5768 -0.1524
  169DOPC  C21020549   2.199   1.983  12.997  0.6203  0.6384  0.5464
  169DOPC  H10R20550   2.109   2.045  13.006  0.0112 -0.2112  0.5201
  169DOPC  C21120551   2.208   1.903  12.866  0.7278  0.1881 -0.0103
  169DOPC  H11R20552   2.298   1.839  12.858  1.2644  1.0142 -0.8822
  169DOPC  H11S20553   2.225   1.970  12.778 -0.8462 -0.6980 -1.0366
  169DOPC  C21220554   2.091   1.812  12.833  0.6779  0.1794 -0.3015
  169DOPC  H12R20555   1.997   1.871  12.841  1.7036  1.7909  0.3514
  169DOPC  H12S20556   2.074   1.730  12.906 -2.6583 -1.2257 -2.3994
  169DOPC  C21320557   2.103   1.767  12.685  0.3068  0.2260 -0.0806
  169DOPC  H13R20558   2.194   1.705  12.689 -1.0605 -2.1837 -2.6559
  169DOPC  H13S20559   2.118   1.864  12.633  1.0727  0.5110  0.6530
  169DOPC  C21420560   1.990   1.688  12.637  0.3635  0.3793 -0.0817
  169DOPC  H14R20561   1.896   1.747  12.634 -0.3588 -0.6313  1.3661
  169DOPC  H14S20562   1.968   1.602  12.704  0.6705  2.1615  2.4653
  169DOPC  C21520563   2.021   1.629  12.504  0.2035  0.1179  1.6392
  169DOPC  H15R20564   2.122   1.584  12.496  0.5189  1.1177 -0.9389
  169DOPC  H15S20565   2.012   1.717  12.436  1.1082 -0.3617  0.8805
  169DOPC  C21620566   1.923   1.518  12.451 -0.3019  0.2403 -0.9052
  169DOPC  H16R20567   1.817   1.549  12.469 -0.2775 -0.5909  0.8516
  169DOPC  H16S20568   1.939   1.432  12.518 -0.9333  1.4400  0.8706
  169DOPC  C21720569   1.950   1.482  12.307 -0.6236  0.0019 -0.1590
  169DOPC  H17R20570   2.058   1.455  12.305  0.4456  3.7477 -0.1257
  169DOPC  H17S20571   1.948   1.571  12.241  0.4232  0.7135  0.7259
  169DOPC  C21820572   1.860   1.378  12.248 -0.0517 -0.0827 -0.0251
  169DOPC  H18R20573   1.761   1.422  12.221  0.3406  0.1334 -1.1890
  169DOPC  H18S20574   1.849   1.290  12.314  0.1503  1.8118  2.6604
  169DOPC  H18T20575   1.899   1.331  12.155  1.2300 -0.6975  0.7988
  169DOPC   C3320576   2.242   1.539  13.390 -0.2390  0.4569 -0.4214
  169DOPC   H3X20577   2.206   1.638  13.423 -1.9386 -0.3453  0.2414
  169DOPC   H3Y20578   2.147   1.482  13.398  0.6668 -1.3287 -1.6665
  169DOPC   C3420579   2.304   1.518  13.249 -0.2021  0.0660 -0.3739
  169DOPC   H4X20580   2.408   1.557  13.245 -0.6743  1.4498  0.4446
  169DOPC   H4Y20581   2.235   1.583  13.192 -1.7850  0.2879  1.6873
  169DOPC   C3520582   2.319   1.376  13.191 -0.1461 -0.5485 -0.7272
  169DOPC   H5X20583   2.227   1.314  13.195 -0.5977  0.1442 -0.1316
  169DOPC   H5Y20584   2.396   1.321  13.250 -1.7099 -0.1750  1.8499
  169DOPC   C3620585   2.368   1.386  13.044 -0.5372  0.5435 -0.1554
  169DOPC   H6X20586   2.282   1.426  12.985 -0.6815 -1.1042 -1.1317
  169DOPC   H6Y20587   2.451   1.459  13.043  0.8791 -0.9798  0.5794
  169DOPC   C3720588   2.405   1.246  12.985  0.2413  0.4632 -0.1647
  169DOPC   H7X20589   2.487   1.201  13.044 -0.1378 -0.3268 -0.2254
  169DOPC   H7Y20590   2.319   1.176  12.993  0.4224  0.2127 -0.4137
  169DOPC   C3820591   2.439   1.251  12.836  0.3344 -0.1909  0.0681
  169DOPC   H8X20592   2.475   1.150  12.810 -3.4411 -1.2452 -1.8169
  169DOPC   H8Y20593   2.531   1.312  12.825  0.6520 -0.5056  0.9145
  169DOPC   C3920594   2.336   1.296  12.742 -0.5579  0.5693 -0.1292
  169DOPC   H9X20595   2.322   1.404  12.755  0.0034  0.3730  2.5253
  169DOPC  C31020596   2.295   1.233  12.630  0.7012  0.4393  0.0413
  169DOPC  H10X20597   2.225   1.278  12.558  0.2243  0.7436  0.6806
  169DOPC  C31120598   2.341   1.089  12.593 -0.4301  0.1792  0.4915
  169DOPC  H11X20599   2.267   1.053  12.519  0.8925  1.5897 -1.6223
  169DOPC  H11Y20600   2.362   1.023  12.680 -2.0703 -0.4300  0.4516
  169DOPC  C31220601   2.473   1.093  12.506 -0.4233 -0.1105  0.7017
  169DOPC  H12X20602   2.523   0.994  12.498 -0.9986 -0.3091 -0.7803
  169DOPC  H12Y20603   2.547   1.172  12.532  1.1974 -0.8338 -1.4146
  169DOPC  C31320604   2.419   1.135  12.360 -0.0969  0.1019  0.1317
  169DOPC  H13X20605   2.327   1.197  12.360 -0.4218 -0.3060 -2.4338
  169DOPC  H13Y20606   2.495   1.186  12.298 -1.6831  1.3140 -0.8668
  169DOPC  C31420607   2.380   1.012  12.272 -0.3176  0.4412 -0.5219
  169DOPC  H14X20608   2.472   0.952  12.254 -2.4054 -3.0294 -0.6433
  169DOPC  H14Y20609   2.314   0.939  12.324  1.3321 -0.8677 -0.1835
  169DOPC  C31520610   2.314   1.072  12.146 -0.3069  0.2904 -0.5447
  169DOPC  H15X20611   2.387   1.144  12.105  1.2047  1.5225  3.8010
  169DOPC  H15Y20612   2.226   1.130  12.179  0.1510  0.1882  0.9592
  169DOPC  C31620613   2.279   0.955  12.056  0.2904 -0.1263  0.9389
  169DOPC  H16X20614   2.368   0.889  12.049  1.2868  1.2219  0.4701
  169DOPC  H16Y20615   2.198   0.894  12.101  1.4848 -1.0825  1.8286
  169DOPC  C31720616   2.239   1.005  11.912  0.0994  0.6026  0.1353
  169DOPC  H17X20617   2.155   1.075  11.932 -0.3706 -0.2045  1.0567
  169DOPC  H17Y20618   2.320   1.060  11.859  0.5467 -1.7338 -1.7738
  169DOPC  C31820619   2.181   0.891  11.828 -0.0159 -0.0686  0.2714
  169DOPC  H18X20620   2.103   0.828  11.878  0.6433 -0.5990  0.6648
  169DOPC  H18Y20621   2.128   0.934  11.741  2.6079 -0.7241 -1.7745
  169DOPC  H18Z20622   2.263   0.822  11.797 -0.5058 -0.4750 -0.1257
  170DOPC     N20623   1.767   6.642  14.508 -0.4859 -0.5210  0.0194
  170DOPC   C1220624   1.895   6.691  14.443 -0.4299  0.2644 -0.1537
  170DOPC  H12A20625   1.919   6.627  14.359  1.4242  1.1826 -0.3721
  170DOPC  H12B20626   1.975   6.681  14.514  1.2127 -2.2654 -2.1576
  170DOPC   C1320627   1.722   6.750  14.598  0.3733 -0.0768  0.1990
  170DOPC  H13A20628   1.635   6.719  14.655  0.8136  0.0256  0.9338
  170DOPC  H13B20629   1.800   6.763  14.672 -0.3083 -1.5275  1.2279
  170DOPC  H13C20630   1.709   6.844  14.546  1.0235  0.0165  0.2069
  170DOPC   C1420631   1.788   6.517  14.586  0.0765 -0.0919  0.1711
  170DOPC  H14A20632   1.834   6.544  14.680 -2.1573  2.9831  0.5216
  170DOPC  H14B20633   1.698   6.462  14.610  0.6707 -1.8341 -1.3106
  170DOPC  H14C20634   1.847   6.444  14.532  2.3895  0.7278  1.4413
  170DOPC   C1520635   1.668   6.613  14.396 -0.7527  0.0818 -0.5071
  170DOPC  H15A20636   1.657   6.702  14.336  0.9713 -0.0599 -1.0796
  170DOPC  H15B20637   1.575   6.584  14.442  0.0290 -0.3788  0.8498
  170DOPC  H15C20638   1.704   6.539  14.326 -0.9640 -1.6686  1.1411
  170DOPC   C1120639   1.894   6.831  14.376 -0.2659  0.9777  0.4696
  170DOPC  H11A20640   1.914   6.909  14.452 -3.3219  1.2677  1.1079
  170DOPC  H11B20641   1.967   6.841  14.294 -0.1740  0.9689  0.5502
  170DOPC     P20642   1.706   7.000  14.280 -0.0746  0.2530 -0.0312
  170DOPC   O1320643   1.802   7.088  14.211 -0.3495 -0.0056 -0.2696
  170DOPC   O1420644   1.661   7.048  14.415 -0.8278  0.1343 -0.1900
  170DOPC   O1220645   1.770   6.858  14.300 -0.2485 -0.1968  0.0395
  170DOPC   O1120646   1.589   6.977  14.182 -0.2547  0.2224 -0.2326
  170DOPC    C120647   1.580   6.867  14.088  0.0997  0.2207 -0.4227
  170DOPC    HA20648   1.473   6.836  14.079  0.1286  0.0868 -0.3129
  170DOPC    HB20649   1.626   6.778  14.136 -0.6759 -0.0773 -0.2063
  170DOPC    C220650   1.649   6.895  13.954 -0.8005  0.8391 -0.1107
  170DOPC    HS20651   1.747   6.943  13.974 -0.7650  0.6837  0.0828
  170DOPC   O2120652   1.572   6.990  13.874 -0.4038  0.5342  0.2031
  170DOPC   C2120653   1.644   7.069  13.785  0.3719  0.2283 -0.4183
  170DOPC   O2220654   1.756   7.053  13.750 -0.0989  0.0747 -0.1264
  170DOPC   C2220655   1.547   7.180  13.739 -0.2462  0.1466  0.2171
  170DOPC   H2R20656   1.573   7.265  13.805  0.2927  0.2430 -0.1179
  170DOPC   H2S20657   1.438   7.157  13.745 -0.6957  1.0879 -2.7166
  170DOPC    C320658   1.667   6.761  13.870 -0.6780 -0.1764 -0.0063
  170DOPC    HX20659   1.568   6.728  13.832 -0.5377 -2.0903  1.1601
  170DOPC    HY20660   1.698   6.681  13.942 -0.6737 -0.2794 -0.1207
  170DOPC   O3120661   1.770   6.767  13.768  0.0623  0.2499 -0.3803
  170DOPC   C3120662   1.723   6.768  13.637  0.2356  0.0521 -0.1228
  170DOPC   O3220663   1.607   6.774  13.599  0.1123 -0.1099  0.0572
  170DOPC   C3220664   1.845   6.748  13.553  0.8625  0.2214  0.1198
  170DOPC   H2X20665   1.921   6.826  13.571  0.1978  1.0651 -0.6280
  170DOPC   H2Y20666   1.884   6.644  13.554 -1.3811 -0.8371 -3.3150
  170DOPC   C2320667   1.580   7.225  13.593  0.3202 -0.0354  0.0013
  170DOPC   H3R20668   1.682   7.268  13.581  0.8232 -1.5237 -1.4823
  170DOPC   H3S20669   1.499   7.298  13.577  0.2167  0.3725  2.1173
  170DOPC   C2420670   1.558   7.118  13.484 -0.0583  0.2127  0.3526
  170DOPC   H4R20671   1.455   7.075  13.486  0.8265 -2.0411  1.1058
  170DOPC   H4S20672   1.640   7.046  13.502 -0.4738  0.0554  1.7404
  170DOPC   C2520673   1.576   7.181  13.344  0.1025 -0.3114 -0.1328
  170DOPC   H5R20674   1.676   7.230  13.334 -0.0318 -0.2575 -1.4490
  170DOPC   H5S20675   1.514   7.270  13.322  1.3759  0.3462 -1.2418
  170DOPC   C2620676   1.549   7.076  13.236 -0.5129  0.6292 -0.1210
  170DOPC   H6R20677   1.444   7.041  13.246 -0.5761  0.7019 -0.4992
  170DOPC   H6S20678   1.616   6.989  13.252  0.9538  1.7173 -0.1544
  170DOPC   C2720679   1.568   7.124  13.094 -0.0901 -0.1965 -0.1293
  170DOPC   H7R20680   1.672   7.162  13.078  0.9049 -2.8505 -0.5659
  170DOPC   H7S20681   1.501   7.210  13.071  0.3405  1.3883  3.7880
  170DOPC   C2820682   1.541   7.007  12.995 -0.1314 -0.1410  0.2008
  170DOPC   H8R20683   1.600   6.918  13.025 -0.1234 -0.6524 -1.2292
  170DOPC   H8S20684   1.581   7.031  12.894 -0.6694 -1.0549 -0.2470
  170DOPC   C2920685   1.398   6.960  12.982 -0.2465 -0.5629  0.1940
  170DOPC   H9R20686   1.353   6.917  13.073  0.8187 -0.6717  0.6816
  170DOPC  C21020687   1.318   6.980  12.874  0.1679  0.8030 -0.0285
  170DOPC  H10R20688   1.211   6.956  12.885  0.7247 -2.1116 -0.3566
  170DOPC  C21120689   1.359   7.033  12.744  0.2282  0.0712  0.2399
  170DOPC  H11R20690   1.418   7.127  12.756  0.2691  0.0770  0.0063
  170DOPC  H11S20691   1.271   7.073  12.690  2.4288  2.7642 -1.6256
  170DOPC  C21220692   1.444   6.943  12.651 -0.2802 -0.5421 -0.5067
  170DOPC  H12R20693   1.426   6.835  12.665 -1.1375 -0.4219 -0.6328
  170DOPC  H12S20694   1.552   6.951  12.676 -0.7111  1.4051  0.9794
  170DOPC  C21320695   1.418   6.979  12.505  0.7720 -0.1120 -0.0247
  170DOPC  H13R20696   1.423   7.089  12.490 -1.0989  0.5963  3.3546
  170DOPC  H13S20697   1.313   6.948  12.483  0.6537  0.4904 -0.3275
  170DOPC  C21420698   1.496   6.901  12.404  0.0147  0.2680 -0.3658
  170DOPC  H14R20699   1.506   6.796  12.439  0.6782  0.7358  0.9051
  170DOPC  H14S20700   1.595   6.951  12.400  0.2865 -0.2068  0.2921
  170DOPC  C21520701   1.450   6.921  12.256  0.5228  0.3477 -0.0167
  170DOPC  H15R20702   1.458   7.028  12.227 -1.1254  0.4962 -0.0182
  170DOPC  H15S20703   1.340   6.910  12.247  0.6681  0.0441 -1.8701
  170DOPC  C21620704   1.531   6.839  12.158 -0.1545  0.4573  0.0905
  170DOPC  H16R20705   1.639   6.865  12.161  0.0979 -0.3278 -1.3256
  170DOPC  H16S20706   1.503   6.868  12.054  1.9681  1.1848 -0.3280
  170DOPC  C21720707   1.513   6.689  12.161  0.1496  0.5113 -0.1787
  170DOPC  H17R20708   1.408   6.652  12.161  0.2847  0.0087  1.6518
  170DOPC  H17S20709   1.562   6.663  12.257  1.6453  1.5539 -0.6303
  170DOPC  C21820710   1.593   6.615  12.051  0.0616  0.1734 -0.1975
  170DOPC  H18R20711   1.700   6.643  12.054  0.7828 -2.2911 -0.1754
  170DOPC  H18S20712   1.552   6.646  11.952 -0.3392  0.0473 -0.0745
  170DOPC  H18T20713   1.589   6.504  12.055  1.7471  0.0512 -1.1090
  170DOPC   C3320714   1.817   6.773  13.400 -0.1243 -0.4907 -0.4814
  170DOPC   H3X20715   1.808   6.882  13.378 -2.2254 -0.7451 -1.1253
  170DOPC   H3Y20716   1.720   6.734  13.364  0.1941 -1.8587  0.0650
  170DOPC   C3420717   1.929   6.714  13.313  0.7277 -0.6200  0.1507
  170DOPC   H4X20718   1.961   6.614  13.349  0.7145 -1.2179 -1.4271
  170DOPC   H4Y20719   2.021   6.776  13.314 -0.4210  1.1464  0.9644
  170DOPC   C3520720   1.900   6.717  13.161 -0.0898  0.0648 -0.7741
  170DOPC   H5X20721   1.994   6.702  13.104  0.2384 -2.7224  0.3556
  170DOPC   H5Y20722   1.862   6.819  13.137 -1.2187  0.0571  0.7686
  170DOPC   C3620723   1.809   6.602  13.122  1.0337 -0.8397 -0.6447
  170DOPC   H6X20724   1.715   6.611  13.179  1.6480 -0.7171  0.3684
  170DOPC   H6Y20725   1.780   6.621  13.016  0.2488  1.9527 -0.0036
  170DOPC   C3720726   1.853   6.461  13.137 -0.2338 -0.1835  0.0447
  170DOPC   H7X20727   1.870   6.438  13.244 -0.2754 -0.1034  0.0688
  170DOPC   H7Y20728   1.779   6.390  13.092  1.2051 -0.7039 -1.6037
  170DOPC   C3820729   1.984   6.447  13.058 -0.1049 -0.1798  0.2307
  170DOPC   H8X20730   2.075   6.493  13.104 -0.4556  0.7529  0.0179
  170DOPC   H8Y20731   1.979   6.506  12.964 -0.8260 -3.5193 -2.0009
  170DOPC   C3920732   2.018   6.306  13.018 -0.2392 -0.2845 -0.0126
  170DOPC   H9X20733   2.066   6.240  13.091  0.3956 -1.4380 -1.4347
  170DOPC  C31020734   1.994   6.245  12.899  0.1386  0.2122  0.2904
  170DOPC  H10X20735   2.030   6.141  12.889 -1.5269 -0.5355  1.5702
  170DOPC  C31120736   1.940   6.315  12.775  0.7336  0.5367 -0.1946
  170DOPC  H11X20737   2.008   6.284  12.692  3.3857  1.1627  1.6058
  170DOPC  H11Y20738   1.930   6.426  12.777 -0.2263  0.5958  5.0556
  170DOPC  C31220739   1.793   6.267  12.755  0.2466 -0.1796  0.1328
  170DOPC  H12X20740   1.747   6.343  12.688  3.1686  2.3643  0.7730
  170DOPC  H12Y20741   1.739   6.274  12.851 -0.0060 -0.0046 -0.0214
  170DOPC  C31320742   1.783   6.124  12.688  0.7485 -0.0244  0.8856
  170DOPC  H13X20743   1.825   6.047  12.756 -0.4473  0.2581  1.9847
  170DOPC  H13Y20744   1.677   6.092  12.677  0.7369  0.8357 -2.5317
  170DOPC  C31420745   1.849   6.109  12.550 -0.0329 -0.7409  0.0008
  170DOPC  H14X20746   1.786   6.166  12.478  1.4105  0.7574 -0.1424
  170DOPC  H14Y20747   1.947   6.161  12.555 -0.1827 -0.5400  0.9300
  170DOPC  C31520748   1.865   5.968  12.506 -0.0195 -0.0499  0.3484
  170DOPC  H15X20749   1.847   5.959  12.397  4.5373  2.2532 -0.8130
  170DOPC  H15Y20750   1.796   5.895  12.555  0.7864 -1.1224 -0.0615
  170DOPC  C31620751   2.001   5.922  12.549 -0.1948  0.2299  0.5153
  170DOPC  H16X20752   2.077   6.002  12.538 -0.6822  1.0043  2.4383
  170DOPC  H16Y20753   1.986   5.892  12.655 -1.3826 -1.5634 -0.1072
  170DOPC  C31720754   2.054   5.796  12.471 -0.2694  0.5830 -0.6940
  170DOPC  H17X20755   2.145   5.774  12.531 -0.7152  1.4446  0.3220
  170DOPC  H17Y20756   1.989   5.706  12.462  0.8904 -0.3614 -0.0379
  170DOPC  C31820757   2.099   5.836  12.335  0.0436  1.1126  0.1507
  170DOPC  H18X20758   2.014   5.866  12.271 -0.4929  1.9617  1.2246
  170DOPC  H18Y20759   2.174   5.918  12.343  1.5027 -0.2874  1.7352
  170DOPC  H18Z20760   2.140   5.755  12.270 -3.2772  0.9284 -1.9459
  171DOPC     N20761   4.713   3.367   9.878  0.8652  0.0337  1.4842
  171DOPC   C1220762   4.806   3.360   9.998  0.0755 -0.2933 -0.1344
  171DOPC  H12A20763   4.765   3.294  10.073  1.2714 -1.7436 -0.7155
  171DOPC  H12B20764   4.815   3.460  10.037  2.8193 -0.2496 -0.6808
  171DOPC   C1320765   4.581   3.412   9.923  0.8397 -0.2878 -0.1402
  171DOPC  H13A20766   4.544   3.356  10.008  2.7884  0.1190  1.0573
  171DOPC  H13B20767   4.593   3.513   9.960  0.7631  0.4021 -1.9219
  171DOPC  H13C20768   4.506   3.418   9.846  0.1010 -0.1011  0.5756
  171DOPC   C1420769   4.690   3.236   9.815 -0.1433 -0.7339  0.2649
  171DOPC  H14A20770   4.786   3.205   9.775 -0.1342  0.1650 -0.4330
  171DOPC  H14B20771   4.658   3.171   9.896  0.8371  1.3982  2.4792
  171DOPC  H14C20772   4.614   3.235   9.739  1.3522 -0.3061 -1.3020
  171DOPC   C1520773   4.759   3.455   9.765  0.0938 -0.5635 -0.6441
  171DOPC  H15A20774   4.777   3.554   9.805 -0.0868  0.5465 -3.0981
  171DOPC  H15B20775   4.685   3.450   9.687 -0.6822 -1.1111  0.1061
  171DOPC  H15C20776   4.855   3.426   9.724 -0.3868 -0.5205 -1.8283
  171DOPC   C1120777   4.947   3.302   9.985  0.2341 -0.1486  0.5469
  171DOPC  H11A20778   5.003   3.358   9.906 -0.1303 -0.2106  0.2422
  171DOPC  H11B20779   5.006   3.344  10.069 -0.6618 -0.0166  1.1249
  171DOPC     P20780   4.979   3.077  10.124 -0.3264  0.1886  0.0687
  171DOPC   O1320781   5.110   3.112  10.179 -0.1785 -0.3788 -0.4183
  171DOPC   O1420782   4.949   2.931  10.122 -0.5319  0.0751  0.0719
  171DOPC   O1220783   4.958   3.161   9.989  0.5946 -0.2563  0.6021
  171DOPC   O1120784   4.865   3.140  10.217 -0.2663 -0.0501  0.1247
  171DOPC    C120785   4.896   3.221  10.328 -0.0999  0.1946  0.2483
  171DOPC    HA20786   4.841   3.317  10.335 -1.3270 -0.3747 -1.0199
  171DOPC    HB20787   5.005   3.243  10.339 -0.1627  0.3700  0.5285
  171DOPC    C220788   4.831   3.146  10.456 -0.5247 -0.1548 -0.0195
  171DOPC    HS20789   4.912   3.075  10.485  0.8767  1.5561  0.4025
  171DOPC   O2120790   4.695   3.091  10.427  0.1333  0.0027 -0.3256
  171DOPC   C2120791   4.679   2.962  10.458 -0.7253 -0.0172 -0.6476
  171DOPC   O2220792   4.764   2.892  10.499  0.0889 -0.0076 -0.6322
  171DOPC   C2220793   4.534   2.930  10.442 -0.5353 -0.1268 -1.2863
  171DOPC   H2R20794   4.523   2.864  10.353 -2.0809 -0.3621 -0.9570
  171DOPC   H2S20795   4.469   3.018  10.422  1.3143  1.3115 -1.2044
  171DOPC    C320796   4.820   3.248  10.572  0.5677  1.0718 -0.5302
  171DOPC    HX20797   4.753   3.332  10.543 -1.0543  1.0937  2.8480
  171DOPC    HY20798   4.923   3.288  10.586 -0.0517  1.9017  2.2941
  171DOPC   O3120799   4.769   3.187  10.701 -0.2844  0.0448 -0.0502
  171DOPC   C3120800   4.854   3.125  10.775 -0.0948 -0.3156 -0.0968
  171DOPC   O3220801   4.973   3.116  10.749 -0.0152 -0.4337 -0.3409
  171DOPC   C3220802   4.786   3.068  10.894 -0.6412  0.3493  0.0364
  171DOPC   H2X20803   4.754   2.963  10.880  1.0572 -0.2956  0.6262
  171DOPC   H2Y20804   4.868   3.055  10.968 -0.7653  0.8390  0.2601
  171DOPC   C2320805   4.480   2.859  10.567  0.3582 -0.3934 -0.1229
  171DOPC   H3R20806   4.539   2.769  10.594 -1.9367 -1.2770  2.3798
  171DOPC   H3S20807   4.381   2.819  10.534  0.4403 -0.6057 -0.1114
  171DOPC   C2420808   4.454   2.952  10.684  0.5643  0.3397 -0.4181
  171DOPC   H4R20809   4.372   3.023  10.658 -0.8688 -0.3869  1.7961
  171DOPC   H4S20810   4.544   3.003  10.722  1.9007 -2.2412  0.1012
  171DOPC   C2520811   4.387   2.862  10.794  0.0555  0.2031  0.2801
  171DOPC   H5R20812   4.458   2.787  10.834 -1.2605 -1.7408 -0.9086
  171DOPC   H5S20813   4.309   2.794  10.754  1.7555 -1.1082 -0.9313
  171DOPC   C2620814   4.343   2.936  10.919  0.4615 -0.0055 -0.1387
  171DOPC   H6R20815   4.256   3.002  10.904  1.6691  1.5170 -0.6852
  171DOPC   H6S20816   4.429   2.996  10.957  0.6880  0.2499 -1.0394
  171DOPC   C2720817   4.311   2.836  11.030 -0.2739 -0.2864  0.1967
  171DOPC   H7R20818   4.402   2.772  11.038  1.4263  1.9634 -0.1850
  171DOPC   H7S20819   4.221   2.771  11.017 -1.8270  1.4065  1.8767
  171DOPC   C2820820   4.306   2.903  11.169  0.4405  0.1207  0.4679
  171DOPC   H8R20821   4.389   2.976  11.178  0.3832  0.1404  0.8684
  171DOPC   H8S20822   4.324   2.824  11.245  0.0108 -0.1259  0.3195
  171DOPC   C2920823   4.175   2.970  11.201  0.4597 -0.3024  0.3980
  171DOPC   H9R20824   4.123   3.027  11.123  1.2708 -1.1769 -0.8047
  171DOPC  C21020825   4.107   2.967  11.316 -0.4131 -0.3493 -0.7228
  171DOPC  H10R20826   4.011   3.020  11.323  0.1237  0.4995  0.4921
  171DOPC  C21120827   4.136   2.906  11.447  0.0074 -0.2055  0.1839
  171DOPC  H11R20828   4.204   2.819  11.435 -1.0036 -0.8627 -0.9720
  171DOPC  H11S20829   4.045   2.868  11.500 -0.3300  0.6645  0.2472
  171DOPC  C21220830   4.209   3.004  11.544 -0.0834  0.4635 -0.2236
  171DOPC  H12R20831   4.135   3.083  11.568 -0.2538  0.4238 -0.6070
  171DOPC  H12S20832   4.300   3.052  11.501  0.1882  1.6807  1.6243
  171DOPC  C21320833   4.255   2.941  11.675  0.2443  0.1512  0.0492
  171DOPC  H13R20834   4.327   2.861  11.647 -2.3828 -1.5227 -2.5245
  171DOPC  H13S20835   4.166   2.898  11.725 -0.9707  2.3334 -0.1421
  171DOPC  C21420836   4.321   3.041  11.767  0.6400  0.1427 -0.4139
  171DOPC  H14R20837   4.242   3.113  11.799  0.6255 -0.5970  1.3585
  171DOPC  H14S20838   4.405   3.091  11.715  1.9318 -0.7910  0.6950
  171DOPC  C21520839   4.396   2.979  11.889 -0.4879  0.0769 -0.2471
  171DOPC  H15R20840   4.463   2.901  11.847 -1.4182 -1.5426  1.1682
  171DOPC  H15S20841   4.320   2.932  11.955  0.9164 -0.3369  1.1254
  171DOPC  C21620842   4.481   3.096  11.966  0.0901  0.5781  1.7138
  171DOPC  H16R20843   4.539   3.149  11.887 -0.5132  0.6509  1.3061
  171DOPC  H16S20844   4.543   3.045  12.042 -0.3756  1.2797  2.5876
  171DOPC  C21720845   4.389   3.197  12.031  0.4811  0.5684 -0.2986
  171DOPC  H17R20846   4.337   3.146  12.115 -1.4302  1.4472 -0.8676
  171DOPC  H17S20847   4.309   3.222  11.958 -0.9254  0.0170  0.9889
  171DOPC  C21820848   4.464   3.323  12.082  0.2201  0.2102  0.3062
  171DOPC  H18R20849   4.513   3.372  11.995  0.1273  0.3812  0.3509
  171DOPC  H18S20850   4.535   3.290  12.161  0.8175 -0.8459 -0.6413
  171DOPC  H18T20851   4.402   3.410  12.113 -0.7994  0.4656 -2.2126
  171DOPC   C3320852   4.685   3.158  10.969  0.2666 -0.7007 -0.1131
  171DOPC   H3X20853   4.594   3.155  10.906  0.6501 -4.0207 -0.7105
  171DOPC   H3Y20854   4.728   3.258  10.990  2.0151 -1.2876 -0.6427
  171DOPC   C3420855   4.645   3.097  11.100 -0.1218 -0.7034 -0.7078
  171DOPC   H4X20856   4.636   2.986  11.105  2.7449 -0.9591  0.7717
  171DOPC   H4Y20857   4.555   3.134  11.153  1.2432  0.3894  0.9433
  171DOPC   C3520858   4.748   3.133  11.219 -0.4784  0.4817  0.0262
  171DOPC   H5X20859   4.776   3.241  11.212 -0.5105  0.5388  0.7545
  171DOPC   H5Y20860   4.840   3.075  11.196  0.7477  3.1061 -2.3015
  171DOPC   C3620861   4.705   3.105  11.369  0.1235  0.3159 -0.1165
  171DOPC   H6X20862   4.782   3.141  11.439  1.1952 -2.7259  0.4440
  171DOPC   H6Y20863   4.607   3.154  11.385 -1.2944 -2.7129  1.4499
  171DOPC   C3720864   4.684   2.952  11.398 -0.7714 -0.4937  0.0893
  171DOPC   H7X20865   4.624   2.908  11.315 -0.2543  1.8783 -1.6713
  171DOPC   H7Y20866   4.784   2.911  11.374 -1.1040 -1.3495  0.1262
  171DOPC   C3820867   4.620   2.905  11.531 -0.5442 -0.3244  0.4376
  171DOPC   H8X20868   4.525   2.962  11.538 -0.2743  0.3560 -1.0777
  171DOPC   H8Y20869   4.681   2.942  11.616 -0.3430 -1.3155  0.7303
  171DOPC   C3920870   4.609   2.758  11.538  0.2482  0.6931  0.1303
  171DOPC   H9X20871   4.600   2.707  11.441 -2.0720 -0.2281  0.7497
  171DOPC  C31020872   4.634   2.667  11.638  0.2796  0.3485  0.1650
  171DOPC  H10X20873   4.610   2.561  11.619 -1.5894  1.1093 -2.1736
  171DOPC  C31120874   4.688   2.691  11.781  0.4483 -0.4750  0.1023
  171DOPC  H11X20875   4.701   2.801  11.792 -1.4770  0.0492 -1.9738
  171DOPC  H11Y20876   4.790   2.657  11.810  0.6167  1.3109  1.7910
  171DOPC  C31220877   4.591   2.642  11.892 -0.2040 -0.8022  0.8889
  171DOPC  H12X20878   4.586   2.531  11.900  0.3017 -1.3709 -3.8562
  171DOPC  H12Y20879   4.484   2.669  11.878 -0.3877 -1.2252  1.4200
  171DOPC  C31320880   4.639   2.667  12.037  0.1526  0.1012 -0.2700
  171DOPC  H13X20881   4.730   2.606  12.055  1.0222  1.0453 -1.3460
  171DOPC  H13Y20882   4.680   2.769  12.051  2.6959 -0.9654  0.6008
  171DOPC  C31420883   4.540   2.620  12.143  0.5742  0.3033 -0.0551
  171DOPC  H14X20884   4.501   2.518  12.121  2.7114 -0.6196  0.2168
  171DOPC  H14Y20885   4.608   2.614  12.230  1.5155 -1.8632 -0.8857
  171DOPC  C31520886   4.422   2.706  12.189  0.9960  0.5236  0.1469
  171DOPC  H15X20887   4.360   2.633  12.245 -0.1935  0.5210 -1.1213
  171DOPC  H15Y20888   4.365   2.740  12.099  0.2099  0.1813  0.5050
  171DOPC  C31620889   4.461   2.827  12.266  0.4230 -0.7398 -0.2052
  171DOPC  H16X20890   4.559   2.814  12.317  1.0590 -3.5719 -1.8951
  171DOPC  H16Y20891   4.469   2.917  12.201 -2.0589  0.2308  0.7261
  171DOPC  C31720892   4.353   2.853  12.371  0.3927  0.5890  0.2565
  171DOPC  H17X20893   4.268   2.849  12.300  0.0679 -2.1306  0.6843
  171DOPC  H17Y20894   4.349   2.774  12.449 -2.2087  1.3026  0.9395
  171DOPC  C31820895   4.364   2.990  12.437 -0.5269  0.1522  0.1611
  171DOPC  H18X20896   4.298   2.990  12.527  0.4957 -0.0451  0.9239
  171DOPC  H18Y20897   4.471   3.008  12.459 -0.6339  0.8063  0.1801
  171DOPC  H18Z20898   4.337   3.075  12.370  0.7618  0.4318 -0.0137
  172DOPC     N20899   4.014   4.368   9.684  0.0717 -0.4695  0.3057
  172DOPC   C1220900   3.886   4.419   9.757  0.3402  0.0554 -0.6272
  172DOPC  H12A20901   3.881   4.525   9.740  2.7667  0.0078 -2.1657
  172DOPC  H12B20902   3.907   4.413   9.863  1.8155  0.7377 -0.8607
  172DOPC   C1320903   4.053   4.239   9.756 -0.3391  0.7820 -0.2398
  172DOPC  H13A20904   3.989   4.154   9.738  1.9808 -1.1155  0.0549
  172DOPC  H13B20905   4.158   4.220   9.744 -0.0836  2.3550 -0.6455
  172DOPC  H13C20906   4.049   4.264   9.861 -1.6119  1.4549 -0.4236
  172DOPC   C1420907   4.118   4.464   9.711 -0.5746  1.2655  0.0263
  172DOPC  H14A20908   4.212   4.431   9.671  0.0091  0.9158  1.6360
  172DOPC  H14B20909   4.100   4.555   9.654  1.1436  1.6000 -0.0410
  172DOPC  H14C20910   4.126   4.492   9.815 -0.7972 -1.4324  0.8516
  172DOPC   C1520911   3.990   4.355   9.539 -0.3262 -0.2131 -0.1681
  172DOPC  H15A20912   3.974   4.451   9.492  0.5472 -1.0597 -2.3135
  172DOPC  H15B20913   3.918   4.279   9.511  0.0983 -1.0371  0.9112
  172DOPC  H15C20914   4.079   4.318   9.491  1.2805  0.8295  1.8211
  172DOPC   C1120915   3.753   4.341   9.732 -0.1208  0.0523  0.4686
  172DOPC  H11A20916   3.673   4.375   9.800 -0.4424  0.3236 -0.0384
  172DOPC  H11B20917   3.726   4.370   9.628 -2.2639  2.8984  1.7068
  172DOPC     P20918   3.643   4.109   9.744 -0.1193 -0.1821 -0.3024
  172DOPC   O1320919   3.693   3.969   9.728 -0.4439 -0.2533 -0.4414
  172DOPC   O1420920   3.540   4.147   9.643  0.4087  0.6990 -0.0714
  172DOPC   O1220921   3.773   4.204   9.744  0.6774  0.6555  0.4949
  172DOPC   O1120922   3.571   4.131   9.888  0.2861  0.0814  0.3550
  172DOPC    C120923   3.615   4.054  10.005 -0.1265 -0.0856 -0.2477
  172DOPC    HA20924   3.677   3.964   9.983  0.4779 -0.2113  1.7772
  172DOPC    HB20925   3.531   4.037  10.074  0.3974  1.1517  0.7367
  172DOPC    C220926   3.710   4.139  10.087  0.0658  1.1307  0.0668
  172DOPC    HS20927   3.798   4.159  10.022 -0.1595  1.1766 -0.2241
  172DOPC   O2120928   3.746   4.073  10.210 -0.2157  0.5726 -0.0863
  172DOPC   C2120929   3.863   4.099  10.261  0.0368  0.1332  0.4783
  172DOPC   O2220930   3.944   4.181  10.225 -0.1587  0.2154 -0.3494
  172DOPC   C2220931   3.890   4.001  10.375 -0.0003 -0.9450 -0.2322
  172DOPC   H2R20932   3.924   3.910  10.322  2.1019 -0.1973 -0.2674
  172DOPC   H2S20933   3.790   3.987  10.419 -0.6069 -0.7309 -1.4982
  172DOPC    C320934   3.649   4.274  10.122 -0.8308  0.2566 -0.0522
  172DOPC    HX20935   3.541   4.260  10.143 -0.8839 -0.4919 -0.7771
  172DOPC    HY20936   3.647   4.324  10.022 -0.3268  1.0769  0.3397
  172DOPC   O3120937   3.714   4.360  10.221  0.4586 -0.1651 -0.3375
  172DOPC   C3120938   3.772   4.469  10.189  0.2788  0.1543  0.2914
  172DOPC   O3220939   3.795   4.514  10.075 -0.3282  0.0387  0.3756
  172DOPC   C3220940   3.788   4.544  10.321  0.0585 -0.7649  0.5900
  172DOPC   H2X20941   3.698   4.539  10.387  0.0162  0.8488  0.6852
  172DOPC   H2Y20942   3.878   4.497  10.368  1.5229  1.2057 -0.1264
  172DOPC   C2320943   4.000   4.033  10.474 -0.5370  0.5720 -0.5340
  172DOPC   H3R20944   4.001   4.139  10.510  1.0902 -0.1713  1.8210
  172DOPC   H3S20945   4.099   4.003  10.436 -0.9011  0.7624 -1.6835
  172DOPC   C2420946   3.984   3.949  10.597 -0.3579 -0.2247 -0.2886
  172DOPC   H4R20947   3.972   3.844  10.563 -2.2156 -0.3949  0.8029
  172DOPC   H4S20948   3.891   3.986  10.645 -0.1151  0.0239 -0.0135
  172DOPC   C2520949   4.110   3.960  10.688  0.0916  0.0515 -0.1970
  172DOPC   H5R20950   4.197   3.983  10.623  0.4659  0.8729  0.5833
  172DOPC   H5S20951   4.130   3.864  10.739 -0.8882 -0.5711 -0.9358
  172DOPC   C2620952   4.090   4.069  10.797 -0.1311  0.1788 -0.2342
  172DOPC   H6R20953   4.050   4.166  10.759  0.3629  0.8778  0.9816
  172DOPC   H6S20954   4.192   4.076  10.839 -0.4360  1.0750  0.3906
  172DOPC   C2720955   3.996   4.010  10.909  0.5084  0.7822 -0.1630
  172DOPC   H7R20956   4.021   3.903  10.927 -3.6548 -0.7043 -1.9446
  172DOPC   H7S20957   3.891   3.998  10.874  0.0562  0.0470  1.3546
  172DOPC   C2820958   3.994   4.083  11.047 -0.4433 -0.4935  1.4062
  172DOPC   H8R20959   4.102   4.100  11.065 -0.1453  3.0058 -2.2773
  172DOPC   H8S20960   3.946   4.029  11.132  0.2033 -1.8704  0.9248
  172DOPC   C2920961   3.943   4.224  11.043 -0.5577 -0.1762  0.0205
  172DOPC   H9R20962   3.964   4.267  10.944  0.6897 -1.8745 -0.4908
  172DOPC  C21020963   3.906   4.289  11.151  0.0388 -0.0859  0.5839
  172DOPC  H10R20964   3.878   4.393  11.131  1.3347  0.1079 -0.4051
  172DOPC  C21120965   3.903   4.248  11.296 -0.3148  0.7085  0.0680
  172DOPC  H11R20966   3.966   4.158  11.309 -0.8062  0.7679  3.8693
  172DOPC  H11S20967   3.799   4.222  11.325 -0.8475  1.9254 -0.6698
  172DOPC  C21220968   3.955   4.342  11.403  0.5679 -0.1773 -0.2099
  172DOPC  H12R20969   3.885   4.429  11.400  2.0945  1.0627 -2.5371
  172DOPC  H12S20970   4.055   4.385  11.382 -0.2942  2.9019  1.2910
  172DOPC  C21320971   3.950   4.279  11.540 -0.4341 -0.1600  0.2139
  172DOPC  H13R20972   4.035   4.211  11.563 -1.2449 -1.6017 -0.8212
  172DOPC  H13S20973   3.860   4.216  11.557 -0.8444  0.5070  0.5458
  172DOPC  C21420974   3.939   4.378  11.659 -0.0294  0.2167  0.0835
  172DOPC  H14R20975   3.841   4.426  11.641  0.2110  1.0968  1.0309
  172DOPC  H14S20976   4.012   4.461  11.651  0.5920 -0.3793 -0.5030
  172DOPC  C21520977   3.951   4.326  11.807  0.2474 -0.0726 -0.1556
  172DOPC  H15R20978   4.049   4.280  11.832  1.1591  2.0995  0.5185
  172DOPC  H15S20979   3.870   4.250  11.813 -1.2495  1.3113 -1.6880
  172DOPC  C21620980   3.922   4.424  11.919 -0.2269 -0.1053 -0.2126
  172DOPC  H16R20981   3.981   4.518  11.923  0.4660 -0.5379 -0.0220
  172DOPC  H16S20982   3.954   4.379  12.016  2.1151  2.1214  0.1493
  172DOPC  C21720983   3.776   4.456  11.942  0.0174 -0.1337 -0.1489
  172DOPC  H17R20984   3.719   4.362  11.960  0.8132 -0.6642 -0.3697
  172DOPC  H17S20985   3.735   4.494  11.846 -0.9595 -4.3419 -1.6052
  172DOPC  C21820986   3.743   4.561  12.055 -0.0983  0.1718  0.5352
  172DOPC  H18R20987   3.806   4.650  12.076  1.8029 -1.0290  0.1914
  172DOPC  H18S20988   3.735   4.514  12.155  0.0069  0.4482  0.6722
  172DOPC  H18T20989   3.646   4.604  12.023 -1.1344 -0.5184  2.5810
  172DOPC   C3320990   3.825   4.696  10.312  0.1464  0.5095  0.2688
  172DOPC   H3X20991   3.745   4.737  10.248 -0.2806 -1.8438 -0.8046
  172DOPC   H3Y20992   3.929   4.697  10.271  0.0843 -2.6018 -0.2217
  172DOPC   C3420993   3.820   4.779  10.441 -0.3212  0.1338 -0.4558
  172DOPC   H4X20994   3.718   4.775  10.485 -0.3840  0.7434 -0.5404
  172DOPC   H4Y20995   3.836   4.885  10.412 -0.3281  0.7517  1.6409
  172DOPC   C3520996   3.927   4.749  10.555 -0.3788  0.7554  0.5112
  172DOPC   H5X20997   4.028   4.729  10.512 -0.2690 -0.2727  1.2147
  172DOPC   H5Y20998   3.885   4.654  10.595 -2.1792  0.6529 -1.3906
  172DOPC   C3620999   3.933   4.851  10.668 -0.3437  0.0422  0.2226
  172DOPC   H6X21000   3.961   4.945  10.617  2.7242 -2.2202 -2.7556
  172DOPC   H6Y21001   3.833   4.868  10.713  1.0724 -0.1184  3.8132
  172DOPC   C3721002   4.028   4.827  10.786  0.4973  0.2502  0.3046
  172DOPC   H7X21003   4.004   4.731  10.837 -1.9723 -0.3570 -1.8129
  172DOPC   H7Y21004   4.136   4.820  10.760  0.1141 -1.1098 -1.0871
  172DOPC   C3821005   4.026   4.945  10.883  0.3471 -0.5035  0.6741
  172DOPC   H8X21006   4.027   5.035  10.817  0.6152 -0.4671  0.7261
  172DOPC   H8Y21007   4.120   4.958  10.940  2.0239  0.5504 -2.0829
  172DOPC   C3921008   3.900   4.930  10.963  0.2670 -0.0568 -0.6496
  172DOPC   H9X21009   3.817   4.994  10.929 -0.2617  0.7868  1.9871
  172DOPC  C31021010   3.896   4.868  11.083 -0.3581  0.0564 -0.1431
  172DOPC  H10X21011   3.798   4.868  11.133 -0.1805  0.1276  0.2087
  172DOPC  C31121012   4.012   4.801  11.158  0.2583 -0.1276 -0.1901
  172DOPC  H11X21013   4.064   4.878  11.218  0.8223 -0.4498 -0.2574
  172DOPC  H11Y21014   4.091   4.770  11.086  1.9579  1.1589  1.0363
  172DOPC  C31221015   3.965   4.684  11.245  0.1841 -0.1143 -0.0750
  172DOPC  H12X21016   4.037   4.619  11.298 -1.3485  0.3549  2.7991
  172DOPC  H12Y21017   3.895   4.617  11.190  0.1601  0.8913 -1.3231
  172DOPC  C31321018   3.876   4.738  11.357  0.9835 -0.1920 -0.5270
  172DOPC  H13X21019   3.792   4.801  11.323 -1.8890 -2.0561  2.5120
  172DOPC  H13Y21020   3.833   4.645  11.402 -1.5178  1.3759  0.5342
  172DOPC  C31421021   3.953   4.816  11.458  0.1078 -0.0881 -0.0634
  172DOPC  H14X21022   4.055   4.775  11.451  0.6066  1.0291  0.4219
  172DOPC  H14Y21023   3.960   4.923  11.426  1.0401 -0.1759 -0.1563
  172DOPC  C31521024   3.889   4.801  11.598 -0.8939 -0.4646 -1.0674
  172DOPC  H15X21025   3.948   4.864  11.669 -1.4123 -1.2697  0.1177
  172DOPC  H15Y21026   3.899   4.693  11.624 -0.4801 -0.0921  0.4415
  172DOPC  C31621027   3.746   4.840  11.603  0.4510 -0.2192  0.3517
  172DOPC  H16X21028   3.733   4.949  11.584 -1.3455 -0.2478  1.2244
  172DOPC  H16Y21029   3.676   4.789  11.533  1.0705 -0.3360 -0.1890
  172DOPC  C31721030   3.688   4.815  11.741  0.3653  0.1979 -0.5339
  172DOPC  H17X21031   3.702   4.707  11.763 -2.3758 -0.7384 -2.8185
  172DOPC  H17Y21032   3.743   4.873  11.819 -1.7792  2.2057 -0.4076
  172DOPC  C31821033   3.532   4.830  11.753  0.0246 -0.6101  0.0010
  172DOPC  H18X21034   3.498   4.789  11.851  0.1410  0.1252  0.3544
  172DOPC  H18Y21035   3.500   4.934  11.731 -0.1330 -0.9384 -1.3531
  172DOPC  H18Z21036   3.503   4.765  11.668  1.4307 -0.8208 -0.3498
  173DOPC     N21037   3.390   2.969   9.653  0.3125 -0.1226  0.3932
  173DOPC   C1221038   3.510   3.057   9.695  0.0877  0.2687 -0.1457
  173DOPC  H12A21039   3.498   3.157   9.655  0.3973  1.0902  1.7338
  173DOPC  H12B21040   3.598   3.009   9.656  0.6782  1.5369 -0.4264
  173DOPC   C1321041   3.262   3.021   9.709  0.6393 -0.0141 -0.1107
  173DOPC  H13A21042   3.258   3.014   9.816  0.1173  1.4630 -0.0202
  173DOPC  H13B21043   3.247   3.124   9.682  0.1515  0.1687  0.8464
  173DOPC  H13C21044   3.186   2.957   9.665  0.7743 -1.0941  1.1786
  173DOPC   C1421045   3.411   2.834   9.708  0.9277  0.0914  0.2698
  173DOPC  H14A21046   3.504   2.786   9.680  1.4089 -0.5346  2.6901
  173DOPC  H14B21047   3.409   2.847   9.815 -2.0425  0.6502  0.2303
  173DOPC  H14C21048   3.341   2.760   9.673 -0.9251  1.8238  0.1492
  173DOPC   C1521049   3.376   2.970   9.501 -0.4260  0.2746  0.1784
  173DOPC  H15A21050   3.465   2.930   9.455 -0.5115  1.2102 -0.8628
  173DOPC  H15B21051   3.370   3.070   9.462 -1.5850 -0.2834 -1.1757
  173DOPC  H15C21052   3.297   2.901   9.473  0.6429 -1.0138  0.2518
  173DOPC   C1121053   3.526   3.072   9.851 -0.2430 -0.0028  0.1436
  173DOPC  H11A21054   3.540   2.969   9.891 -1.2729  0.0919  0.7649
  173DOPC  H11B21055   3.615   3.138   9.861 -1.0013  1.2777 -1.2926
  173DOPC     P21056   3.407   3.164  10.065  0.0694 -0.1617 -0.0815
  173DOPC   O1321057   3.271   3.216  10.095 -0.4318  0.2300 -0.0245
  173DOPC   O1421058   3.520   3.244  10.105 -0.2875  0.1862  0.1201
  173DOPC   O1221059   3.420   3.139   9.911 -0.6945  0.3321 -0.1357
  173DOPC   O1121060   3.424   3.026  10.136  0.2546  0.1704  0.0351
  173DOPC    C121061   3.344   2.913  10.108  0.8419 -0.2590 -0.4218
  173DOPC    HA21062   3.405   2.847  10.043 -0.9401 -1.4892 -0.9237
  173DOPC    HB21063   3.256   2.938  10.045  0.1721  1.4034  1.0874
  173DOPC    C221064   3.298   2.849  10.244  0.2785 -0.6015 -0.3262
  173DOPC    HS21065   3.221   2.914  10.290  1.3404 -0.2590  1.0053
  173DOPC   O2121066   3.412   2.844  10.332 -0.3942  0.3490 -0.1518
  173DOPC   C2121067   3.395   2.832  10.461 -0.1550 -0.6468 -0.4669
  173DOPC   O2221068   3.293   2.855  10.519 -0.2759 -0.6949  0.0232
  173DOPC   C2221069   3.524   2.811  10.537  0.3131  0.2396 -0.1582
  173DOPC   H2R21070   3.596   2.877  10.485 -0.1126 -1.2754 -2.8275
  173DOPC   H2S21071   3.555   2.704  10.530 -1.6960 -0.5422  1.7186
  173DOPC    C321072   3.223   2.707  10.234  0.1762  0.6426  0.0468
  173DOPC    HX21073   3.300   2.646  10.183 -1.5634 -1.7746  0.1501
  173DOPC    HY21074   3.142   2.706  10.158 -0.3176  1.4027  0.5513
  173DOPC   O3121075   3.196   2.641  10.353  0.1174  0.6656 -0.3309
  173DOPC   C3121076   3.089   2.697  10.411  0.4508  0.5523 -0.3999
  173DOPC   O3221077   3.026   2.791  10.367 -0.2860 -0.0020 -0.0011
  173DOPC   C3221078   3.058   2.623  10.539  0.6897  0.0340 -0.8800
  173DOPC   H2X21079   3.111   2.525  10.535 -0.0962 -0.5424  1.3810
  173DOPC   H2Y21080   3.101   2.683  10.622 -1.6355  0.8824 -0.2322
  173DOPC   C2321081   3.514   2.861  10.677  0.5297 -0.2004 -0.3269
  173DOPC   H3R21082   3.465   2.961  10.676 -0.7659 -0.8004  0.4212
  173DOPC   H3S21083   3.615   2.881  10.718 -0.0027 -0.5944  1.2359
  173DOPC   C2421084   3.438   2.773  10.778 -0.4148 -0.9012  0.1425
  173DOPC   H4R21085   3.461   2.664  10.783 -0.6175 -0.9293  0.4671
  173DOPC   H4S21086   3.331   2.796  10.761 -0.1853  0.1896  0.1472
  173DOPC   C2521087   3.473   2.818  10.920  0.1043 -0.5788 -0.2545
  173DOPC   H5R21088   3.450   2.926  10.907 -1.0076 -0.8290 -0.4210
  173DOPC   H5S21089   3.580   2.800  10.947 -0.0492  0.2502  0.9984
  173DOPC   C2621090   3.383   2.763  11.025  0.1018  0.1400  0.8343
  173DOPC   H6R21091   3.398   2.654  11.031  2.1668  0.1192 -2.4448
  173DOPC   H6S21092   3.277   2.768  10.991  1.2609 -1.7882 -3.9010
  173DOPC   C2721093   3.398   2.837  11.158 -0.1774 -0.5071  0.0887
  173DOPC   H7R21094   3.403   2.947  11.139 -0.5459 -0.3571  0.8403
  173DOPC   H7S21095   3.498   2.796  11.183 -0.1358 -1.9369 -2.1392
  173DOPC   C2821096   3.296   2.788  11.256  0.4113  0.0633 -0.1999
  173DOPC   H8R21097   3.343   2.792  11.356 -0.8292  0.4119  0.3922
  173DOPC   H8S21098   3.272   2.682  11.231 -1.3046  0.2096  0.7113
  173DOPC   C2921099   3.171   2.877  11.241 -0.1619  0.6901  0.8179
  173DOPC   H9R21100   3.106   2.842  11.159  1.7718 -1.8107  0.2144
  173DOPC  C21021101   3.157   2.995  11.300 -0.0474  0.2250  0.3490
  173DOPC  H10R21102   3.071   3.057  11.268 -0.8474 -0.0415  1.8782
  173DOPC  C21121103   3.243   3.074  11.392 -0.1077  0.5882 -0.2362
  173DOPC  H11R21104   3.160   3.137  11.431  0.5645  0.4560  1.4815
  173DOPC  H11S21105   3.315   3.142  11.341  1.4241 -0.7221  0.1038
  173DOPC  C21221106   3.324   3.010  11.501 -0.8515  0.3649 -0.7795
  173DOPC  H12R21107   3.419   2.967  11.464 -0.9325 -0.0994 -0.4541
  173DOPC  H12S21108   3.285   2.919  11.551  0.1356  0.9255  1.1023
  173DOPC  C21321109   3.354   3.110  11.613 -0.1973  0.3368 -0.2469
  173DOPC  H13R21110   3.257   3.162  11.626  0.2173  0.7105  1.6385
  173DOPC  H13S21111   3.425   3.192  11.592 -3.2742  2.8109 -1.7455
  173DOPC  C21421112   3.396   3.049  11.750 -0.1582 -0.0399  0.2116
  173DOPC  H14R21113   3.500   3.012  11.737 -1.0418 -2.3601 -0.6795
  173DOPC  H14S21114   3.330   2.963  11.773 -0.4057 -0.2632 -1.2069
  173DOPC  C21521115   3.383   3.157  11.855 -0.1780 -0.1143  0.8815
  173DOPC  H15R21116   3.281   3.201  11.849 -0.0133  0.0829 -0.8512
  173DOPC  H15S21117   3.465   3.228  11.829  0.2311 -1.0850 -0.5254
  173DOPC  C21621118   3.402   3.098  11.986 -0.5831  1.0634  0.5950
  173DOPC  H16R21119   3.475   3.015  11.975 -1.4812  0.5786 -2.4987
  173DOPC  H16S21120   3.308   3.052  12.023  0.1068 -1.3844 -0.5135
  173DOPC  C21721121   3.446   3.203  12.097  0.3285  0.6327 -0.3558
  173DOPC  H17R21122   3.356   3.268  12.100  0.1535  0.7529 -3.7424
  173DOPC  H17S21123   3.539   3.249  12.058  0.1593 -1.1385 -3.1310
  173DOPC  C21821124   3.457   3.133  12.234  0.1043 -0.0489  0.0093
  173DOPC  H18R21125   3.491   3.206  12.311  0.2971  0.7750 -0.8324
  173DOPC  H18S21126   3.531   3.051  12.224  0.6502  0.4177  0.1617
  173DOPC  H18T21127   3.360   3.086  12.260 -0.3129  0.5003 -0.5168
  173DOPC   C3321128   2.905   2.599  10.569  0.5458 -0.7901 -0.0195
  173DOPC   H3X21129   2.857   2.548  10.483  1.8804 -0.6444 -0.8628
  173DOPC   H3Y21130   2.861   2.701  10.578 -1.0749 -1.3807 -0.7984
  173DOPC   C3421131   2.866   2.518  10.696  0.0853 -0.1941 -0.0183
  173DOPC   H4X21132   2.866   2.407  10.684 -1.4582 -0.0556 -1.8402
  173DOPC   H4Y21133   2.761   2.535  10.728  0.9628  3.1903  1.4488
  173DOPC   C3521134   2.955   2.548  10.821 -0.9507 -0.2971 -0.2725
  173DOPC   H5X21135   2.962   2.658  10.823 -0.2530 -0.3422 -0.2395
  173DOPC   H5Y21136   3.058   2.525  10.785 -0.8936  0.9206 -0.9341
  173DOPC   C3621137   2.922   2.491  10.960  0.4217  0.0502 -0.7372
  173DOPC   H6X21138   2.828   2.538  10.996  1.6047  1.0892  1.1625
  173DOPC   H6Y21139   2.911   2.381  10.950  1.3965 -0.3695  1.9253
  173DOPC   C3721140   3.027   2.500  11.070 -0.3855 -0.1089 -0.7395
  173DOPC   H7X21141   3.127   2.459  11.041  1.0022  1.2133  1.7918
  173DOPC   H7Y21142   3.052   2.604  11.099  0.4769 -0.0426 -1.6611
  173DOPC   C3821143   2.997   2.424  11.203  0.0092  0.2046 -0.4061
  173DOPC   H8X21144   3.083   2.422  11.274  1.3966  1.2946 -1.9736
  173DOPC   H8Y21145   2.986   2.317  11.178  1.8308 -0.4385  1.2774
  173DOPC   C3921146   2.878   2.480  11.274 -0.7097  0.2127  0.0592
  173DOPC   H9X21147   2.784   2.434  11.237  0.0552 -1.3123 -0.0867
  173DOPC  C31021148   2.877   2.561  11.386 -0.2648  0.7531 -0.3666
  173DOPC  H10X21149   2.781   2.592  11.429 -0.1937  0.2493  0.1618
  173DOPC  C31121150   3.001   2.611  11.462  0.6136 -0.2362  0.5108
  173DOPC  H11X21151   2.991   2.720  11.481 -0.7342  0.3107 -2.7799
  173DOPC  H11Y21152   3.086   2.599  11.392  0.5747  2.0584 -0.0049
  173DOPC  C31221153   3.018   2.538  11.600  0.6420 -0.1128 -0.0897
  173DOPC  H12X21154   3.124   2.561  11.625  0.9100 -1.6506  0.2885
  173DOPC  H12Y21155   3.002   2.430  11.583 -0.9862  0.1753 -0.5638
  173DOPC  C31321156   2.931   2.609  11.709  0.5740 -0.1312 -0.0594
  173DOPC  H13X21157   2.849   2.659  11.654  0.7306  0.5801  0.3437
  173DOPC  H13Y21158   2.882   2.538  11.779  0.0667 -1.0100 -1.2801
  173DOPC  C31421159   3.022   2.706  11.786  1.0028  0.1733  0.5520
  173DOPC  H14X21160   3.107   2.646  11.824  0.4602 -0.3159  1.0050
  173DOPC  H14Y21161   3.072   2.783  11.723 -0.8152  0.7861 -0.1965
  173DOPC  C31521162   2.938   2.776  11.899  0.2828  0.4278 -0.3914
  173DOPC  H15X21163   2.888   2.698  11.960 -0.5781  0.9108 -0.4558
  173DOPC  H15Y21164   2.852   2.839  11.866 -0.4821 -0.2791  0.2020
  173DOPC  C31621165   3.026   2.859  12.002  0.2406  0.2068  0.3566
  173DOPC  H16X21166   3.103   2.794  12.049 -0.0125  0.0362  0.5347
  173DOPC  H16Y21167   3.058   2.948  11.944  1.4631 -1.6913 -2.1127
  173DOPC  C31721168   2.945   2.916  12.126 -0.0291  0.0805  0.6795
  173DOPC  H17X21169   3.006   2.985  12.189 -1.8182  2.0301  0.3846
  173DOPC  H17Y21170   2.865   2.976  12.079  0.1364 -1.9021 -2.3784
  173DOPC  C31821171   2.891   2.806  12.213 -0.4857  0.0074 -0.6852
  173DOPC  H18X21172   2.831   2.846  12.297 -1.8552 -0.7451 -1.2611
  173DOPC  H18Y21173   2.822   2.743  12.152  0.3301 -0.1613 -1.4582
  173DOPC  H18Z21174   2.965   2.730  12.246 -1.1180 -1.2527 -2.0421
  174DOPC     N21175   5.172   2.677   9.964 -0.3093 -0.0825 -0.4084
  174DOPC   C1221176   5.148   2.717  10.115 -0.4096  0.3994  0.2786
  174DOPC  H12A21177   5.044   2.695  10.135  0.1885 -0.8546  2.3240
  174DOPC  H12B21178   5.173   2.821  10.126  0.4437  0.1991  0.2739
  174DOPC   C1321179   5.314   2.717   9.944 -0.3441  0.2604  0.3892
  174DOPC  H13A21180   5.349   2.668   9.854  0.9734 -1.5102  1.8044
  174DOPC  H13B21181   5.325   2.824   9.949  1.1260  0.1872 -0.6884
  174DOPC  H13C21182   5.371   2.680  10.028  2.3619  1.3682 -0.8583
  174DOPC   C1421183   5.086   2.752   9.872  0.5440 -0.3512 -0.2191
  174DOPC  H14A21184   4.981   2.734   9.888  0.7510 -1.1684  0.2884
  174DOPC  H14B21185   5.092   2.858   9.890  0.5834 -0.3051 -0.4996
  174DOPC  H14C21186   5.105   2.727   9.768  0.6252  0.3725 -0.3878
  174DOPC   C1521187   5.149   2.533   9.941 -0.1086  0.3068 -0.1462
  174DOPC  H15A21188   5.044   2.506   9.939 -0.0263  0.0231 -1.0134
  174DOPC  H15B21189   5.205   2.471  10.009  1.5726  0.4244 -1.3661
  174DOPC  H15C21190   5.177   2.507   9.840 -2.9153  1.1300 -1.2485
  174DOPC   C1121191   5.237   2.656  10.225 -0.1552 -0.0862 -0.2001
  174DOPC  H11A21192   5.203   2.684  10.328 -0.9279 -1.3382 -0.1069
  174DOPC  H11B21193   5.221   2.547  10.228 -0.6904  0.0020  0.4449
  174DOPC     P21194   5.430   2.799  10.299  0.2872  0.4678 -0.0599
  174DOPC   O1321195   5.334   2.910  10.293 -0.0654  0.3122  0.9324
  174DOPC   O1421196   5.565   2.824  10.248  0.3129 -0.0953 -0.2255
  174DOPC   O1221197   5.381   2.678  10.210 -0.0733 -0.0763 -0.3693
  174DOPC   O1121198   5.430   2.750  10.448 -0.2621  0.1987  0.7564
  174DOPC    C121199   5.501   2.630  10.491 -0.7300 -0.1416  0.5531
  174DOPC    HA21200   5.603   2.627  10.448  0.3995 -1.4291  3.1303
  174DOPC    HB21201   5.452   2.541  10.445 -3.1863  1.3163  0.1252
  174DOPC    C221202   5.506   2.635  10.650  0.1059  0.0446 -0.2071
  174DOPC    HS21203   5.576   2.555  10.681 -2.2429 -2.8229 -1.7275
  174DOPC   O2121204   5.386   2.618  10.719 -0.0053  0.6872 -0.8490
  174DOPC   C2121205   5.323   2.499  10.712 -0.5654 -0.0101 -0.3355
  174DOPC   O2221206   5.361   2.403  10.647  0.0758 -0.3731  0.3850
  174DOPC   C2221207   5.199   2.500  10.799  0.0882 -0.3015 -0.2740
  174DOPC   H2R21208   5.104   2.472  10.749  0.0819 -1.0798  0.1581
  174DOPC   H2S21209   5.190   2.600  10.848  3.8171 -0.0166  0.1373
  174DOPC    C321210   5.555   2.771  10.700  0.5027  0.0305 -0.1591
  174DOPC    HX21211   5.466   2.837  10.690 -1.6459 -2.8175 -0.8850
  174DOPC    HY21212   5.635   2.812  10.634  0.2208 -0.5823 -0.8949
  174DOPC   O3121213   5.597   2.768  10.834  0.2150  0.0069  0.4414
  174DOPC   C3121214   5.722   2.741  10.863 -0.0962 -0.0032 -0.1771
  174DOPC   O3221215   5.807   2.721  10.778  0.5646  0.2939  0.6199
  174DOPC   C3221216   5.728   2.719  11.015  0.3477  0.7644  0.0989
  174DOPC   H2X21217   5.673   2.626  11.040 -0.3621  0.3190 -2.7821
  174DOPC   H2Y21218   5.835   2.702  11.043  0.5013  1.8539  0.2583
  174DOPC   C2321219   5.217   2.402  10.924 -1.0859 -0.1006  0.1635
  174DOPC   H3R21220   5.224   2.303  10.873 -3.2850  0.2172 -0.8830
  174DOPC   H3S21221   5.123   2.405  10.982 -0.2007 -0.8381  1.6822
  174DOPC   C2421222   5.335   2.435  11.018 -0.4162  0.5062 -0.0581
  174DOPC   H4R21223   5.423   2.415  10.954 -1.1703 -0.7841 -0.7438
  174DOPC   H4S21224   5.341   2.361  11.101  2.7396  0.1900 -0.4467
  174DOPC   C2521225   5.336   2.571  11.085  0.2632  0.0733  0.5895
  174DOPC   H5R21226   5.353   2.646  11.006  0.6164 -1.0993 -0.4802
  174DOPC   H5S21227   5.410   2.576  11.168  0.7315 -0.3045  0.1995
  174DOPC   C2621228   5.202   2.613  11.141  0.1188  0.7892 -0.2160
  174DOPC   H6R21229   5.150   2.531  11.196  1.3662 -0.8674 -1.4303
  174DOPC   H6S21230   5.136   2.656  11.063 -0.0866  0.7041 -0.0906
  174DOPC   C2721231   5.218   2.734  11.238 -0.2417 -0.3994  0.3091
  174DOPC   H7R21232   5.283   2.812  11.194 -2.3172  0.5570 -1.2619
  174DOPC   H7S21233   5.266   2.696  11.332 -3.5278  0.7100  2.6328
  174DOPC   C2821234   5.078   2.779  11.286 -0.6751 -0.0154 -0.1630
  174DOPC   H8R21235   5.029   2.690  11.333  1.8848  0.0517  2.9403
  174DOPC   H8S21236   5.026   2.821  11.198  1.5988  1.5024 -0.8600
  174DOPC   C2921237   5.100   2.882  11.393  0.1944  0.2036  1.1665
  174DOPC   H9R21238   5.146   2.978  11.364  1.3273 -1.0374 -1.4893
  174DOPC  C21021239   5.079   2.860  11.520  0.8235 -0.0436  0.0505
  174DOPC  H10R21240   5.096   2.945  11.588  0.0255  0.4841 -0.3898
  174DOPC  C21121241   5.014   2.736  11.584  0.2539 -0.1375 -0.5273
  174DOPC  H11R21242   5.036   2.644  11.526  1.2370 -0.0583 -0.3033
  174DOPC  H11S21243   4.904   2.747  11.571  0.4235  0.3100 -1.6995
  174DOPC  C21221244   5.062   2.703  11.727  0.1630  0.1291 -0.1576
  174DOPC  H12R21245   5.165   2.664  11.714  0.2297  0.3078 -0.1712
  174DOPC  H12S21246   5.002   2.614  11.756 -0.5456  0.3526 -0.9287
  174DOPC  C21321247   5.045   2.801  11.837  0.8329  0.2025 -0.1023
  174DOPC  H13R21248   4.942   2.840  11.827 -1.5061 -5.3130 -0.7710
  174DOPC  H13S21249   5.113   2.888  11.823 -0.2102  0.6576 -3.0783
  174DOPC  C21421250   5.049   2.746  11.980 -0.3041 -0.3764  0.6217
  174DOPC  H14R21251   5.145   2.691  11.990 -0.0761 -0.9050 -3.1134
  174DOPC  H14S21252   4.965   2.679  12.005 -0.2451 -0.2243  1.2565
  174DOPC  C21521253   5.046   2.862  12.085  0.0015 -0.3757 -0.0295
  174DOPC  H15R21254   4.955   2.924  12.081 -0.8083 -1.4964  0.5112
  174DOPC  H15S21255   5.132   2.927  12.058 -0.5217  1.2517  1.9846
  174DOPC  C21621256   5.067   2.812  12.231 -0.4172  0.1244  0.4051
  174DOPC  H16R21257   5.100   2.890  12.303  2.4651 -0.7406  0.1541
  174DOPC  H16S21258   5.147   2.735  12.226 -1.0816 -0.5915  0.6094
  174DOPC  C21721259   4.939   2.752  12.285  0.0294 -0.0059 -0.2437
  174DOPC  H17R21260   4.900   2.672  12.219 -2.5947 -0.1163  1.3230
  174DOPC  H17S21261   4.859   2.829  12.282  0.7119  0.7850  0.8717
  174DOPC  C21821262   4.940   2.690  12.423  0.2952  0.9413 -0.2615
  174DOPC  H18R21263   5.013   2.606  12.429  1.3703  1.8993  0.5304
  174DOPC  H18S21264   4.839   2.656  12.456  0.4452  1.5025  0.8489
  174DOPC  H18T21265   4.966   2.764  12.502  0.0845 -0.0313  0.7520
  174DOPC   C3321266   5.671   2.827  11.103 -0.3738  0.1791 -0.6160
  174DOPC   H3X21267   5.570   2.861  11.071 -1.6466 -2.0157  0.8225
  174DOPC   H3Y21268   5.744   2.910  11.111 -0.9748  0.6224  0.4086
  174DOPC   C3421269   5.639   2.784  11.248 -0.2711 -0.7167 -0.4478
  174DOPC   H4X21270   5.704   2.703  11.285  0.2435  0.3887  1.1757
  174DOPC   H4Y21271   5.534   2.747  11.256 -0.5703 -0.2141 -1.7143
  174DOPC   C3521272   5.654   2.905  11.346  0.4039  0.2807 -0.5139
  174DOPC   H5X21273   5.585   2.982  11.306 -2.5401 -1.4987  0.7836
  174DOPC   H5Y21274   5.762   2.932  11.347  0.1150  1.5979 -2.0037
  174DOPC   C3621275   5.592   2.878  11.487  0.6103 -0.3593 -0.3597
  174DOPC   H6X21276   5.481   2.876  11.487  0.5964  0.1715 -0.4614
  174DOPC   H6Y21277   5.618   2.778  11.526 -0.2819 -0.2490  0.5553
  174DOPC   C3721278   5.635   2.988  11.579  0.9237  0.5025  0.3915
  174DOPC   H7X21279   5.742   2.975  11.606  0.7364 -1.0439  0.4817
  174DOPC   H7Y21280   5.612   3.089  11.539  0.0712  0.4956  0.8296
  174DOPC   C3821281   5.550   2.975  11.709 -0.3533 -0.4675  0.0379
  174DOPC   H8X21282   5.588   2.886  11.763  0.2060 -0.3518 -0.1664
  174DOPC   H8Y21283   5.443   2.960  11.682 -0.2632 -0.7396 -0.1695
  174DOPC   C3921284   5.565   3.092  11.808  0.3018  0.5054  0.0405
  174DOPC   H9X21285   5.632   3.171  11.769  0.2532 -0.3144 -1.8456
  174DOPC  C31021286   5.496   3.109  11.923 -0.0414  0.4312 -0.0805
  174DOPC  H10X21287   5.521   3.189  11.995  1.4941 -1.2400  1.3244
  174DOPC  C31121288   5.392   3.009  11.979  0.0128 -0.7030 -0.3648
  174DOPC  H11X21289   5.397   2.908  11.933  0.9602 -0.9278  0.2154
  174DOPC  H11Y21290   5.290   3.048  11.958 -0.2816 -1.3881 -0.2309
  174DOPC  C31221291   5.418   2.973  12.133  0.1828  0.2343  0.6242
  174DOPC  H12X21292   5.503   2.902  12.140  0.6982  0.9602  2.1389
  174DOPC  H12Y21293   5.330   2.908  12.155 -1.4486  1.4713 -1.8089
  174DOPC  C31321294   5.424   3.091  12.229  0.0037 -0.1117  0.1347
  174DOPC  H13X21295   5.520   3.144  12.209 -0.2225  0.0439 -0.5631
  174DOPC  H13Y21296   5.342   3.159  12.199 -0.0428  0.4558  1.4716
  174DOPC  C31421297   5.414   3.045  12.368  0.3196  0.0704 -0.0502
  174DOPC  H14X21298   5.340   3.111  12.418  0.3372 -1.1476  1.6829
  174DOPC  H14Y21299   5.371   2.943  12.383 -0.7870  0.6207  0.6174
  174DOPC  C31521300   5.547   3.046  12.447  0.4383 -0.0256 -0.0891
  174DOPC  H15X21301   5.610   2.972  12.393  0.2270  0.3150 -0.8153
  174DOPC  H15Y21302   5.518   3.010  12.548  0.5470 -0.6389 -0.2687
  174DOPC  C31621303   5.595   3.192  12.452 -0.0359  0.6898  0.3368
  174DOPC  H16X21304   5.628   3.226  12.351  1.5148  0.2138  0.6616
  174DOPC  H16Y21305   5.507   3.253  12.481 -0.2959 -0.2497  1.5974
  174DOPC  C31721306   5.716   3.222  12.537  0.2758 -0.9669  0.6607
  174DOPC  H17X21307   5.765   3.315  12.499  0.3558 -1.2181  0.1458
  174DOPC  H17Y21308   5.685   3.233  12.643  0.1418  1.2786  0.4418
  174DOPC  C31821309   5.820   3.107  12.539 -0.1063  0.6462  0.2159
  174DOPC  H18X21310   5.796   3.019  12.603  2.3508 -1.7744 -1.9469
  174DOPC  H18Y21311   5.843   3.072  12.436 -2.0403 -0.3060  0.0501
  174DOPC  H18Z21312   5.919   3.149  12.567  0.9920 -0.5094 -1.7125
  175DOPC     N21313   3.436   6.440   9.282 -0.3595 -0.8119  0.0939
  175DOPC   C1221314   3.369   6.307   9.294 -0.6711 -0.1061 -0.9400
  175DOPC  H12A21315   3.449   6.235   9.301  0.3318  0.8121 -2.4537
  175DOPC  H12B21316   3.316   6.284   9.203 -2.7229 -0.3761  0.2690
  175DOPC   C1321317   3.498   6.442   9.144  0.4185  0.3927 -0.1269
  175DOPC  H13A21318   3.556   6.353   9.125 -0.4367  0.1485 -1.7471
  175DOPC  H13B21319   3.434   6.429   9.058  0.8191  0.7493 -0.4848
  175DOPC  H13C21320   3.559   6.531   9.132  3.0386 -1.1310  1.0087
  175DOPC   C1421321   3.544   6.466   9.384  0.1740  0.8224  0.0835
  175DOPC  H14A21322   3.605   6.378   9.399 -1.8480 -0.9042 -1.1668
  175DOPC  H14B21323   3.602   6.553   9.358  3.0142 -1.3914 -1.4882
  175DOPC  H14C21324   3.505   6.478   9.485 -0.5129  0.0652 -0.0785
  175DOPC   C1521325   3.341   6.561   9.283  0.1023 -0.2183 -0.1705
  175DOPC  H15A21326   3.409   6.645   9.291 -0.0112 -0.1303 -0.1335
  175DOPC  H15B21327   3.287   6.566   9.376 -1.5275  0.2333 -1.1078
  175DOPC  H15C21328   3.280   6.573   9.195 -0.5004 -0.3378  0.2270
  175DOPC   C1121329   3.278   6.276   9.421 -0.1854 -0.0084 -0.0316
  175DOPC  H11A21330   3.189   6.343   9.420 -1.0126 -1.0326  1.4853
  175DOPC  H11B21331   3.241   6.172   9.412 -0.9976  0.3723 -1.4252
  175DOPC     P21332   3.454   6.190   9.590  0.1153 -0.2727  0.2889
  175DOPC   O1321333   3.568   6.262   9.663  0.0336 -0.1894 -0.6021
  175DOPC   O1421334   3.489   6.109   9.475 -0.1028 -0.7479  0.2133
  175DOPC   O1221335   3.349   6.303   9.544  0.1885 -0.3334  0.4694
  175DOPC   O1121336   3.370   6.105   9.696 -0.1000  0.5414 -0.3583
  175DOPC    C121337   3.384   6.131   9.835  0.0513 -0.5313 -0.5073
  175DOPC    HA21338   3.488   6.160   9.862 -0.5749  1.1302  0.2127
  175DOPC    HB21339   3.359   6.040   9.894 -1.7990  1.1145  1.4077
  175DOPC    C221340   3.265   6.221   9.882  0.2677 -0.7964  0.1128
  175DOPC    HS21341   3.280   6.324   9.844 -1.7941 -0.7288 -0.6656
  175DOPC   O2121342   3.276   6.217  10.027 -0.0497  0.4694 -0.2263
  175DOPC   C2121343   3.191   6.295  10.094 -0.1749 -0.4489 -0.4256
  175DOPC   O2221344   3.133   6.396  10.052  0.5467 -0.4262 -0.3917
  175DOPC   C2221345   3.170   6.237  10.232 -0.8183  0.1174  0.5508
  175DOPC   H2R21346   3.261   6.175  10.244 -2.2869 -2.5100 -0.9798
  175DOPC   H2S21347   3.080   6.172  10.233  1.8927 -4.0528  1.4664
  175DOPC    C321348   3.129   6.166   9.829  0.1365 -0.2170  0.9225
  175DOPC    HX21349   3.124   6.188   9.721 -0.2675  0.8840  1.1484
  175DOPC    HY21350   3.045   6.218   9.880 -0.8280  1.8831 -2.5147
  175DOPC   O3121351   3.124   6.019   9.845 -0.1580 -0.2567 -0.4125
  175DOPC   C3121352   3.062   5.972   9.955 -0.5626  0.2463  0.1414
  175DOPC   O3221353   2.988   6.040  10.023  0.4613  0.4443  0.2621
  175DOPC   C3221354   3.101   5.824   9.971  0.2156  0.4761 -0.8699
  175DOPC   H2X21355   3.023   5.768  10.027  0.8644 -0.0032 -0.4335
  175DOPC   H2Y21356   3.113   5.770   9.874  1.4528  0.6779 -0.8518
  175DOPC   C2321357   3.169   6.338  10.349 -0.9020  0.4276  0.4454
  175DOPC   H3R21358   3.065   6.351  10.387 -0.7564 -3.0816  2.4828
  175DOPC   H3S21359   3.215   6.435  10.323  0.5949 -0.1559  0.8623
  175DOPC   C2421360   3.232   6.282  10.473  0.0480  0.4082  0.3244
  175DOPC   H4R21361   3.338   6.255  10.454 -0.1330 -0.4544  0.5111
  175DOPC   H4S21362   3.185   6.182  10.483  0.1218  0.1245 -1.8467
  175DOPC   C2521363   3.229   6.363  10.601 -0.1520  0.2941  0.2525
  175DOPC   H5R21364   3.126   6.401  10.590 -0.5491 -1.1385 -1.4466
  175DOPC   H5S21365   3.301   6.447  10.587  0.2904 -0.2719 -1.0713
  175DOPC   C2621366   3.250   6.284  10.730  0.2362 -0.7014 -0.3464
  175DOPC   H6R21367   3.358   6.260  10.734  0.1649 -1.1629  4.2288
  175DOPC   H6S21368   3.179   6.198  10.730 -0.4771 -0.1625  1.7016
  175DOPC   C2721369   3.209   6.373  10.846 -0.1750  0.9679  0.8945
  175DOPC   H7R21370   3.099   6.378  10.832 -0.4942 -2.4916  1.2274
  175DOPC   H7S21371   3.256   6.473  10.844  1.3140  0.2964  0.6353
  175DOPC   C2821372   3.235   6.328  10.994  0.3806 -0.3864 -0.1754
  175DOPC   H8R21373   3.224   6.422  11.052  0.7379 -1.3988  1.5710
  175DOPC   H8S21374   3.342   6.301  11.007  0.1406 -1.8770 -1.0184
  175DOPC   C2921375   3.150   6.213  11.034  0.1992  0.4502 -0.7626
  175DOPC   H9R21376   3.143   6.124  10.970  1.9772 -0.6593  0.5084
  175DOPC  C21021377   3.067   6.228  11.141  0.3060  0.1712  0.3230
  175DOPC  H10R21378   3.010   6.135  11.156 -0.6601  0.3372 -1.9293
  175DOPC  C21121379   3.058   6.337  11.242  0.0999 -0.0643 -0.4577
  175DOPC  H11R21380   2.966   6.395  11.219 -0.5624 -1.1547 -0.6582
  175DOPC  H11S21381   3.141   6.410  11.253  1.1310 -1.2316 -0.2692
  175DOPC  C21221382   3.037   6.283  11.384 -0.5917 -0.6102  0.7241
  175DOPC  H12R21383   2.948   6.218  11.373 -0.1351 -0.9075 -2.0617
  175DOPC  H12S21384   3.012   6.371  11.447  0.1993  0.6442 -0.6304
  175DOPC  C21321385   3.161   6.227  11.455  0.1406  0.3788 -0.4693
  175DOPC  H13R21386   3.239   6.304  11.474 -0.1237  0.6719 -0.5496
  175DOPC  H13S21387   3.197   6.164  11.372  1.5718  2.1453 -1.2706
  175DOPC  C21421388   3.120   6.157  11.582  0.4969  0.1684 -0.3723
  175DOPC  H14R21389   3.048   6.075  11.564 -1.2398  1.7682 -1.0289
  175DOPC  H14S21390   3.061   6.231  11.640  0.2586 -0.6440  0.4440
  175DOPC  C21521391   3.226   6.108  11.671  0.1183 -0.2444  0.0639
  175DOPC  H15R21392   3.291   6.193  11.700 -2.2966  1.6349  0.3147
  175DOPC  H15S21393   3.285   6.032  11.616  0.7753  0.8189 -0.7403
  175DOPC  C21621394   3.169   6.051  11.802  0.3947 -0.0874 -0.0770
  175DOPC  H16R21395   3.132   5.949  11.782  1.3941 -0.6847  0.9872
  175DOPC  H16S21396   3.091   6.119  11.844 -0.4897 -1.2281  0.1964
  175DOPC  C21721397   3.268   6.041  11.918  0.7049 -0.3962  0.2808
  175DOPC  H17R21398   3.318   6.139  11.928 -1.4971  0.7734  0.3232
  175DOPC  H17S21399   3.341   5.960  11.896  0.7648  0.2111 -1.9160
  175DOPC  C21821400   3.185   6.006  12.046 -0.4514  0.1518  0.0429
  175DOPC  H18R21401   3.148   5.901  12.038 -0.2774  0.0094  1.0209
  175DOPC  H18S21402   3.104   6.080  12.061 -0.5351 -0.2477  1.7302
  175DOPC  H18T21403   3.257   6.012  12.130  0.6488 -0.6455 -0.8061
  175DOPC   C3321404   3.227   5.816  10.064 -0.0118 -0.0112 -0.0744
  175DOPC   H3X21405   3.311   5.878  10.025 -1.2881 -0.3436 -3.7142
  175DOPC   H3Y21406   3.271   5.715  10.068  2.7344  1.1401  1.3217
  175DOPC   C3421407   3.191   5.841  10.209 -0.3650 -0.2753  0.0456
  175DOPC   H4X21408   3.115   5.767  10.240  0.0684 -0.7751 -0.0758
  175DOPC   H4Y21409   3.152   5.945  10.213  1.4523  0.4927 -0.7283
  175DOPC   C3521410   3.307   5.836  10.305  0.3484  0.7243  0.3006
  175DOPC   H5X21411   3.394   5.889  10.259  2.2588 -2.8132 -0.5442
  175DOPC   H5Y21412   3.338   5.729  10.312 -1.5382 -0.2291 -3.4628
  175DOPC   C3621413   3.283   5.890  10.445 -0.8766 -0.7835  0.1968
  175DOPC   H6X21414   3.273   6.000  10.441  2.6053 -0.3643  0.2688
  175DOPC   H6Y21415   3.182   5.854  10.475 -0.5135 -1.7242  0.3228
  175DOPC   C3721416   3.387   5.859  10.552 -0.1048 -0.5581 -0.1575
  175DOPC   H7X21417   3.407   5.751  10.543 -0.8209 -0.6691 -0.5043
  175DOPC   H7Y21418   3.480   5.914  10.530 -1.5282  2.0143 -0.1715
  175DOPC   C3821419   3.357   5.894  10.705 -0.6652  0.6771 -0.0886
  175DOPC   H8X21420   3.260   5.847  10.731 -0.9668  1.9157  1.1282
  175DOPC   H8Y21421   3.329   5.999  10.725  1.3298  1.0881  0.8209
  175DOPC   C3921422   3.459   5.828  10.790  0.3782 -0.6995 -0.0159
  175DOPC   H9X21423   3.477   5.723  10.764  2.1612 -1.2640  3.0409
  175DOPC  C31021424   3.532   5.888  10.886 -0.4136 -0.0312  0.1153
  175DOPC  H10X21425   3.610   5.835  10.941  0.0797  0.8835  0.3095
  175DOPC  C31121426   3.518   6.033  10.926  0.3289 -0.0953 -0.0963
  175DOPC  H11X21427   3.419   6.081  10.912  0.9487  1.6451  1.0479
  175DOPC  H11Y21428   3.585   6.099  10.867 -0.2147 -1.0573 -1.8373
  175DOPC  C31221429   3.551   6.044  11.078  0.2443  0.1307 -0.0946
  175DOPC  H12X21430   3.568   6.153  11.096  0.4383 -0.1888  1.8658
  175DOPC  H12Y21431   3.646   5.989  11.096  0.3513 -1.0777 -3.6131
  175DOPC  C31321432   3.443   5.996  11.166 -0.4330  0.8384 -0.7842
  175DOPC  H13X21433   3.345   6.046  11.148 -0.3789  1.4017  0.3770
  175DOPC  H13Y21434   3.430   5.888  11.143  2.0155  0.5371 -1.0005
  175DOPC  C31421435   3.466   6.025  11.317 -0.2587 -0.5014  0.9056
  175DOPC  H14X21436   3.503   6.128  11.336 -2.2068  0.3067  0.5410
  175DOPC  H14Y21437   3.365   6.009  11.361 -0.3346  0.3869  1.0717
  175DOPC  C31521438   3.545   5.910  11.385  0.2576  0.6474 -0.0023
  175DOPC  H15X21439   3.651   5.912  11.354 -0.0240  1.2736 -0.9625
  175DOPC  H15Y21440   3.499   5.812  11.362 -0.5533  0.4451  2.2443
  175DOPC  C31621441   3.547   5.927  11.549  0.4203 -0.5669  0.2454
  175DOPC  H16X21442   3.444   5.920  11.591  0.1850 -2.4135 -0.5501
  175DOPC  H16Y21443   3.604   5.839  11.586  1.6429 -0.2231 -0.7570
  175DOPC  C31721444   3.612   6.067  11.599 -0.4223 -0.4311  0.0383
  175DOPC  H17X21445   3.713   6.080  11.556 -0.4773  1.3806  0.3921
  175DOPC  H17Y21446   3.550   6.144  11.548  1.5907  0.8295 -0.6079
  175DOPC  C31821447   3.626   6.090  11.754 -0.1245 -1.1195  0.0506
  175DOPC  H18X21448   3.529   6.096  11.807  0.1778 -0.5477  0.5520
  175DOPC  H18Y21449   3.692   6.011  11.795  0.1913 -0.5319  0.6849
  175DOPC  H18Z21450   3.683   6.185  11.763 -0.4313 -0.9962  0.7494
  176DOPC     N21451   5.011   2.136   9.218  0.3764  0.0388  0.2288
  176DOPC   C1221452   4.948   2.131   9.360  0.1334  0.3300 -0.0357
  176DOPC  H12A21453   4.873   2.208   9.363 -1.2840 -0.9852  3.0285
  176DOPC  H12B21454   5.015   2.181   9.429 -0.2297 -0.4902  0.9391
  176DOPC   C1321455   5.117   2.033   9.203  0.6861  0.4009 -0.2574
  176DOPC  H13A21456   5.167   2.042   9.108  0.5261  0.8399 -0.3044
  176DOPC  H13B21457   5.187   2.023   9.285 -1.1780 -3.5633  1.1308
  176DOPC  H13C21458   5.076   1.933   9.196 -1.4980  1.1426  0.8165
  176DOPC   C1421459   5.076   2.273   9.189 -0.9691 -0.0257  0.0116
  176DOPC  H14A21460   5.014   2.361   9.202  2.0463  2.4725 -1.1566
  176DOPC  H14B21461   5.171   2.279   9.241 -1.1718 -1.7170  0.6481
  176DOPC  H14C21462   5.106   2.284   9.086  0.9675  0.6124  0.6102
  176DOPC   C1521463   4.898   2.109   9.118 -0.0735 -0.2801 -0.4609
  176DOPC  H15A21464   4.855   2.014   9.145  0.6353 -0.4720  0.0446
  176DOPC  H15B21465   4.940   2.116   9.018 -0.5699  3.4271 -0.5305
  176DOPC  H15C21466   4.815   2.177   9.117 -0.1644 -0.3186 -2.8728
  176DOPC   C1121467   4.891   1.998   9.426 -0.1225  0.2443  0.0015
  176DOPC  H11A21468   4.969   1.924   9.454 -0.1497 -0.7706 -2.3672
  176DOPC  H11B21469   4.843   2.042   9.516  3.4171  2.0013  1.2084
  176DOPC     P21470   4.690   1.863   9.391  0.8013  0.3430  0.1846
  176DOPC   O1321471   4.661   1.752   9.299  0.1512 -0.1520  0.0913
  176DOPC   O1421472   4.582   1.957   9.425 -0.3108 -0.3227  0.0194
  176DOPC   O1221473   4.803   1.937   9.332 -0.5618  0.9097 -0.2006
  176DOPC   O1121474   4.757   1.804   9.521 -0.1375 -0.1400  0.6275
  176DOPC    C121475   4.783   1.660   9.517 -0.0421 -0.7659 -0.4379
  176DOPC    HA21476   4.872   1.634   9.578 -0.0909 -0.4376 -0.2191
  176DOPC    HB21477   4.813   1.618   9.419  3.1400 -0.1563  0.1757
  176DOPC    C221478   4.669   1.574   9.576  0.0591  0.2057 -0.2291
  176DOPC    HS21479   4.582   1.560   9.508  0.8080 -2.3194 -0.7676
  176DOPC   O2121480   4.635   1.625   9.702  0.0202 -0.3658 -0.9458
  176DOPC   C2121481   4.503   1.612   9.738  0.6211  0.4303 -0.3639
  176DOPC   O2221482   4.416   1.566   9.663 -0.4831  0.3603  0.4530
  176DOPC   C2221483   4.505   1.668   9.883 -0.0050 -0.3332  0.1053
  176DOPC   H2R21484   4.469   1.773   9.895  2.9180  0.8533 -0.5949
  176DOPC   H2S21485   4.605   1.668   9.932 -0.4825  2.9766  1.3953
  176DOPC    C321486   4.718   1.429   9.606 -0.4434  0.3830  0.0548
  176DOPC    HX21487   4.794   1.440   9.686  0.9221 -0.0833 -1.1284
  176DOPC    HY21488   4.770   1.393   9.514 -0.8395  0.3629 -0.1650
  176DOPC   O3121489   4.618   1.327   9.640 -0.3905 -0.0990 -0.2385
  176DOPC   C3121490   4.573   1.246   9.541 -0.0753 -0.3570  0.4204
  176DOPC   O3221491   4.600   1.263   9.427 -0.3537  0.5928  0.3542
  176DOPC   C3221492   4.456   1.161   9.587 -0.2828  0.1224 -0.0165
  176DOPC   H2X21493   4.446   1.174   9.697  2.0669 -0.7470  0.3625
  176DOPC   H2Y21494   4.368   1.209   9.538 -1.3972 -0.4875  1.3092
  176DOPC   C2321495   4.430   1.584   9.981  0.2528 -0.0437  0.3443
  176DOPC   H3R21496   4.477   1.484   9.967 -0.2272 -0.0964 -1.0229
  176DOPC   H3S21497   4.324   1.585   9.949  1.0451 -0.5823 -2.5581
  176DOPC   C2421498   4.444   1.626  10.127 -0.1817  0.1286  0.4095
  176DOPC   H4R21499   4.397   1.727  10.126 -0.7592 -0.1360  0.2172
  176DOPC   H4S21500   4.551   1.633  10.156 -0.1770 -1.4800  0.8558
  176DOPC   C2521501   4.367   1.533  10.222 -0.3777 -0.4237  0.4997
  176DOPC   H5R21502   4.431   1.442  10.229  1.1445  0.5363 -0.2969
  176DOPC   H5S21503   4.264   1.512  10.188  0.1084  0.2405 -1.5375
  176DOPC   C2621504   4.344   1.589  10.362  0.2297 -0.1997  0.2288
  176DOPC   H6R21505   4.251   1.649  10.366  1.1720  1.3691 -0.2507
  176DOPC   H6S21506   4.439   1.643  10.382  0.3227  0.6899 -2.2795
  176DOPC   C2721507   4.320   1.477  10.464  0.8167  0.4385 -0.0696
  176DOPC   H7R21508   4.413   1.416  10.462 -0.4990 -1.6766  0.0804
  176DOPC   H7S21509   4.238   1.410  10.432 -0.1132  0.8518  1.3750
  176DOPC   C2821510   4.294   1.523  10.608  0.3575  0.0276 -0.3411
  176DOPC   H8R21511   4.264   1.431  10.662  1.8042 -1.0413 -1.3013
  176DOPC   H8S21512   4.206   1.591  10.608 -0.3685 -0.8712  0.4868
  176DOPC   C2921513   4.415   1.593  10.669  1.7163  0.6276  0.2060
  176DOPC   H9R21514   4.449   1.686  10.620  0.7272  2.1336  2.2193
  176DOPC  C21021515   4.483   1.554  10.779  0.0095  0.6823 -0.1416
  176DOPC  H10R21516   4.567   1.613  10.819  0.2974  0.5579 -0.5513
  176DOPC  C21121517   4.455   1.440  10.877  0.5779 -0.2022  0.1250
  176DOPC  H11R21518   4.509   1.343  10.864 -1.2323 -1.1640 -0.5563
  176DOPC  H11S21519   4.345   1.423  10.878  0.1947  1.9791  1.2500
  176DOPC  C21221520   4.484   1.491  11.021 -0.5323  0.0323 -0.0314
  176DOPC  H12R21521   4.438   1.591  11.032 -1.3104 -0.2186 -0.8364
  176DOPC  H12S21522   4.594   1.501  11.026 -0.5588 -0.3100  2.9274
  176DOPC  C21321523   4.434   1.385  11.129  0.2478  0.0624 -0.0571
  176DOPC  H13R21524   4.492   1.290  11.120 -0.7752 -0.6370  0.5780
  176DOPC  H13S21525   4.326   1.369  11.108  0.9250 -1.4072 -2.9768
  176DOPC  C21421526   4.461   1.438  11.272 -0.0596 -1.1046 -0.4676
  176DOPC  H14R21527   4.418   1.538  11.294 -0.4461 -1.1521 -0.9786
  176DOPC  H14S21528   4.567   1.462  11.293 -0.8978  1.5945  1.2259
  176DOPC  C21521529   4.404   1.342  11.377  0.2678  0.0144 -0.5175
  176DOPC  H15R21530   4.467   1.251  11.375 -1.3651 -1.2974  1.8866
  176DOPC  H15S21531   4.305   1.309  11.337  1.4478 -1.6155 -2.2202
  176DOPC  C21621532   4.410   1.395  11.518  0.3782 -0.1330  0.8166
  176DOPC  H16R21533   4.337   1.479  11.518 -0.1203 -0.5598  0.5385
  176DOPC  H16S21534   4.514   1.433  11.528  0.2554  0.7714 -0.9652
  176DOPC  C21721535   4.381   1.289  11.629 -0.6129  0.1646 -0.3886
  176DOPC  H17R21536   4.369   1.327  11.732 -0.8663 -2.0702  0.4535
  176DOPC  H17S21537   4.475   1.228  11.628 -0.3641  0.4341  1.7210
  176DOPC  C21821538   4.269   1.192  11.591  0.1362  0.6106 -0.1476
  176DOPC  H18R21539   4.174   1.245  11.568 -0.6873 -1.5350 -2.0122
  176DOPC  H18S21540   4.243   1.139  11.685  0.4386 -2.8217 -1.8548
  176DOPC  H18T21541   4.297   1.130  11.503 -0.3249 -0.1723  0.2533
  176DOPC   C3321542   4.467   1.014   9.558  0.1568 -0.0812  0.9589
  176DOPC   H3X21543   4.516   0.994   9.461 -1.2791 -0.3309  0.2675
  176DOPC   H3Y21544   4.363   0.976   9.561 -0.2542  0.7406 -1.1980
  176DOPC   C3421545   4.540   0.929   9.664 -0.0102  0.5683  0.9665
  176DOPC   H4X21546   4.632   0.982   9.695 -0.6065  1.0985  1.8547
  176DOPC   H4Y21547   4.565   0.828   9.624  0.9975  1.3363 -0.4066
  176DOPC   C3521548   4.443   0.905   9.781  0.4493  0.0233  0.1584
  176DOPC   H5X21549   4.368   0.829   9.747  0.3161 -0.0856  0.6868
  176DOPC   H5Y21550   4.397   1.000   9.816 -0.4279  0.4618 -2.0185
  176DOPC   C3621551   4.511   0.845   9.905 -0.6177 -0.4261 -0.1252
  176DOPC   H6X21552   4.555   0.745   9.887 -2.0600 -1.0754 -0.1660
  176DOPC   H6Y21553   4.601   0.909   9.920 -1.0748 -0.1608  1.7245
  176DOPC   C3721554   4.419   0.826  10.032 -0.4398  0.4196  0.1718
  176DOPC   H7X21555   4.367   0.913  10.076  0.4973 -0.7791  4.1049
  176DOPC   H7Y21556   4.350   0.745   9.999  2.6336 -2.9112  1.2132
  176DOPC   C3821557   4.498   0.761  10.154 -0.9966 -0.1141 -0.0963
  176DOPC   H8X21558   4.539   0.665  10.115 -0.2357  0.2971 -0.3461
  176DOPC   H8Y21559   4.422   0.733  10.230 -0.0367 -1.0923  0.5456
  176DOPC   C3921560   4.613   0.841  10.210  0.0153 -1.2105  0.1115
  176DOPC   H9X21561   4.699   0.871  10.147  0.2668  1.2818  1.5226
  176DOPC  C31021562   4.633   0.865  10.341  0.0195  0.7597  0.4757
  176DOPC  H10X21563   4.730   0.909  10.370  0.2237  0.7597 -0.1906
  176DOPC  C31121564   4.543   0.829  10.456 -0.5232 -0.0675 -0.1906
  176DOPC  H11X21565   4.519   0.720  10.463  1.1561 -0.6913 -2.8905
  176DOPC  H11Y21566   4.447   0.883  10.443 -0.3929 -0.5627 -4.5901
  176DOPC  C31221567   4.611   0.866  10.586  0.0796  0.3159 -0.2420
  176DOPC  H12X21568   4.622   0.977  10.590  0.0763  0.3060  0.1198
  176DOPC  H12Y21569   4.710   0.817  10.596  0.0886  0.5017  0.7069
  176DOPC  C31321570   4.525   0.825  10.716 -0.1811 -0.4203  0.5167
  176DOPC  H13X21571   4.419   0.853  10.699 -0.2943 -0.8066  0.5673
  176DOPC  H13Y21572   4.526   0.714  10.721 -0.7365 -0.4714 -0.3180
  176DOPC  C31421573   4.571   0.877  10.851  0.1248  0.6769  0.2041
  176DOPC  H14X21574   4.659   0.821  10.889 -0.9400 -0.1525  1.5668
  176DOPC  H14Y21575   4.616   0.978  10.844  1.4811  0.0095 -1.1707
  176DOPC  C31521576   4.459   0.876  10.963 -0.1890 -0.3281 -0.9439
  176DOPC  H15X21577   4.441   0.767  10.979  2.5830 -0.5224  1.6861
  176DOPC  H15Y21578   4.377   0.936  10.918 -0.1298  1.6315  1.3846
  176DOPC  C31621579   4.506   0.931  11.101  0.2454  0.9487 -0.2973
  176DOPC  H16X21580   4.589   0.862  11.125 -0.1519  1.1035  1.7269
  176DOPC  H16Y21581   4.536   1.038  11.101 -1.8139  1.6314  2.1356
  176DOPC  C31721582   4.404   0.919  11.215  0.1968  0.2017 -0.1459
  176DOPC  H17X21583   4.322   0.988  11.187 -2.4133 -2.3889  0.5955
  176DOPC  H17Y21584   4.365   0.815  11.207 -4.8634  1.9487 -3.1356
  176DOPC  C31821585   4.462   0.947  11.357 -0.3227 -0.1736 -0.2376
  176DOPC  H18X21586   4.546   0.877  11.375  0.5362  0.8087 -0.3567
  176DOPC  H18Y21587   4.497   1.053  11.360  2.5695 -1.0608  0.0195
  176DOPC  H18Z21588   4.390   0.927  11.440  2.8844  0.4496  2.9808
  177DOPC     N21589   5.484   5.572   9.066  0.6464  0.3639  0.7784
  177DOPC   C1221590   5.570   5.670   9.155 -0.4260 -0.4431  0.3840
  177DOPC  H12A21591   5.541   5.764   9.110  0.3727  0.1179  1.0284
  177DOPC  H12B21592   5.676   5.656   9.143  0.0453  2.1287  0.9021
  177DOPC   C1321593   5.537   5.555   8.926 -1.0073 -0.1675 -0.4106
  177DOPC  H13A21594   5.536   5.649   8.872 -0.9574 -0.7912 -1.5455
  177DOPC  H13B21595   5.635   5.509   8.923 -0.8011  0.2743 -0.7533
  177DOPC  H13C21596   5.469   5.488   8.875 -1.2903 -1.7745  1.9426
  177DOPC   C1421597   5.336   5.608   9.059 -0.2110  0.6311  0.3211
  177DOPC  H14A21598   5.289   5.545   8.986 -0.6345  0.5813  0.6348
  177DOPC  H14B21599   5.290   5.593   9.155  0.2414 -0.8052  0.3370
  177DOPC  H14C21600   5.316   5.708   9.022  0.2079  1.5965  2.5328
  177DOPC   C1521601   5.494   5.438   9.128 -0.1126 -0.0110 -0.4294
  177DOPC  H15A21602   5.596   5.402   9.131  0.2083  0.8968 -0.2353
  177DOPC  H15B21603   5.445   5.364   9.066 -1.0850  0.2636 -0.0082
  177DOPC  H15C21604   5.450   5.445   9.227 -0.9106 -0.6406 -0.7185
  177DOPC   C1121605   5.524   5.675   9.300  0.3286 -0.0369 -0.4680
  177DOPC  H11A21606   5.535   5.779   9.337  0.2820 -0.4648  0.8073
  177DOPC  H11B21607   5.413   5.665   9.305  0.3741 -1.1070 -1.1797
  177DOPC     P21608   5.734   5.587   9.429 -0.0714 -0.6627  0.1917
  177DOPC   O1321609   5.792   5.702   9.354  0.1888  0.0709  0.3618
  177DOPC   O1421610   5.797   5.458   9.416  0.2792  0.0332 -0.2098
  177DOPC   O1221611   5.576   5.571   9.386 -0.1295  0.1810 -0.1317
  177DOPC   O1121612   5.748   5.619   9.581 -0.2600  0.7062 -0.2199
  177DOPC    C121613   5.646   5.580   9.670  0.0787  0.3029  0.2280
  177DOPC    HA21614   5.588   5.489   9.644 -0.0326  0.4185  0.0681
  177DOPC    HB21615   5.578   5.668   9.677  0.2057  0.8232 -3.2275
  177DOPC    C221616   5.702   5.553   9.810 -0.6173  0.3514 -0.1358
  177DOPC    HS21617   5.625   5.540   9.889 -0.2310 -0.9972  0.0504
  177DOPC   O2121618   5.790   5.661   9.848  0.3031 -0.1857 -0.2608
  177DOPC   C2121619   5.759   5.732   9.956  0.0508  0.1058  0.3061
  177DOPC   O2221620   5.652   5.726  10.012 -0.1356  0.3804 -0.5655
  177DOPC   C2221621   5.880   5.805  10.004  0.3624  0.3666 -1.1133
  177DOPC   H2R21622   5.918   5.863   9.917  1.4339  1.9235  0.3260
  177DOPC   H2S21623   5.957   5.730  10.031 -0.5464  0.1148  0.9559
  177DOPC    C321624   5.778   5.419   9.819 -0.0333 -0.3376 -0.7451
  177DOPC    HX21625   5.861   5.426   9.745 -0.9482  1.3964 -1.6492
  177DOPC    HY21626   5.713   5.334   9.792 -0.6369  0.6358 -2.4869
  177DOPC   O3121627   5.827   5.403   9.961  0.0143 -0.2759  0.3396
  177DOPC   C3121628   5.946   5.344   9.972  0.2129 -0.0546 -0.1085
  177DOPC   O3221629   6.022   5.319   9.879 -0.1866  0.0409 -0.1224
  177DOPC   C3221630   5.975   5.316  10.121  0.0527 -0.2731  0.3972
  177DOPC   H2X21631   5.893   5.243  10.142  0.3900 -0.9604 -0.5986
  177DOPC   H2Y21632   6.075   5.269  10.128  0.2530 -0.0038 -0.6167
  177DOPC   C2321633   5.843   5.890  10.130  0.6003  0.3898  0.3590
  177DOPC   H3R21634   5.824   5.824  10.217 -0.3012  2.5666  1.8857
  177DOPC   H3S21635   5.756   5.952  10.101  1.7213  0.6061 -2.9282
  177DOPC   C2421636   5.962   5.976  10.176  0.1137  0.0169  0.4421
  177DOPC   H4R21637   6.005   6.031  10.090 -2.0919  0.9160 -0.1682
  177DOPC   H4S21638   6.037   5.910  10.224  0.0623 -0.6295 -0.3527
  177DOPC   C2521639   5.915   6.082  10.281  0.5131 -0.8445  0.3492
  177DOPC   H5R21640   5.862   6.158  10.220  1.4588  0.2843  0.8946
  177DOPC   H5S21641   6.005   6.138  10.314 -0.9526  2.2408 -0.4713
  177DOPC   C2621642   5.834   6.036  10.405 -0.1322  0.0030 -0.2699
  177DOPC   H6R21643   5.742   5.981  10.376 -0.1056 -0.4982  0.5756
  177DOPC   H6S21644   5.798   6.129  10.454  0.9465  0.6130 -0.6036
  177DOPC   C2721645   5.922   5.947  10.498 -0.2270  0.1399  0.3871
  177DOPC   H7R21646   5.974   5.869  10.439 -1.7425 -1.3087  0.9135
  177DOPC   H7S21647   5.848   5.883  10.550 -0.4796 -0.3943 -0.5885
  177DOPC   C2821648   5.999   6.020  10.603 -0.4895  0.1690  0.0494
  177DOPC   H8R21649   6.037   6.100  10.535 -1.2170  1.5720  1.2289
  177DOPC   H8S21650   6.082   5.962  10.648 -0.4659  1.1612  1.3640
  177DOPC   C2921651   5.917   6.082  10.715 -0.9427  0.2560  0.1817
  177DOPC   H9R21652   5.843   6.149  10.667  1.3043  0.4862 -3.3370
  177DOPC  C21021653   5.925   6.072  10.850  0.2821 -0.0703  0.7237
  177DOPC  H10R21654   5.853   6.123  10.915 -0.4257 -0.7079  0.4455
  177DOPC  C21121655   6.012   5.969  10.922  0.2685 -0.9376  0.9881
  177DOPC  H11R21656   6.114   5.972  10.876 -1.4485 -0.8915 -3.2536
  177DOPC  H11S21657   5.981   5.871  10.882 -0.9414  0.0228 -0.5613
  177DOPC  C21221658   6.018   5.975  11.070 -0.1699 -0.0185 -0.0441
  177DOPC  H12R21659   6.088   5.903  11.117  0.7470  0.6116 -0.4343
  177DOPC  H12S21660   5.917   5.963  11.116 -0.0925 -0.5953 -0.0143
  177DOPC  C21321661   6.050   6.115  11.124 -0.5918  0.6542 -0.5042
  177DOPC  H13R21662   5.987   6.195  11.078 -2.7066 -1.2143 -1.0435
  177DOPC  H13S21663   6.154   6.146  11.102  0.4778 -2.5032 -0.2997
  177DOPC  C21421664   6.032   6.120  11.276  0.1507 -0.2665 -0.8266
  177DOPC  H14R21665   5.944   6.064  11.315  1.1612 -1.5858 -0.3552
  177DOPC  H14S21666   6.030   6.228  11.302  2.1642 -0.3093 -0.3556
  177DOPC  C21521667   6.144   6.052  11.360 -0.6334 -0.1625 -0.2368
  177DOPC  H15R21668   6.241   6.099  11.335  0.0675 -0.9510  0.9293
  177DOPC  H15S21669   6.155   5.946  11.328  1.9312  0.2978 -1.1272
  177DOPC  C21621670   6.111   6.070  11.499  0.0849  0.3320  0.0939
  177DOPC  H16R21671   6.040   5.987  11.520  1.0143 -0.7798 -1.0140
  177DOPC  H16S21672   6.069   6.168  11.529  1.0289  1.0050 -0.7351
  177DOPC  C21721673   6.237   6.037  11.582 -0.3713 -0.2673  0.0562
  177DOPC  H17R21674   6.321   6.095  11.538  0.5364 -1.9606 -0.5056
  177DOPC  H17S21675   6.255   5.928  11.577 -1.1239 -0.3876 -0.1712
  177DOPC  C21821676   6.217   6.078  11.725 -0.1608 -0.5416 -0.8167
  177DOPC  H18R21677   6.199   6.186  11.744  0.5416 -0.2909 -1.5405
  177DOPC  H18S21678   6.307   6.039  11.777 -0.3159 -2.1393 -1.7056
  177DOPC  H18T21679   6.128   6.035  11.775 -0.7709  1.2326 -0.2963
  177DOPC   C3321680   5.963   5.434  10.218 -0.3648 -0.3619 -0.0517
  177DOPC   H3X21681   5.871   5.493  10.197 -0.6569 -1.5662 -2.5430
  177DOPC   H3Y21682   6.049   5.498  10.190  0.8696 -2.4256 -1.2326
  177DOPC   C3421683   5.968   5.393  10.356 -0.7045 -0.1985  0.8818
  177DOPC   H4X21684   6.067   5.345  10.373  1.8768  4.0376 -0.8376
  177DOPC   H4Y21685   5.897   5.308  10.368  0.5030 -1.3381  0.2566
  177DOPC   C3521686   5.919   5.507  10.450  0.0566  1.1088  0.5094
  177DOPC   H5X21687   5.809   5.522  10.442  0.1500  1.3109 -0.5674
  177DOPC   H5Y21688   5.962   5.602  10.413  0.7937  1.0464  1.1812
  177DOPC   C3621689   5.972   5.481  10.593  0.0763 -0.0681 -0.1003
  177DOPC   H6X21690   5.927   5.387  10.633  1.5286 -0.4177  0.7622
  177DOPC   H6Y21691   6.083   5.478  10.587  0.1277  0.0418  0.7902
  177DOPC   C3721692   5.924   5.596  10.685  0.1207 -0.6687 -0.1137
  177DOPC   H7X21693   5.969   5.690  10.648  1.8392 -0.9378  1.1944
  177DOPC   H7Y21694   5.815   5.617  10.679  0.7726  3.6101  0.3645
  177DOPC   C3821695   5.955   5.564  10.837 -0.0828 -0.2767  1.2970
  177DOPC   H8X21696   5.935   5.654  10.899 -1.1377  0.5009 -0.1096
  177DOPC   H8Y21697   6.063   5.542  10.848  0.3916  1.4293  0.4469
  177DOPC   C3921698   5.867   5.452  10.883  0.0165  0.0757 -0.4475
  177DOPC   H9X21699   5.776   5.438  10.823  0.0560 -1.7117 -0.1319
  177DOPC  C31021700   5.864   5.397  11.000 -0.2863  0.4081 -0.0036
  177DOPC  H10X21701   5.784   5.329  11.033 -0.0007 -0.1717 -0.5079
  177DOPC  C31121702   5.964   5.421  11.114 -0.9503  0.0487  0.6980
  177DOPC  H11X21703   6.066   5.457  11.089 -0.7616 -0.0381  1.3344
  177DOPC  H11Y21704   5.982   5.323  11.163  2.1262  0.5509  0.7530
  177DOPC  C31221705   5.931   5.524  11.220 -0.0164  0.1846 -0.2121
  177DOPC  H12X21706   5.830   5.515  11.265 -0.2176  2.0773 -0.1727
  177DOPC  H12Y21707   5.917   5.619  11.163 -0.7651  0.7465  0.8630
  177DOPC  C31321708   6.033   5.534  11.335 -0.2205 -0.7879 -0.9921
  177DOPC  H13X21709   6.034   5.436  11.387  1.1514  0.0255  0.5902
  177DOPC  H13Y21710   6.130   5.548  11.283 -0.3666  0.2521 -0.9986
  177DOPC  C31421711   5.986   5.648  11.433 -1.0333 -0.4444  0.6998
  177DOPC  H14X21712   5.984   5.751  11.390 -0.8482 -0.0912  1.5183
  177DOPC  H14Y21713   5.879   5.630  11.457 -1.1195  0.4788  1.0704
  177DOPC  C31521714   6.070   5.638  11.566  0.6054  0.3351 -0.2873
  177DOPC  H15X21715   6.174   5.672  11.546  0.1657  2.2404  0.4247
  177DOPC  H15Y21716   6.080   5.528  11.575 -0.4027 -0.0303 -2.8349
  177DOPC  C31621717   6.016   5.710  11.691 -0.2845 -0.3052 -0.4698
  177DOPC  H16X21718   5.982   5.812  11.665  1.2255  0.7738  1.5072
  177DOPC  H16Y21719   5.937   5.640  11.726 -0.5249 -1.3699 -2.9254
  177DOPC  C31721720   6.110   5.714  11.814 -0.4484 -0.3117 -0.3169
  177DOPC  H17X21721   6.211   5.751  11.791  0.3697 -0.6981  2.2468
  177DOPC  H17Y21722   6.077   5.784  11.894  1.1988 -0.5126  0.5702
  177DOPC  C31821723   6.130   5.576  11.877  0.3133 -0.0658  0.2679
  177DOPC  H18X21724   6.216   5.578  11.948  1.4133 -1.1826 -0.9931
  177DOPC  H18Y21725   6.038   5.530  11.919 -0.6500  2.4394  1.0898
  177DOPC  H18Z21726   6.153   5.505  11.795  0.7475  1.7199 -1.2404
  178DOPC     N21727   3.351   5.358   9.025  0.5475 -0.5654  0.1301
  178DOPC   C1221728   3.445   5.382   9.141 -0.6637 -0.1639 -0.2513
  178DOPC  H12A21729   3.528   5.439   9.101 -0.4052 -1.5104 -1.7409
  178DOPC  H12B21730   3.495   5.290   9.170  0.7771  0.3909 -0.8610
  178DOPC   C1321731   3.408   5.326   8.896  0.1467 -0.3635 -0.3153
  178DOPC  H13A21732   3.466   5.236   8.903 -0.3521 -0.7516 -1.0556
  178DOPC  H13B21733   3.323   5.320   8.829  0.4762 -0.3381 -0.7413
  178DOPC  H13C21734   3.467   5.401   8.845  1.0196 -1.1562 -0.4847
  178DOPC   C1421735   3.262   5.481   9.006  0.9326  0.2970 -0.2431
  178DOPC  H14A21736   3.212   5.497   9.101 -0.3989 -0.5183 -0.7883
  178DOPC  H14B21737   3.318   5.573   8.993  0.7346  0.5270  0.4770
  178DOPC  H14C21738   3.197   5.459   8.923 -1.6828 -1.6163  2.1265
  178DOPC   C1521739   3.259   5.255   9.080 -0.6342 -0.0644  0.7010
  178DOPC  H15A21740   3.219   5.293   9.173 -2.5986  0.1637 -0.1763
  178DOPC  H15B21741   3.304   5.158   9.088  3.0030  1.4267  0.0787
  178DOPC  H15C21742   3.167   5.247   9.024  0.3163 -0.6986 -0.8042
  178DOPC   C1121743   3.394   5.465   9.263 -0.4312  0.0785 -1.0217
  178DOPC  H11A21744   3.477   5.488   9.333  0.7634  1.1798 -2.7076
  178DOPC  H11B21745   3.374   5.570   9.234  1.5429  0.8258  0.1339
  178DOPC     P21746   3.304   5.294   9.425  0.1100  0.1638 -0.0704
  178DOPC   O1321747   3.410   5.210   9.371  0.7863 -0.6640 -0.1358
  178DOPC   O1421748   3.164   5.236   9.449  0.1274 -0.1104  0.2902
  178DOPC   O1221749   3.279   5.409   9.325 -1.1921 -0.0208  0.0535
  178DOPC   O1121750   3.356   5.367   9.548  0.0055 -0.1760 -0.6234
  178DOPC    C121751   3.294   5.484   9.601 -0.8263 -0.0546 -0.2822
  178DOPC    HA21752   3.201   5.507   9.545 -0.4496  0.8034 -0.5793
  178DOPC    HB21753   3.369   5.566   9.587  1.0312 -1.1611  2.2687
  178DOPC    C221754   3.267   5.471   9.756  0.1585  0.1242  0.2116
  178DOPC    HS21755   3.217   5.563   9.791 -1.8063  1.0900 -4.4839
  178DOPC   O2121756   3.390   5.444   9.823  0.5624  0.7984 -0.1145
  178DOPC   C2121757   3.453   5.556   9.869 -0.3503  0.3169 -0.0336
  178DOPC   O2221758   3.433   5.668   9.829 -0.0319  0.0306 -0.1516
  178DOPC   C2221759   3.551   5.515   9.975  0.1343  0.0019 -0.2640
  178DOPC   H2R21760   3.646   5.572   9.971  2.2289 -3.1786  0.0200
  178DOPC   H2S21761   3.572   5.407   9.955 -0.0714 -0.3649  1.3743
  178DOPC    C321762   3.167   5.363   9.783 -0.0375  0.3921  0.0549
  178DOPC    HX21763   3.212   5.271   9.741  0.1735  1.5235 -2.3763
  178DOPC    HY21764   3.077   5.376   9.718 -0.8212  0.8389  1.1951
  178DOPC   O3121765   3.127   5.368   9.925  0.0816  0.0872 -0.2944
  178DOPC   C3121766   3.018   5.434   9.956 -0.4445 -0.4376 -0.6910
  178DOPC   O3221767   2.947   5.504   9.884  0.6941  0.2408  0.0393
  178DOPC   C3221768   2.984   5.404  10.105  0.0232 -0.3154  0.1604
  178DOPC   H2X21769   2.898   5.473  10.119  0.1614  0.0592 -0.7030
  178DOPC   H2Y21770   2.939   5.303  10.119  1.2669 -0.8128  0.6697
  178DOPC   C2321771   3.493   5.546  10.116  0.3340  0.2911 -0.1083
  178DOPC   H3R21772   3.395   5.495  10.123 -0.2755  1.3111 -0.8797
  178DOPC   H3S21773   3.469   5.655  10.121 -2.1984 -0.1194 -1.5765
  178DOPC   C2421774   3.592   5.507  10.226 -0.2779  0.3472 -0.4813
  178DOPC   H4R21775   3.682   5.556  10.184  0.8880 -2.5796 -1.7289
  178DOPC   H4S21776   3.623   5.400  10.238  1.3689  0.8659  0.2097
  178DOPC   C2521777   3.552   5.549  10.372  0.2994 -0.4707  0.0172
  178DOPC   H5R21778   3.444   5.534  10.395 -0.5926  2.0488 -1.9642
  178DOPC   H5S21779   3.556   5.660  10.377 -0.4778 -0.3843 -0.9102
  178DOPC   C2621780   3.640   5.492  10.484  0.4775 -0.1022  0.0783
  178DOPC   H6R21781   3.740   5.541  10.477 -0.0330  0.8471 -0.8561
  178DOPC   H6S21782   3.652   5.385  10.460 -1.1004 -0.2295 -0.2410
  178DOPC   C2721783   3.584   5.499  10.627  0.5046 -0.0501 -0.3475
  178DOPC   H7R21784   3.480   5.461  10.630  0.3875  0.3028  0.2097
  178DOPC   H7S21785   3.591   5.607  10.651  0.4827 -0.3172  0.9726
  178DOPC   C2821786   3.670   5.422  10.726 -0.1618 -0.2356  0.2619
  178DOPC   H8R21787   3.671   5.318  10.689  2.4367 -0.6171  1.2176
  178DOPC   H8S21788   3.616   5.410  10.823  3.1227  1.7446  2.5742
  178DOPC   C2921789   3.808   5.469  10.761  0.1184  0.2233  0.7900
  178DOPC   H9R21790   3.881   5.452  10.680 -0.9971 -1.8398  0.1362
  178DOPC  C21021791   3.852   5.535  10.870  0.0213 -0.2228  0.7080
  178DOPC  H10R21792   3.958   5.564  10.859 -0.1469 -0.0411 -0.5133
  178DOPC  C21121793   3.774   5.587  10.988  0.1626  0.1703 -0.3931
  178DOPC  H11R21794   3.664   5.576  10.987  0.2068 -1.0750  1.5728
  178DOPC  H11S21795   3.781   5.698  10.993 -1.2803  0.2538  0.0386
  178DOPC  C21221796   3.827   5.555  11.132  0.2331  0.0404 -0.3557
  178DOPC  H12R21797   3.742   5.595  11.191 -1.0658 -0.1486 -2.0087
  178DOPC  H12S21798   3.917   5.619  11.139 -0.1138  0.7029 -1.7836
  178DOPC  C21321799   3.852   5.400  11.166  0.2025 -0.8067  0.6248
  178DOPC  H13R21800   3.926   5.359  11.094 -1.0483  1.4508 -2.1361
  178DOPC  H13S21801   3.762   5.342  11.136 -1.3549  2.2630 -1.1412
  178DOPC  C21421802   3.875   5.372  11.314  0.6270 -0.5653 -0.4053
  178DOPC  H14R21803   3.782   5.414  11.358 -0.2035 -0.9398 -1.7392
  178DOPC  H14S21804   3.957   5.438  11.348  0.1086  1.2064 -2.3842
  178DOPC  C21521805   3.893   5.225  11.352  0.1415  0.2053 -0.7054
  178DOPC  H15R21806   3.968   5.185  11.280 -1.2257 -0.7079 -1.6650
  178DOPC  H15S21807   3.800   5.165  11.349 -1.6069  2.7103  0.5373
  178DOPC  C21621808   3.948   5.220  11.493 -0.0564 -0.1235 -0.4781
  178DOPC  H16R21809   4.047   5.268  11.507 -0.1379 -0.1908  0.3897
  178DOPC  H16S21810   3.948   5.118  11.537 -0.9475 -1.7526 -3.9704
  178DOPC  C21721811   3.851   5.297  11.584  0.7888  0.1492  0.1034
  178DOPC  H17R21812   3.745   5.272  11.561  0.9491 -0.0098 -0.5068
  178DOPC  H17S21813   3.845   5.408  11.578 -2.1448  0.1188  1.1105
  178DOPC  C21821814   3.878   5.266  11.725  0.0663 -0.6472 -0.1195
  178DOPC  H18R21815   3.985   5.283  11.751 -0.6737  1.2186  1.9251
  178DOPC  H18S21816   3.851   5.162  11.754 -0.8689 -0.4672 -0.3225
  178DOPC  H18T21817   3.810   5.318  11.795  1.4285 -1.5031  1.9338
  178DOPC   C3321818   3.097   5.443  10.209  0.7915 -0.1002  0.0215
  178DOPC   H3X21819   3.137   5.544  10.186  0.8930  0.1835  1.3854
  178DOPC   H3Y21820   3.180   5.368  10.210  1.6275  0.7989  0.6028
  178DOPC   C3421821   3.039   5.456  10.350  0.3755 -0.1470 -0.3354
  178DOPC   H4X21822   2.988   5.362  10.378  0.5613 -0.1018  0.1808
  178DOPC   H4Y21823   2.961   5.535  10.354  1.7159  1.2019  0.2414
  178DOPC   C3521824   3.134   5.490  10.462  0.3157  0.4241  0.1325
  178DOPC   H5X21825   3.177   5.589  10.435 -1.3079  1.2730  0.5286
  178DOPC   H5Y21826   3.213   5.412  10.460 -0.8636 -0.7869 -1.9433
  178DOPC   C3621827   3.073   5.504  10.604  0.2441 -0.6642 -0.2134
  178DOPC   H6X21828   2.987   5.574  10.601  0.7738 -0.0254 -1.7156
  178DOPC   H6Y21829   3.024   5.413  10.645 -0.8193  0.3261  0.7641
  178DOPC   C3721830   3.171   5.558  10.713 -0.0395 -0.2524  0.3469
  178DOPC   H7X21831   3.255   5.485  10.720  0.3163  0.0589 -0.5021
  178DOPC   H7Y21832   3.201   5.659  10.677 -1.0893  0.4748  1.4306
  178DOPC   C3821833   3.108   5.574  10.847 -0.5299  0.3185  0.3475
  178DOPC   H8X21834   3.014   5.634  10.845  0.2360  1.5188 -0.6893
  178DOPC   H8Y21835   3.170   5.642  10.909 -0.1371  1.7643 -1.5475
  178DOPC   C3921836   3.079   5.445  10.914 -0.3573  0.1923 -0.0037
  178DOPC   H9X21837   2.999   5.394  10.858  0.6842 -0.7872 -0.6451
  178DOPC  C31021838   3.137   5.396  11.026 -0.5055 -0.5244 -0.2895
  178DOPC  H10X21839   3.103   5.296  11.054  1.0827 -1.1863 -0.6531
  178DOPC  C31121840   3.259   5.459  11.096 -0.1649  0.1970  0.2584
  178DOPC  H11X21841   3.248   5.570  11.091  0.5151  0.3283  1.3543
  178DOPC  H11Y21842   3.357   5.436  11.049 -0.2584  0.5445 -0.1159
  178DOPC  C31221843   3.268   5.419  11.244 -0.3872 -0.3771 -0.3409
  178DOPC  H12X21844   3.286   5.309  11.244 -0.5941 -0.4224  0.7430
  178DOPC  H12Y21845   3.177   5.448  11.301  0.1485  2.4208 -0.7462
  178DOPC  C31321846   3.388   5.478  11.323  0.9637  0.0302  0.3598
  178DOPC  H13X21847   3.480   5.460  11.264  1.2753  0.5612  0.6678
  178DOPC  H13Y21848   3.365   5.586  11.340 -0.2767 -0.2058  0.2683
  178DOPC  C31421849   3.391   5.425  11.466 -0.3016  0.0624  0.0031
  178DOPC  H14X21850   3.291   5.458  11.500  0.3885  1.8166  0.4762
  178DOPC  H14Y21851   3.404   5.315  11.461 -1.1550 -0.0375 -0.0387
  178DOPC  C31521852   3.507   5.481  11.554 -0.7061  0.0529  0.2009
  178DOPC  H15X21853   3.504   5.592  11.544 -0.4812 -0.0157 -0.7975
  178DOPC  H15Y21854   3.604   5.458  11.505 -0.4296  1.5498  0.0067
  178DOPC  C31621855   3.493   5.443  11.699  0.0713 -0.2905 -0.7079
  178DOPC  H16X21856   3.391   5.443  11.743  0.7098  2.2130  1.0167
  178DOPC  H16Y21857   3.528   5.339  11.719  0.2613  0.1762  1.7209
  178DOPC  C31721858   3.578   5.536  11.787  0.3966  0.8583  0.2407
  178DOPC  H17X21859   3.681   5.498  11.803 -0.4269 -1.3878  0.5925
  178DOPC  H17Y21860   3.588   5.640  11.749  0.2175  0.5097 -0.7852
  178DOPC  C31821861   3.520   5.549  11.926  0.6490 -0.3353 -0.4986
  178DOPC  H18X21862   3.429   5.611  11.941  0.7296 -0.7378  2.3283
  178DOPC  H18Y21863   3.506   5.445  11.965 -0.1777  0.7670  2.4319
  178DOPC  H18Z21864   3.591   5.595  11.998  0.8295 -0.1479 -0.7945
  179DOPC     N21865   0.086   4.554   9.776 -0.0272 -0.1724  0.7890
  179DOPC   C1221866   0.122   4.517   9.919  0.1557 -0.0181  0.2429
  179DOPC  H12A21867   0.229   4.523   9.931  0.3109 -0.7346 -0.6435
  179DOPC  H12B21868   0.109   4.412   9.938 -1.5176  0.2175  0.5946
  179DOPC   C1321869   0.171   4.481   9.676  0.1576 -0.1140 -0.5319
  179DOPC  H13A21870   0.130   4.470   9.577  3.2361  1.1277 -2.0889
  179DOPC  H13B21871   0.269   4.526   9.669 -0.2283  0.8561  0.1219
  179DOPC  H13C21872   0.184   4.378   9.706  0.5294  0.0279 -0.1892
  179DOPC   C1421873   0.101   4.701   9.766  0.9095  0.3133 -0.1230
  179DOPC  H14A21874   0.027   4.754   9.824  0.2109 -0.0564 -0.6677
  179DOPC  H14B21875   0.201   4.722   9.801  1.5127 -2.6923  0.2594
  179DOPC  H14C21876   0.087   4.735   9.664 -2.9383 -2.0764 -0.5810
  179DOPC   C1521877  -0.056   4.522   9.747 -0.3161 -0.4525 -0.5805
  179DOPC  H15A21878  -0.082   4.566   9.652  1.1590  1.7396 -0.0417
  179DOPC  H15B21879  -0.112   4.566   9.828 -0.0502 -1.5441  0.2216
  179DOPC  H15C21880  -0.086   4.418   9.743 -0.2034 -0.5767  1.0020
  179DOPC   C1121881   0.065   4.603  10.036 -0.5408  0.7712 -0.5897
  179DOPC  H11A21882   0.081   4.544  10.129 -0.9364  0.0197 -0.9947
  179DOPC  H11B21883   0.113   4.701  10.059  1.8904 -0.6585  0.7671
  179DOPC     P21884  -0.170   4.676  10.129  0.0406  0.4260  0.1411
  179DOPC   O1321885  -0.223   4.557  10.208  0.1269 -0.3529 -0.3474
  179DOPC   O1421886  -0.272   4.756  10.062 -0.2513  0.4993  0.2554
  179DOPC   O1221887  -0.070   4.623  10.012  0.5601 -0.1793 -0.2104
  179DOPC   O1121888  -0.075   4.770  10.219  0.5973  0.2030  0.0061
  179DOPC    C121889  -0.028   4.732  10.347 -0.1422  1.0610  0.5383
  179DOPC    HA21890   0.076   4.768  10.356 -0.1781  1.0980  0.8094
  179DOPC    HB21891  -0.016   4.621  10.351 -2.1398  0.6370 -2.0081
  179DOPC    C221892  -0.107   4.779  10.467  0.1892  0.1187 -0.6300
  179DOPC    HS21893  -0.212   4.742  10.461  0.1749  0.0401  0.1066
  179DOPC   O2121894  -0.105   4.924  10.470  0.3986 -0.3915 -0.1515
  179DOPC   C2121895  -0.181   4.994  10.394  0.1465 -0.4074  0.4093
  179DOPC   O2221896  -0.281   4.952  10.338  0.1423 -0.2090 -0.3372
  179DOPC   C2221897  -0.132   5.140  10.390  0.3642 -0.9186  0.3896
  179DOPC   H2R21898  -0.090   5.155  10.288  0.3303  0.3417  0.5530
  179DOPC   H2S21899  -0.041   5.163  10.449  0.6890  1.0792 -0.8084
  179DOPC    C321900  -0.059   4.722  10.606 -0.4768 -0.1038 -0.5035
  179DOPC    HX21901   0.045   4.760  10.610 -0.2866 -0.4714 -1.7915
  179DOPC    HY21902  -0.054   4.611  10.611  1.7259  0.0229  1.8641
  179DOPC   O3121903  -0.118   4.782  10.726  0.3487  0.4584 -0.8155
  179DOPC   C3121904  -0.241   4.749  10.758 -0.6330  0.2028  0.8658
  179DOPC   O3221905  -0.305   4.658  10.713 -0.3103  0.3397 -0.4941
  179DOPC   C3221906  -0.283   4.853  10.866  0.4199  0.2834 -0.2835
  179DOPC   H2X21907  -0.233   4.951  10.849  1.8759 -0.1959  1.0137
  179DOPC   H2Y21908  -0.393   4.872  10.869  0.4698  0.4231  1.7096
  179DOPC   C2321909  -0.247   5.232  10.425  0.2462  1.0639 -0.3212
  179DOPC   H3R21910  -0.338   5.200  10.369  0.6193 -0.5484 -0.0742
  179DOPC   H3S21911  -0.215   5.336  10.405  0.9167  0.9291  0.0135
  179DOPC   C2421912  -0.284   5.208  10.579 -0.5797 -0.0004 -0.1246
  179DOPC   H4R21913  -0.194   5.214  10.643 -2.6056 -0.1220  2.9660
  179DOPC   H4S21914  -0.331   5.107  10.583 -2.9676  1.0058 -0.5036
  179DOPC   C2521915  -0.383   5.314  10.628  0.4334 -0.5336  0.1184
  179DOPC   H5R21916  -0.427   5.272  10.721  1.6405 -0.8318  0.5725
  179DOPC   H5S21917  -0.474   5.340  10.569  0.6757  1.5041  0.5648
  179DOPC   C2621918  -0.311   5.444  10.672  0.4552 -0.1050  0.5979
  179DOPC   H6R21919  -0.285   5.498  10.578  2.0838  1.4146  1.8515
  179DOPC   H6S21920  -0.217   5.413  10.722  0.0975 -0.4641  1.0533
  179DOPC   C2721921  -0.388   5.535  10.758  0.0536 -0.5472  0.3519
  179DOPC   H7R21922  -0.446   5.486  10.838 -0.8832  0.2423  0.1674
  179DOPC   H7S21923  -0.459   5.576  10.683 -0.1796 -2.5306 -0.5702
  179DOPC   C2821924  -0.311   5.656  10.813 -0.4094  0.2371 -1.4808
  179DOPC   H8R21925  -0.392   5.722  10.852 -0.8113 -0.7483 -0.6083
  179DOPC   H8S21926  -0.255   5.709  10.734 -0.8047  1.6970 -0.8174
  179DOPC   C2921927  -0.220   5.626  10.930  0.3071  0.8019 -0.2953
  179DOPC   H9R21928  -0.161   5.534  10.918  0.4275  0.3833  2.8012
  179DOPC  C21021929  -0.195   5.697  11.041 -0.1172 -0.0504 -0.0114
  179DOPC  H10R21930  -0.122   5.662  11.116 -0.1244 -1.6535 -0.7087
  179DOPC  C21121931  -0.263   5.829  11.074 -0.2137 -0.5981  0.5354
  179DOPC  H11R21932  -0.358   5.836  11.018 -3.2017 -2.9872  4.7369
  179DOPC  H11S21933  -0.203   5.910  11.026 -1.3094  0.6987  1.2869
  179DOPC  C21221934  -0.273   5.867  11.223  0.0943 -0.5423  0.3878
  179DOPC  H12R21935  -0.325   5.787  11.280 -0.7976  1.6912  2.9429
  179DOPC  H12S21936  -0.337   5.957  11.238 -0.7108 -0.8947 -0.7957
  179DOPC  C21321937  -0.130   5.877  11.288  0.1011  0.4115  0.0265
  179DOPC  H13R21938  -0.067   5.964  11.258  1.0765  0.1819  1.3069
  179DOPC  H13S21939  -0.063   5.796  11.254  0.4080  1.1337 -1.1557
  179DOPC  C21421940  -0.131   5.892  11.438  0.2771  0.1899  0.1892
  179DOPC  H14R21941  -0.202   5.972  11.467  0.5933  0.9860 -1.1179
  179DOPC  H14S21942  -0.030   5.914  11.478  0.6013  1.2357 -1.1198
  179DOPC  C21521943  -0.166   5.764  11.513 -0.4202  1.2085  0.2675
  179DOPC  H15R21944  -0.082   5.697  11.487 -0.3338  1.4423 -0.0629
  179DOPC  H15S21945  -0.253   5.709  11.472 -0.1237  1.6876 -1.0658
  179DOPC  C21621946  -0.163   5.773  11.664 -0.0188  0.3098  0.5645
  179DOPC  H16R21947  -0.246   5.843  11.687 -2.0091 -0.8812 -2.4525
  179DOPC  H16S21948  -0.066   5.809  11.703 -0.7376  1.2830  1.5227
  179DOPC  C21721949  -0.200   5.632  11.715 -0.4406 -0.2302 -0.3740
  179DOPC  H17R21950  -0.130   5.560  11.668 -0.3480 -0.8465  0.6654
  179DOPC  H17S21951  -0.299   5.610  11.670 -0.1033  0.9193 -1.7649
  179DOPC  C21821952  -0.206   5.627  11.866 -0.2665  0.1069  0.0182
  179DOPC  H18R21953  -0.223   5.523  11.904  1.8974  0.4848  2.2707
  179DOPC  H18S21954  -0.293   5.684  11.907 -0.5381 -0.1713 -0.1615
  179DOPC  H18T21955  -0.123   5.677  11.920 -1.6327  1.4007  0.9981
  179DOPC   C3321956  -0.241   4.810  11.007  0.3607  0.0650  0.7548
  179DOPC   H3X21957  -0.141   4.857  11.023  1.1445 -1.3876  0.3148
  179DOPC   H3Y21958  -0.228   4.700  11.000  1.5936  0.2174  0.2065
  179DOPC   C3421959  -0.339   4.861  11.121  0.0347 -0.6876 -0.0824
  179DOPC   H4X21960  -0.436   4.807  11.119 -0.8246  0.7424  0.9267
  179DOPC   H4Y21961  -0.347   4.972  11.117 -0.4387 -0.6763  0.9639
  179DOPC   C3521962  -0.280   4.832  11.257  0.0687 -0.1437  0.2237
  179DOPC   H5X21963  -0.198   4.907  11.263  0.5750 -0.5887 -0.9150
  179DOPC   H5Y21964  -0.239   4.730  11.272 -2.2882 -0.9938  1.5143
  179DOPC   C3621965  -0.393   4.831  11.356 -0.4822 -1.2996 -0.4215
  179DOPC   H6X21966  -0.442   4.929  11.339  1.5786 -0.5338 -2.4783
  179DOPC   H6Y21967  -0.463   4.746  11.340  0.5870 -2.6137  1.5162
  179DOPC   C3721968  -0.351   4.822  11.500  0.1015  0.1008  0.0749
  179DOPC   H7X21969  -0.289   4.731  11.517  0.9592  0.4429 -1.1082
  179DOPC   H7Y21970  -0.282   4.903  11.533 -0.7616  0.6955  0.4748
  179DOPC   C3821971  -0.473   4.821  11.599  0.2449 -0.4020 -0.1471
  179DOPC   H8X21972  -0.533   4.732  11.570 -1.0263  0.8739 -1.6060
  179DOPC   H8Y21973  -0.534   4.913  11.588  0.5728 -0.1571  0.0671
  179DOPC   C3921974  -0.428   4.797  11.741  0.0182 -0.3941 -0.4661
  179DOPC   H9X21975  -0.358   4.870  11.786 -1.2708  0.5962 -0.0210
  179DOPC  C31021976  -0.463   4.702  11.829  0.1577 -0.2791 -0.0360
  179DOPC  H10X21977  -0.416   4.702  11.928 -1.2612  2.1183  0.7309
  179DOPC  C31121978  -0.565   4.597  11.816  0.1530  0.5867  0.1951
  179DOPC  H11X21979  -0.506   4.508  11.784 -2.1974 -0.5119 -1.4360
  179DOPC  H11Y21980  -0.626   4.616  11.725  1.4891  0.0607 -0.8403
  179DOPC  C31221981  -0.648   4.561  11.941  0.4642 -0.2711  1.0035
  179DOPC  H12X21982  -0.578   4.536  12.024 -0.1563 -0.1346  1.5788
  179DOPC  H12Y21983  -0.715   4.474  11.928  0.3721  0.0266 -0.6583
  179DOPC  C31321984  -0.746   4.677  11.984  0.6453  0.1574  1.1218
  179DOPC  H13X21985  -0.687   4.771  11.977 -1.1394  1.3407  1.4523
  179DOPC  H13Y21986  -0.843   4.679  11.930  1.6681 -1.5695 -0.9526
  179DOPC  C31421987  -0.783   4.650  12.131  0.2641  0.3268 -0.1721
  179DOPC  H14X21988  -0.838   4.555  12.146 -0.6883  1.1561  1.9971
  179DOPC  H14Y21989  -0.697   4.630  12.199  2.8776  0.3832 -3.2117
  179DOPC  C31521990  -0.883   4.750  12.192 -0.2280  0.3766  0.1672
  179DOPC  H15X21991  -0.925   4.703  12.283  0.7759 -2.4989 -0.7495
  179DOPC  H15Y21992  -0.968   4.754  12.121 -0.7261 -1.8714  0.5724
  179DOPC  C31621993  -0.822   4.889  12.202  0.2985  0.1987  0.7068
  179DOPC  H16X21994  -0.734   4.875  12.268  1.5908 -1.6684 -1.2781
  179DOPC  H16Y21995  -0.772   4.927  12.110 -0.7917 -2.2501 -0.9921
  179DOPC  C31721996  -0.918   5.002  12.254 -0.7188 -0.4260 -0.0137
  179DOPC  H17X21997  -0.971   4.952  12.338 -0.7518  0.9866  0.8238
  179DOPC  H17Y21998  -0.859   5.089  12.290 -0.9844 -0.1873 -0.1522
  179DOPC  C31821999  -1.021   5.047  12.152  0.2395  0.2577 -0.2776
  179DOPC  H18X22000  -1.097   4.968  12.134  0.1189  0.7885 -2.4218
  179DOPC  H18Y22001  -1.083   5.130  12.193 -0.9029 -1.5719  1.9264
  179DOPC  H18Z22002  -0.969   5.064  12.055 -0.8080  0.4750 -0.8185
  180DOPC     N22003   6.563   2.444  10.372  0.7683 -0.1249  0.3593
  180DOPC   C1222004   6.519   2.467  10.520 -0.0542  0.5678 -0.0570
  180DOPC  H12A22005   6.415   2.494  10.510 -0.4083 -0.5253  0.5535
  180DOPC  H12B22006   6.566   2.553  10.566  1.7763 -1.6602  2.5861
  180DOPC   C1322007   6.474   2.337  10.321 -0.2052  0.7897  0.4965
  180DOPC  H13A22008   6.497   2.314  10.218  1.7823 -2.1260  1.4509
  180DOPC  H13B22009   6.492   2.248  10.379 -1.1071 -0.1722 -0.6489
  180DOPC  H13C22010   6.368   2.358  10.318 -0.2151  0.9384 -3.2417
  180DOPC   C1422011   6.697   2.399  10.351  0.7111  0.0579  0.5399
  180DOPC  H14A22012   6.774   2.464  10.391  1.5780 -2.0358  2.5481
  180DOPC  H14B22013   6.711   2.311  10.413 -0.0699  1.0084  2.1376
  180DOPC  H14C22014   6.709   2.374  10.247  3.3631  0.3607  0.7009
  180DOPC   C1522015   6.534   2.566  10.300 -0.6519  0.5435 -0.6273
  180DOPC  H15A22016   6.428   2.588  10.306 -0.7973 -0.4735  1.2707
  180DOPC  H15B22017   6.551   2.557  10.194  0.6149 -0.8228 -0.3427
  180DOPC  H15C22018   6.581   2.659  10.330 -3.1863  1.4064  1.0353
  180DOPC   C1122019   6.517   2.351  10.624 -0.7718 -0.1938 -0.3612
  180DOPC  H11A22020   6.464   2.371  10.719 -0.3991 -0.5742 -0.0711
  180DOPC  H11B22021   6.476   2.257  10.583 -1.0845 -0.1789 -0.0827
  180DOPC     P22022   6.752   2.421  10.718 -0.3590  0.0463 -0.1031
  180DOPC   O1322023   6.709   2.564  10.704  0.0807 -0.3558  0.3246
  180DOPC   O1422024   6.883   2.383  10.658 -0.2114 -0.7358 -0.0189
  180DOPC   O1222025   6.650   2.320  10.663 -0.0517  0.0452  0.0141
  180DOPC   O1122026   6.756   2.380  10.872 -0.6561 -0.1762  0.2974
  180DOPC    C122027   6.654   2.322  10.951 -0.5886 -0.3092 -0.0566
  180DOPC    HA22028   6.694   2.268  11.040 -0.2768  1.2910  0.8158
  180DOPC    HB22029   6.597   2.249  10.891 -0.8727 -1.0868  1.1357
  180DOPC    C222030   6.550   2.432  10.989 -0.4361  0.6128  0.4800
  180DOPC    HS22031   6.521   2.485  10.896 -1.0914  1.9125  1.3917
  180DOPC   O2122032   6.611   2.524  11.079  0.5352 -0.2148  0.0385
  180DOPC   C2122033   6.545   2.640  11.103  0.5083  0.5047  0.6868
  180DOPC   O2222034   6.436   2.668  11.056 -0.3424 -0.6208 -0.1376
  180DOPC   C2222035   6.630   2.740  11.184  0.2189  0.1806  0.2303
  180DOPC   H2R22036   6.556   2.819  11.212 -0.4862 -0.9941  1.8368
  180DOPC   H2S22037   6.708   2.782  11.117  0.5989 -0.2321  0.4113
  180DOPC    C322038   6.415   2.377  11.044 -0.0653 -0.6267 -0.9474
  180DOPC    HX22039   6.369   2.325  10.957 -0.5789  2.4032 -2.6271
  180DOPC    HY22040   6.351   2.463  11.072  1.2262 -0.1820  0.7936
  180DOPC   O3122041   6.428   2.279  11.147 -0.1469 -0.2848 -0.9383
  180DOPC   C3122042   6.418   2.320  11.275  0.3254 -0.0298 -0.2232
  180DOPC   O3222043   6.382   2.432  11.311 -0.3929  0.2682  0.3600
  180DOPC   C3222044   6.453   2.202  11.368 -0.5787 -0.4962 -0.4011
  180DOPC   H2X22045   6.355   2.152  11.384  0.1944 -3.0489 -2.8764
  180DOPC   H2Y22046   6.520   2.132  11.312  0.9397  2.2969 -2.3234
  180DOPC   C2322047   6.687   2.684  11.316 -0.4920  0.6015  0.1320
  180DOPC   H3R22048   6.780   2.627  11.295 -1.0664 -1.5410  2.7624
  180DOPC   H3S22049   6.624   2.604  11.361  0.1201  1.1129  1.9653
  180DOPC   C2422050   6.725   2.790  11.417 -0.2556 -0.1545  0.1866
  180DOPC   H4R22051   6.757   2.745  11.513 -1.1498  0.7225  0.9216
  180DOPC   H4S22052   6.628   2.839  11.440 -0.7786 -1.0776 -0.0012
  180DOPC   C2522053   6.830   2.888  11.374  0.2329  0.4537 -0.4245
  180DOPC   H5R22054   6.792   2.957  11.296 -0.7812  1.0394  0.5675
  180DOPC   H5S22055   6.911   2.822  11.334  0.5958  0.1022  0.8428
  180DOPC   C2622056   6.880   2.977  11.488 -0.2942  0.4978  0.6053
  180DOPC   H6R22057   6.790   3.016  11.540 -0.7922  0.5494 -0.2777
  180DOPC   H6S22058   6.937   3.059  11.439 -0.7955  0.7643  0.4593
  180DOPC   C2722059   6.974   2.902  11.589 -0.7937 -0.3357 -0.5407
  180DOPC   H7R22060   7.050   2.838  11.539 -1.5677 -0.7967 -1.1499
  180DOPC   H7S22061   6.915   2.823  11.641  0.9327 -2.9783 -2.3041
  180DOPC   C2822062   7.043   2.998  11.681 -0.4072 -0.7932  0.1501
  180DOPC   H8R22063   7.121   3.051  11.621  1.2012 -2.5128  0.6257
  180DOPC   H8S22064   7.093   2.942  11.763 -1.7056  0.0233  1.5380
  180DOPC   C2922065   6.941   3.092  11.748 -0.2820  0.4142 -0.0755
  180DOPC   H9R22066   6.871   3.133  11.675 -0.4573  0.7141  0.2574
  180DOPC  C21022067   6.945   3.145  11.870 -0.0302 -0.2677 -0.7900
  180DOPC  H10R22068   6.866   3.210  11.909  1.0954 -0.1221  1.4219
  180DOPC  C21122069   7.052   3.132  11.976  0.7246 -0.0191  0.5666
  180DOPC  H11R22070   7.081   3.233  12.013 -0.5890  0.9149 -0.8295
  180DOPC  H11S22071   7.144   3.090  11.931  1.1035  0.0856  1.2223
  180DOPC  C21222072   7.018   3.038  12.103  0.3453 -0.0952  0.2984
  180DOPC  H12R22073   7.108   3.003  12.159  0.1314  1.3361  1.5915
  180DOPC  H12S22074   6.968   2.947  12.062  0.7709 -0.7469  1.1668
  180DOPC  C21322075   6.913   3.097  12.205  0.1121  0.0045 -0.1507
  180DOPC  H13R22076   6.889   3.025  12.286 -1.5695 -0.2053 -0.8032
  180DOPC  H13S22077   6.821   3.123  12.148 -0.1274 -1.0367 -0.2579
  180DOPC  C21422078   6.955   3.220  12.276 -0.1523  0.1955  0.3018
  180DOPC  H14R22079   6.881   3.252  12.352 -0.3026 -0.2576  0.3510
  180DOPC  H14S22080   6.970   3.311  12.214 -2.2117  0.4899  0.1789
  180DOPC  C21522081   7.092   3.201  12.356 -0.3704  0.6438 -0.4838
  180DOPC  H15R22082   7.123   3.287  12.419  1.1262  0.4975 -0.9866
  180DOPC  H15S22083   7.178   3.177  12.290 -1.0178  1.0872 -1.5049
  180DOPC  C21622084   7.088   3.084  12.461 -0.0466 -0.5294  0.1254
  180DOPC  H16R22085   7.056   2.993  12.405 -0.3662  0.0687 -0.6891
  180DOPC  H16S22086   7.015   3.108  12.541 -0.8151  1.7350 -1.1766
  180DOPC  C21722087   7.228   3.068  12.518  0.1213  0.0736 -0.2425
  180DOPC  H17R22088   7.253   3.166  12.565 -2.2832  0.6995 -0.1050
  180DOPC  H17S22089   7.295   3.044  12.433  2.0567  2.4108  0.5056
  180DOPC  C21822090   7.225   2.953  12.612 -0.5643  0.5357  0.4655
  180DOPC  H18R22091   7.327   2.917  12.638 -0.6141 -0.7736 -0.9482
  180DOPC  H18S22092   7.171   2.874  12.554 -0.5291 -0.7168  2.0573
  180DOPC  H18T22093   7.164   2.987  12.699 -2.0861  1.7760 -1.0155
  180DOPC   C3322094   6.530   2.253  11.487 -0.0364  0.2006  0.0062
  180DOPC   H3X22095   6.502   2.357  11.518 -0.6813  0.0661 -0.1176
  180DOPC   H3Y22096   6.638   2.253  11.462  0.0701  2.1545  0.2872
  180DOPC   C3422097   6.517   2.169  11.616  0.0369  0.0068 -0.1733
  180DOPC   H4X22098   6.558   2.071  11.583 -0.7452  0.1776 -1.7187
  180DOPC   H4Y22099   6.412   2.158  11.648  0.5320  0.3074  1.7063
  180DOPC   C3522100   6.592   2.234  11.728  0.0877 -0.4000  0.0866
  180DOPC   H5X22101   6.540   2.327  11.760 -1.9022 -1.5885  0.4709
  180DOPC   H5Y22102   6.692   2.270  11.695  0.4049 -0.2260  1.1733
  180DOPC   C3622103   6.590   2.150  11.852  0.0671 -0.3533  0.2165
  180DOPC   H6X22104   6.490   2.116  11.886 -0.4966  0.3494 -0.7088
  180DOPC   H6Y22105   6.638   2.057  11.814 -0.0914  0.1991 -1.3929
  180DOPC   C3722106   6.676   2.192  11.965  0.0925  0.6253 -0.2000
  180DOPC   H7X22107   6.785   2.201  11.941  0.5600  1.6042  2.0575
  180DOPC   H7Y22108   6.643   2.292  11.999  1.6691  1.3052 -0.5619
  180DOPC   C3822109   6.671   2.081  12.074  1.1383  0.4841  0.6817
  180DOPC   H8X22110   6.694   1.984  12.025  2.8697  1.3568 -0.3398
  180DOPC   H8Y22111   6.568   2.061  12.111  1.2059 -2.0332 -0.2960
  180DOPC   C3922112   6.766   2.104  12.188  0.0552 -0.2646  0.2028
  180DOPC   H9X22113   6.870   2.090  12.154  0.7908  1.5245  1.4987
  180DOPC  C31022114   6.740   2.116  12.324 -0.7192  0.3615 -0.6262
  180DOPC  H10X22115   6.820   2.122  12.399 -0.9409  1.2669 -0.4530
  180DOPC  C31122116   6.597   2.126  12.388 -0.4125 -0.3684  0.2257
  180DOPC  H11X22117   6.519   2.099  12.314 -1.9057  1.1004  1.1914
  180DOPC  H11Y22118   6.576   2.230  12.421  1.5485  0.6419 -1.4299
  180DOPC  C31222119   6.590   2.035  12.502 -0.2928  0.5873 -0.3324
  180DOPC  H12X22120   6.645   2.073  12.591 -0.2610  0.8118 -0.4475
  180DOPC  H12Y22121   6.642   1.940  12.478  0.3430  0.7574  0.3006
  180DOPC  C31322122   6.447   2.017  12.550 -0.2058  0.0969  0.3864
  180DOPC  H13X22123   6.378   1.997  12.465  1.1951 -0.1248 -0.7441
  180DOPC  H13Y22124   6.438   1.939  12.628 -1.0700 -0.7238 -0.5043
  180DOPC  C31422125   6.400   2.151  12.615  0.6926 -0.2344 -0.6390
  180DOPC  H14X22126   6.476   2.191  12.685 -0.0982  1.3102 -0.6365
  180DOPC  H14Y22127   6.394   2.226  12.534  2.5652 -0.7677 -1.3141
  180DOPC  C31522128   6.268   2.136  12.695 -0.2460 -0.2781  0.1988
  180DOPC  H15X22129   6.301   2.081  12.785 -0.3233 -2.6078 -1.1126
  180DOPC  H15Y22130   6.197   2.063  12.651 -1.9830  0.6822  1.3040
  180DOPC  C31622131   6.203   2.271  12.722 -0.0781 -0.7316  0.4272
  180DOPC  H16X22132   6.177   2.334  12.635 -0.0316 -0.3877  0.6605
  180DOPC  H16Y22133   6.104   2.249  12.768 -0.6736 -0.6838 -0.7885
  180DOPC  C31722134   6.280   2.356  12.819 -0.2200 -0.6996 -0.4026
  180DOPC  H17X22135   6.373   2.392  12.771 -0.1949 -1.0687 -0.6386
  180DOPC  H17Y22136   6.217   2.446  12.836 -1.3647 -1.4483 -0.5654
  180DOPC  C31822137   6.316   2.292  12.952 -0.6624 -1.3963 -0.8909
  180DOPC  H18X22138   6.367   2.193  12.945 -0.3120 -1.2174 -0.9320
  180DOPC  H18Y22139   6.386   2.364  13.000 -0.1446 -2.0281 -0.6792
  180DOPC  H18Z22140   6.229   2.297  13.021 -0.4630  0.1792 -0.7170
  181DOPC     N22141   1.815   3.209   9.765  0.4012  0.1664 -0.6030
  181DOPC   C1222142   1.963   3.178   9.796  0.4481 -0.1879  0.5879
  181DOPC  H12A22143   1.960   3.137   9.897  0.4391 -0.1503  0.6027
  181DOPC  H12B22144   2.027   3.265   9.803  0.7759 -0.3662 -0.1636
  181DOPC   C1322145   1.799   3.254   9.627 -0.3420 -0.3687  0.1737
  181DOPC  H13A22146   1.695   3.280   9.614 -1.2556 -1.7826  3.5607
  181DOPC  H13B22147   1.853   3.348   9.627  3.3223 -2.2546 -0.7934
  181DOPC  H13C22148   1.826   3.189   9.545  1.1042  1.6131 -1.0375
  181DOPC   C1422149   1.761   3.326   9.853 -0.0405 -0.1991  0.0622
  181DOPC  H14A22150   1.654   3.339   9.839  0.1860  3.4039  0.7162
  181DOPC  H14B22151   1.777   3.320   9.960  0.4607  0.3546  0.0286
  181DOPC  H14C22152   1.809   3.415   9.814  2.3746 -1.2140  0.5290
  181DOPC   C1522153   1.727   3.092   9.794 -0.1012 -0.0128 -0.2128
  181DOPC  H15A22154   1.624   3.108   9.764  0.2399  1.1912 -0.8506
  181DOPC  H15B22155   1.724   3.063   9.897  0.5432 -2.7111 -0.8796
  181DOPC  H15C22156   1.770   3.000   9.757  0.4357  0.1591 -0.0308
  181DOPC   C1122157   2.034   3.076   9.714  0.1522  0.0356 -0.0961
  181DOPC  H11A22158   1.971   2.985   9.700 -0.1559  0.3915 -1.2041
  181DOPC  H11B22159   2.056   3.118   9.613 -0.9812 -1.3938 -0.9786
  181DOPC     P22160   2.194   2.901   9.838 -0.3199  0.0505  0.3062
  181DOPC   O1322161   2.317   2.921   9.909  0.2692 -0.0120 -0.0316
  181DOPC   O1422162   2.197   2.806   9.727  0.2534 -0.4514  0.2397
  181DOPC   O1222163   2.154   3.037   9.783  0.2642 -0.3632  0.6819
  181DOPC   O1122164   2.075   2.869   9.932 -0.2783  0.6066  0.0641
  181DOPC    C122165   2.049   2.950  10.049  0.1296 -0.1642 -0.1418
  181DOPC    HA22166   1.938   2.954  10.057  0.2914  1.0904  2.3816
  181DOPC    HB22167   2.078   3.056  10.037  0.2060 -0.1508  0.1513
  181DOPC    C222168   2.097   2.906  10.183 -0.6127 -0.2893 -0.0937
  181DOPC    HS22169   2.206   2.924  10.196 -0.3446 -1.6719 -0.2335
  181DOPC   O2122170   2.057   2.762  10.190 -0.1643 -0.7930 -0.0240
  181DOPC   C2122171   2.148   2.672  10.183 -0.1583  0.0311 -0.2960
  181DOPC   O2222172   2.269   2.692  10.170  0.1263 -0.0492 -0.2560
  181DOPC   C2222173   2.083   2.538  10.199 -1.1133 -0.5852  0.1830
  181DOPC   H2R22174   2.074   2.473  10.109 -2.0091  0.0047 -0.1734
  181DOPC   H2S22175   1.981   2.544  10.243 -1.3001 -0.9643 -0.1826
  181DOPC    C322176   2.022   2.977  10.298 -0.0959 -0.4583 -0.2932
  181DOPC    HX22177   1.913   2.978  10.277 -0.1113 -1.3801 -0.2815
  181DOPC    HY22178   2.039   3.085  10.279 -2.0177 -0.0579  0.0506
  181DOPC   O3122179   2.063   2.947  10.437 -0.2963  0.3073 -0.3580
  181DOPC   C3122180   1.984   2.860  10.499 -0.4211  0.6951  0.1733
  181DOPC   O3222181   1.896   2.797  10.447  0.1422 -0.3428  0.8747
  181DOPC   C3222182   2.026   2.853  10.648  0.5227  0.2190  0.1401
  181DOPC   H2X22183   2.048   2.745  10.664  0.1816 -0.1313 -1.5708
  181DOPC   H2Y22184   2.116   2.915  10.668  1.6005 -1.1186 -0.4089
  181DOPC   C2322185   2.149   2.449  10.304  0.0433  0.1325  0.1699
  181DOPC   H3R22186   2.260   2.461  10.304  0.0212  0.4541 -1.1141
  181DOPC   H3S22187   2.125   2.344  10.277  0.4900  0.3951 -1.3602
  181DOPC   C2422188   2.097   2.479  10.446 -0.3130 -0.6170 -0.8828
  181DOPC   H4R22189   1.987   2.491  10.437  0.0023  3.8227 -1.1916
  181DOPC   H4S22190   2.128   2.583  10.469  2.4572 -1.7967  1.2487
  181DOPC   C2522191   2.151   2.393  10.556 -0.5158  0.5827  0.0439
  181DOPC   H5R22192   2.260   2.405  10.575 -0.5122  0.0923  0.3352
  181DOPC   H5S22193   2.146   2.289  10.518 -0.7979 -0.4366  2.6432
  181DOPC   C2622194   2.081   2.416  10.687  0.0807 -0.5854  0.0046
  181DOPC   H6R22195   1.970   2.418  10.679  0.0856  2.8472 -0.7889
  181DOPC   H6S22196   2.105   2.518  10.724 -0.1997 -1.1050  1.7020
  181DOPC   C2722197   2.127   2.319  10.797 -0.1051  0.3760  0.4031
  181DOPC   H7R22198   2.238   2.322  10.791 -0.1935  0.2279 -1.9761
  181DOPC   H7S22199   2.098   2.215  10.773 -2.6624  0.0794  3.9519
  181DOPC   C2822200   2.064   2.349  10.934 -0.1023  0.0767 -0.5356
  181DOPC   H8R22201   2.081   2.453  10.969 -2.5347  0.0080  1.0573
  181DOPC   H8S22202   2.105   2.278  11.009 -0.9346 -1.5931 -1.6091
  181DOPC   C2922203   1.918   2.323  10.934  0.6814  0.3909 -0.2350
  181DOPC   H9R22204   1.876   2.252  10.862 -0.3502  2.1804 -1.4850
  181DOPC  C21022205   1.823   2.387  11.011  0.5058  0.0455 -0.2301
  181DOPC  H10R22206   1.716   2.362  11.013  0.5237 -0.1339 -1.0490
  181DOPC  C21122207   1.863   2.494  11.106 -0.1636  0.3524  0.4539
  181DOPC  H11R22208   1.878   2.583  11.041  2.3561 -1.6798 -2.0268
  181DOPC  H11S22209   1.969   2.485  11.139  0.9451 -2.1370 -3.0836
  181DOPC  C21222210   1.761   2.519  11.219 -0.3798  0.0326  0.1233
  181DOPC  H12R22211   1.657   2.533  11.180 -1.2568 -0.1225  2.2606
  181DOPC  H12S22212   1.797   2.612  11.268 -0.4079  0.8806 -1.3965
  181DOPC  C21322213   1.742   2.416  11.324 -0.3172 -0.1719 -0.0149
  181DOPC  H13R22214   1.698   2.327  11.274 -1.1527  1.3544 -2.1282
  181DOPC  H13S22215   1.665   2.458  11.393 -0.3937 -0.3323 -0.0021
  181DOPC  C21422216   1.864   2.395  11.414 -0.5870  0.0149  0.9574
  181DOPC  H14R22217   1.928   2.486  11.414 -2.0662  1.0972  0.3372
  181DOPC  H14S22218   1.930   2.316  11.372 -1.1924  0.7080 -1.4729
  181DOPC  C21522219   1.816   2.355  11.558 -0.1237  0.3622 -0.3192
  181DOPC  H15R22220   1.733   2.285  11.533  0.6370 -0.1554 -1.4849
  181DOPC  H15S22221   1.758   2.437  11.604 -2.5857 -0.1742 -2.2197
  181DOPC  C21622222   1.921   2.285  11.642 -0.2770  0.3110 -0.4125
  181DOPC  H16R22223   2.007   2.354  11.658 -2.3345  3.2554 -1.2282
  181DOPC  H16S22224   1.957   2.194  11.589 -0.5393 -0.9162  1.4299
  181DOPC  C21722225   1.873   2.255  11.786 -0.2141 -0.1882  0.7745
  181DOPC  H17R22226   1.799   2.172  11.786  0.1292 -0.5104  1.7365
  181DOPC  H17S22227   1.828   2.353  11.814  1.2497  0.6812  0.2054
  181DOPC  C21822228   1.976   2.206  11.888 -0.5779  0.1026  0.1640
  181DOPC  H18R22229   1.935   2.147  11.972 -1.3734  1.6597  0.9184
  181DOPC  H18S22230   2.047   2.285  11.921  0.1732  0.0683 -1.2610
  181DOPC  H18T22231   2.040   2.130  11.839  1.0767  0.3737  1.7995
  181DOPC   C3322232   1.913   2.892  10.752  0.2191  0.1884 -0.4345
  181DOPC   H3X22233   1.823   2.839  10.713  0.4388  1.0281 -2.1825
  181DOPC   H3Y22234   1.908   3.003  10.754  1.2661  0.2489 -0.8578
  181DOPC   C3422235   1.947   2.837  10.895  0.6806 -0.1706 -0.2920
  181DOPC   H4X22236   1.984   2.732  10.895  1.6208  0.1330 -1.1452
  181DOPC   H4Y22237   1.856   2.837  10.958 -0.3538 -1.8624 -1.6735
  181DOPC   C3522238   2.046   2.926  10.965  0.6352  0.2463 -0.0485
  181DOPC   H5X22239   2.004   3.024  10.997  0.1388 -0.3977  1.3523
  181DOPC   H5Y22240   2.117   2.944  10.882 -1.0991 -3.4058 -2.5817
  181DOPC   C3622241   2.113   2.866  11.089 -0.0941  0.0953 -0.1387
  181DOPC   H6X22242   2.145   2.761  11.071 -0.4619  0.1376 -1.0852
  181DOPC   H6Y22243   2.203   2.929  11.106 -0.5007  0.6390  0.0355
  181DOPC   C3722244   2.029   2.871  11.214  0.2667 -0.1286 -0.3601
  181DOPC   H7X22245   1.954   2.953  11.223 -0.1346 -0.3242 -1.7716
  181DOPC   H7Y22246   1.966   2.780  11.203  0.6680 -0.2949 -1.4394
  181DOPC   C3822247   2.103   2.860  11.348 -0.6709  0.9424 -0.0249
  181DOPC   H8X22248   2.187   2.934  11.348  0.3757 -0.0790 -3.1586
  181DOPC   H8Y22249   2.147   2.758  11.349  0.4014  1.3612 -1.2406
  181DOPC   C3922250   2.041   2.882  11.480  0.0657  0.4027  0.3980
  181DOPC   H9X22251   1.972   2.967  11.482  0.7871  1.0085 -0.0642
  181DOPC  C31022252   2.062   2.804  11.589 -0.0601 -0.9541  0.5380
  181DOPC  H10X22253   2.013   2.840  11.681 -0.3735 -0.5898  0.2352
  181DOPC  C31122254   2.154   2.690  11.615  0.2732  0.5038 -0.0418
  181DOPC  H11X22255   2.244   2.693  11.549  0.0282  1.2147 -0.3519
  181DOPC  H11Y22256   2.110   2.589  11.600  0.1334  0.6471 -0.6022
  181DOPC  C31222257   2.213   2.697  11.761  0.3012  0.1604 -0.3458
  181DOPC  H12X22258   2.279   2.784  11.781 -2.2420  1.5693  2.8788
  181DOPC  H12Y22259   2.258   2.595  11.768 -1.6327 -0.9005 -2.1782
  181DOPC  C31322260   2.108   2.705  11.882 -0.3551  0.1049 -0.0575
  181DOPC  H13X22261   2.065   2.808  11.877 -0.6225 -0.0102 -0.1711
  181DOPC  H13Y22262   2.035   2.622  11.871 -0.7145  0.6419 -2.0564
  181DOPC  C31422263   2.172   2.676  12.020 -0.2395  0.0755 -0.1271
  181DOPC  H14X22264   2.092   2.641  12.089 -0.9074  1.6407 -0.0634
  181DOPC  H14Y22265   2.238   2.589  12.005  0.5924  0.5359  0.7607
  181DOPC  C31522266   2.241   2.801  12.076 -0.2956  0.3742 -0.0952
  181DOPC  H15X22267   2.174   2.888  12.090  1.0717  1.5948 -0.8463
  181DOPC  H15Y22268   2.324   2.824  12.005 -0.4347  0.4201 -0.2411
  181DOPC  C31622269   2.311   2.758  12.208  0.2609 -0.0418  0.7329
  181DOPC  H16X22270   2.375   2.669  12.189 -0.4280 -0.9946  2.6425
  181DOPC  H16Y22271   2.386   2.830  12.246  0.4667 -0.2138  0.6576
  181DOPC  C31722272   2.221   2.717  12.316 -0.0161  0.9006  0.1852
  181DOPC  H17X22273   2.175   2.617  12.297 -0.2713  0.9790  0.3823
  181DOPC  H17Y22274   2.289   2.716  12.404 -0.0659  1.3857  0.2343
  181DOPC  C31822275   2.118   2.819  12.359 -0.5784  0.8480 -0.1762
  181DOPC  H18X22276   2.172   2.907  12.400 -0.3051  0.2618  0.7463
  181DOPC  H18Y22277   2.067   2.840  12.262 -1.0272  1.5808  0.2055
  181DOPC  H18Z22278   2.044   2.779  12.433  0.9013  2.3059  2.2275
  182DOPC     N22279   2.632   0.812   9.089  0.1727 -0.1618 -0.6489
  182DOPC   C1222280   2.529   0.798   9.203 -0.8177 -0.1000 -0.4517
  182DOPC  H12A22281   2.511   0.694   9.229  0.2903 -1.0477 -3.0610
  182DOPC  H12B22282   2.434   0.839   9.176 -0.9117  2.4282  3.0005
  182DOPC   C1322283   2.768   0.788   9.130 -0.0917  0.1792  0.0256
  182DOPC  H13A22284   2.800   0.869   9.193  0.6144  0.6105 -0.8676
  182DOPC  H13B22285   2.788   0.697   9.185  2.5301  0.1795 -0.7938
  182DOPC  H13C22286   2.838   0.793   9.048  0.5586  0.1080  0.5653
  182DOPC   C1422287   2.626   0.942   9.022 -0.5962 -0.4727 -0.8400
  182DOPC  H14A22288   2.645   1.021   9.093  1.4538 -1.1405 -0.5643
  182DOPC  H14B22289   2.694   0.967   8.941 -1.6591  0.7519 -1.3857
  182DOPC  H14C22290   2.528   0.957   8.980 -1.2435  1.8091  1.2460
  182DOPC   C1522291   2.602   0.704   8.985 -0.2160 -0.8577 -0.4500
  182DOPC  H15A22292   2.500   0.717   8.952  0.7767  3.8423 -2.4789
  182DOPC  H15B22293   2.630   0.604   9.016  0.6611 -0.8670 -1.2241
  182DOPC  H15C22294   2.664   0.721   8.898  0.6235  0.4353  0.3665
  182DOPC   C1122295   2.578   0.875   9.330  0.0394 -0.1738 -0.2922
  182DOPC  H11A22296   2.502   0.849   9.406 -0.3940 -1.3444 -1.0973
  182DOPC  H11B22297   2.671   0.829   9.371 -1.0038 -1.0654  1.1542
  182DOPC     P22298   2.451   1.102   9.296 -0.0623  0.2633 -0.3067
  182DOPC   O1322299   2.357   1.024   9.218  0.2554  0.4330  0.5597
  182DOPC   O1422300   2.492   1.231   9.245 -0.2880 -0.4238  0.2215
  182DOPC   O1222301   2.583   1.015   9.311 -0.1685  0.4184  0.4850
  182DOPC   O1122302   2.395   1.112   9.440  0.2981  0.0118 -0.3673
  182DOPC    C122303   2.469   1.171   9.543 -0.6961 -0.8244  0.0541
  182DOPC    HA22304   2.392   1.225   9.602  1.1321  0.0506  1.7556
  182DOPC    HB22305   2.542   1.247   9.507 -0.1407 -0.7512  1.3113
  182DOPC    C222306   2.544   1.064   9.635 -0.0959  0.3095  0.3190
  182DOPC    HS22307   2.597   0.991   9.571 -2.0440  0.0429 -1.0903
  182DOPC   O2122308   2.444   0.987   9.697  0.6630  0.1312 -0.5520
  182DOPC   C2122309   2.458   0.859   9.706 -0.0551 -0.8300 -0.0304
  182DOPC   O2222310   2.545   0.792   9.660 -0.2111 -0.6830 -0.0582
  182DOPC   C2222311   2.337   0.808   9.781  0.1739 -0.4909 -0.0024
  182DOPC   H2R22312   2.307   0.710   9.740  1.2645 -0.4872 -0.8534
  182DOPC   H2S22313   2.247   0.870   9.759 -0.0989 -1.1582 -0.8597
  182DOPC    C322314   2.644   1.129   9.734 -0.0430  0.1970 -0.6547
  182DOPC    HX22315   2.570   1.188   9.792 -2.2892 -0.7989 -2.3866
  182DOPC    HY22316   2.709   1.203   9.683 -0.4633  0.5870 -0.6329
  182DOPC   O3122317   2.726   1.040   9.816 -0.2158 -0.5223  0.3541
  182DOPC   C3122318   2.828   0.996   9.740  0.2749  0.1019 -0.8090
  182DOPC   O3222319   2.841   1.014   9.624 -1.1031  0.1069 -0.4074
  182DOPC   C3222320   2.918   0.898   9.821  0.0899 -0.4102  0.0639
  182DOPC   H2X22321   2.983   0.850   9.744 -0.3616  0.1523 -0.6857
  182DOPC   H2Y22322   2.988   0.948   9.890  0.5176 -1.2700  0.2680
  182DOPC   C2322323   2.339   0.816   9.938  0.0032 -0.3524  0.4030
  182DOPC   H3R22324   2.239   0.785   9.975 -1.0476  3.3539  1.1087
  182DOPC   H3S22325   2.349   0.922   9.970 -2.2728 -0.1678  0.6235
  182DOPC   C2422326   2.448   0.731   9.996 -0.0252  0.7816 -0.4262
  182DOPC   H4R22327   2.541   0.782   9.963 -0.6283  1.1652 -1.5576
  182DOPC   H4S22328   2.444   0.630   9.951 -1.9819 -0.0704  1.4544
  182DOPC   C2522329   2.460   0.732  10.142 -0.4033 -0.3300  0.1759
  182DOPC   H5R22330   2.369   0.688  10.187 -3.0274  2.0609 -2.3822
  182DOPC   H5S22331   2.455   0.839  10.174  5.2261  0.2679  0.0284
  182DOPC   C2622332   2.591   0.670  10.187  0.7496  0.2142 -0.0388
  182DOPC   H6R22333   2.675   0.730  10.147  1.7535  0.5909  2.4646
  182DOPC   H6S22334   2.604   0.566  10.151 -1.6653  0.3228 -1.4403
  182DOPC   C2722335   2.595   0.683  10.346  0.8695 -0.0389  0.4328
  182DOPC   H7R22336   2.572   0.786  10.378  2.7952  0.0058  1.8650
  182DOPC   H7S22337   2.703   0.667  10.369  1.1974 -0.7315 -1.3979
  182DOPC   C2822338   2.499   0.593  10.423  0.7087  0.2169  0.1344
  182DOPC   H8R22339   2.511   0.489  10.385 -1.4101 -0.6834  1.7081
  182DOPC   H8S22340   2.396   0.618  10.391  1.6105  1.0245 -2.3260
  182DOPC   C2922341   2.519   0.590  10.573  0.6719  0.9472 -1.0899
  182DOPC   H9R22342   2.624   0.583  10.606  0.9915 -2.4704 -2.4620
  182DOPC  C21022343   2.422   0.607  10.671  0.1390 -0.3185  0.0870
  182DOPC  H10R22344   2.446   0.598  10.778  2.7538 -0.8636 -0.4812
  182DOPC  C21122345   2.275   0.604  10.645  0.2764 -0.1010 -0.0274
  182DOPC  H11R22346   2.255   0.660  10.551  0.6111  3.2457  1.7295
  182DOPC  H11S22347   2.228   0.667  10.724  0.6326  0.0064  0.1034
  182DOPC  C21222348   2.205   0.466  10.646 -0.4497  0.0075 -0.1871
  182DOPC  H12R22349   2.211   0.411  10.742  1.0928 -1.5587 -1.1060
  182DOPC  H12S22350   2.253   0.391  10.579 -1.5226 -0.3519 -0.5753
  182DOPC  C21322351   2.056   0.466  10.613  0.0030 -0.0633 -0.1322
  182DOPC  H13R22352   1.994   0.533  10.677 -1.4165 -1.0208 -0.4421
  182DOPC  H13S22353   2.028   0.358  10.618 -0.1309 -0.0513 -0.6240
  182DOPC  C21422354   2.038   0.500  10.464 -0.8603  0.2039  0.1464
  182DOPC  H14R22355   2.098   0.586  10.427  1.6826 -1.3916  0.2802
  182DOPC  H14S22356   1.930   0.519  10.447 -0.8769  0.3010  0.3688
  182DOPC  C21522357   2.070   0.378  10.367 -0.5852  0.5600  0.4373
  182DOPC  H15R22358   2.021   0.286  10.406 -1.2617  1.1908  1.0985
  182DOPC  H15S22359   2.180   0.361  10.365 -0.7378 -0.5986  0.9577
  182DOPC  C21622360   2.013   0.394  10.218  0.2865 -0.6276 -0.5843
  182DOPC  H16R22361   1.904   0.414  10.226  0.5276 -0.1403  2.2534
  182DOPC  H16S22362   2.030   0.292  10.178  0.3032 -2.0262  2.7174
  182DOPC  C21722363   2.081   0.509  10.140 -0.2943 -0.2622 -0.7422
  182DOPC  H17R22364   2.190   0.491  10.150 -0.6775 -3.2596 -0.8056
  182DOPC  H17S22365   2.052   0.608  10.181 -1.3025 -0.0586 -1.8651
  182DOPC  C21822366   2.039   0.503   9.998  0.4803 -0.3693  0.8166
  182DOPC  H18R22367   2.100   0.572   9.936 -0.7458 -1.6171 -1.9433
  182DOPC  H18S22368   1.930   0.522   9.982  0.2695 -2.6545 -0.8628
  182DOPC  H18T22369   2.071   0.407   9.953 -0.2375  0.0148 -0.5896
  182DOPC   C3322370   2.835   0.800   9.896  0.4279 -0.7866 -0.0551
  182DOPC   H3X22371   2.755   0.753   9.835  0.7037 -0.0213 -1.0354
  182DOPC   H3Y22372   2.792   0.868   9.973  0.4664  1.1481 -1.6461
  182DOPC   C3422373   2.922   0.688   9.959 -0.1013 -1.0168 -0.3696
  182DOPC   H4X22374   2.985   0.639   9.881  3.1494  1.2414  0.5943
  182DOPC   H4Y22375   2.859   0.615  10.014  0.8739 -0.9680  0.8824
  182DOPC   C3522376   3.018   0.755  10.060 -0.4179 -0.0933 -0.4442
  182DOPC   H5X22377   2.968   0.832  10.123 -4.5413 -0.8747 -2.3820
  182DOPC   H5Y22378   3.098   0.806  10.004  1.1647 -1.3495  0.5880
  182DOPC   C3622379   3.072   0.644  10.149 -0.2027 -0.0866 -0.2210
  182DOPC   H6X22380   2.980   0.583  10.162 -0.3263  0.1366 -0.0635
  182DOPC   H6Y22381   3.143   0.570  10.104 -1.8411 -0.5031 -2.3019
  182DOPC   C3722382   3.118   0.692  10.289 -0.3991 -0.7995 -0.3099
  182DOPC   H7X22383   3.217   0.743  10.287 -1.2135  1.0177  1.5282
  182DOPC   H7Y22384   3.052   0.774  10.324  0.6137  0.9788 -2.3338
  182DOPC   C3822385   3.129   0.575  10.383  0.1394 -0.6854 -0.0548
  182DOPC   H8X22386   3.168   0.614  10.480 -0.0210  1.3205 -0.7510
  182DOPC   H8Y22387   3.207   0.503  10.352  1.5426 -0.2068  2.0851
  182DOPC   C3922388   3.001   0.499  10.402  0.6103 -0.2518 -0.2291
  182DOPC   H9X22389   2.972   0.434  10.318 -0.0521 -0.4814  0.1678
  182DOPC  C31022390   2.916   0.508  10.512 -0.2732  0.1648 -0.1916
  182DOPC  H10X22391   2.819   0.458  10.513  0.5535 -1.6510 -2.5497
  182DOPC  C31122392   2.938   0.594  10.632 -0.7247  0.1292  0.2881
  182DOPC  H11X22393   2.835   0.614  10.666 -1.5241 -0.1222 -1.8460
  182DOPC  H11Y22394   2.977   0.695  10.609  0.5883 -0.0348  1.6443
  182DOPC  C31222395   3.014   0.528  10.753 -0.1436  0.2349 -0.3019
  182DOPC  H12X22396   3.123   0.537  10.738 -0.1003 -0.5451 -0.4981
  182DOPC  H12Y22397   2.990   0.420  10.762 -1.6391  0.6324  0.9392
  182DOPC  C31322398   2.974   0.591  10.884 -0.0129  0.6346  0.5995
  182DOPC  H13X22399   2.987   0.701  10.884  2.6010  0.3892  1.0549
  182DOPC  H13Y22400   2.867   0.567  10.899  0.2506 -2.1150 -1.2802
  182DOPC  C31422401   3.052   0.554  11.008 -0.4414  0.0050  0.4331
  182DOPC  H14X22402   3.017   0.450  11.027 -0.2736 -0.1024  0.1534
  182DOPC  H14Y22403   3.160   0.570  10.990 -0.2763 -1.3762  0.1365
  182DOPC  C31522404   3.002   0.627  11.139  0.2182 -0.0814  0.4159
  182DOPC  H15X22405   2.898   0.592  11.153 -0.5698  1.4050 -1.3487
  182DOPC  H15Y22406   3.000   0.737  11.134  0.6829 -0.1244 -2.0158
  182DOPC  C31622407   3.080   0.582  11.262 -0.0441 -0.4131  0.7200
  182DOPC  H16X22408   3.188   0.596  11.238 -0.0142  0.8431  1.5026
  182DOPC  H16Y22409   3.055   0.641  11.353  0.4489 -0.9828  1.2353
  182DOPC  C31722410   3.072   0.434  11.302  0.8191  0.4001  0.4814
  182DOPC  H17X22411   2.965   0.405  11.306  0.6915  0.7245 -0.3487
  182DOPC  H17Y22412   3.118   0.369  11.224  0.3513  1.2696 -0.5430
  182DOPC  C31822413   3.125   0.410  11.437 -0.2171  0.0730 -0.2499
  182DOPC  H18X22414   3.234   0.432  11.436 -0.2026  0.0907  0.8409
  182DOPC  H18Y22415   3.084   0.474  11.517  0.5577 -0.4326  0.5704
  182DOPC  H18Z22416   3.111   0.304  11.469  0.5873 -0.5117 -1.7199
  183DOPC     N22417   0.483   2.862  10.171  0.0973  0.8250 -0.3451
  183DOPC   C1222418   0.449   2.989  10.255  0.1099 -0.2292  0.2478
  183DOPC  H12A22419   0.460   3.075  10.192 -1.6579  0.7254  1.1874
  183DOPC  H12B22420   0.530   2.998  10.326 -1.0971 -2.5093  2.0426
  183DOPC   C1322421   0.377   2.836  10.067 -0.0115 -0.1901  0.1197
  183DOPC  H13A22422   0.284   2.816  10.117 -0.4033  0.0556 -0.5000
  183DOPC  H13B22423   0.365   2.921  10.002  1.4157 -0.8293 -1.0246
  183DOPC  H13C22424   0.392   2.748  10.007 -2.9249  0.9859 -2.5954
  183DOPC   C1422425   0.508   2.738  10.255 -0.4088  0.6739 -0.4742
  183DOPC  H14A22426   0.421   2.699  10.304  0.5750  0.0324  0.8387
  183DOPC  H14B22427   0.554   2.657  10.200 -1.3039  0.0620 -0.3314
  183DOPC  H14C22428   0.569   2.776  10.336  0.4442 -0.1265 -0.7113
  183DOPC   C1522429   0.610   2.884  10.101 -0.4133  0.1757  0.5250
  183DOPC  H15A22430   0.664   2.791  10.088 -0.1043  0.5523 -1.0778
  183DOPC  H15B22431   0.679   2.945  10.158 -1.2544  0.7056  0.9948
  183DOPC  H15C22432   0.593   2.933  10.007  1.5569  0.3108  0.1904
  183DOPC   C1122433   0.320   3.003  10.335  0.1961  0.0948 -0.0290
  183DOPC  H11A22434   0.307   3.102  10.384  1.0305  0.9165 -1.3906
  183DOPC  H11B22435   0.238   2.990  10.261  0.5306  1.9902 -0.8160
  183DOPC     P22436   0.189   2.825  10.485  0.2786  0.1630  0.1348
  183DOPC   O1322437   0.244   2.688  10.511  0.0856 -0.4228  0.4956
  183DOPC   O1422438   0.071   2.832  10.395 -0.4467 -0.3314  0.2389
  183DOPC   O1222439   0.315   2.907  10.435 -0.0832  0.0210  0.0360
  183DOPC   O1122440   0.143   2.887  10.625  0.0076  0.1390  0.7042
  183DOPC    C122441   0.133   3.032  10.645  0.0332  0.2314 -0.0696
  183DOPC    HA22442   0.039   3.043  10.702 -0.5127  0.2883 -0.9502
  183DOPC    HB22443   0.110   3.092  10.554 -3.1591  0.9144  1.0721
  183DOPC    C222444   0.245   3.089  10.731  0.7728  0.2964  0.6435
  183DOPC    HS22445   0.341   3.077  10.675  0.0196 -0.3695 -0.5558
  183DOPC   O2122446   0.234   3.023  10.858 -0.0069  0.8061  0.0589
  183DOPC   C2122447   0.348   2.994  10.920  1.0077 -0.1500  0.2326
  183DOPC   O2222448   0.459   3.017  10.884 -0.0717 -0.1165  0.2688
  183DOPC   C2222449   0.312   2.931  11.056  0.1063 -0.6531 -0.0475
  183DOPC   H2R22450   0.252   2.840  11.037 -0.6714 -0.2336  0.3608
  183DOPC   H2S22451   0.258   3.009  11.112  1.0575  1.4810 -1.9239
  183DOPC    C322452   0.230   3.240  10.739 -1.0593 -0.9018  0.1760
  183DOPC    HX22453   0.125   3.277  10.735 -0.3811  1.1844  0.2180
  183DOPC    HY22454   0.271   3.286  10.646 -1.1302 -2.8443 -0.8724
  183DOPC   O3122455   0.293   3.286  10.854 -0.7920  0.0473  0.1217
  183DOPC   C3122456   0.420   3.337  10.843 -0.4267 -0.4067  0.9213
  183DOPC   O3222457   0.479   3.344  10.735  0.1919  0.5089 -0.6865
  183DOPC   C3222458   0.479   3.357  10.988 -0.0570 -0.5785 -0.2718
  183DOPC   H2X22459   0.409   3.412  11.054 -1.0645  0.2649 -1.9619
  183DOPC   H2Y22460   0.493   3.254  11.027 -0.1712 -0.4947 -0.0084
  183DOPC   C2322461   0.442   2.890  11.137 -0.3600  0.2840 -0.1237
  183DOPC   H3R22462   0.517   2.842  11.071  2.2474  2.0637  1.3802
  183DOPC   H3S22463   0.417   2.815  11.216 -0.4531  0.3722 -0.0676
  183DOPC   C2422464   0.509   3.007  11.210 -0.2262 -0.7349  0.3192
  183DOPC   H4R22465   0.427   3.048  11.273 -0.9588 -1.4019 -0.1768
  183DOPC   H4S22466   0.540   3.087  11.139  2.5415 -1.9786  0.0169
  183DOPC   C2522467   0.616   2.992  11.325  0.8632 -0.3296  0.1711
  183DOPC   H5R22468   0.688   2.917  11.286 -0.7557 -0.6158 -2.5019
  183DOPC   H5S22469   0.576   2.942  11.416  3.5052 -2.3202  0.3503
  183DOPC   C2622470   0.701   3.116  11.364 -0.1001  0.3579  0.0519
  183DOPC   H6R22471   0.630   3.194  11.400  1.0388  1.6773 -0.4842
  183DOPC   H6S22472   0.753   3.147  11.271  1.5032 -0.8275  0.5310
  183DOPC   C2722473   0.814   3.075  11.456 -0.1769 -0.1911 -0.4958
  183DOPC   H7R22474   0.868   2.997  11.399 -1.6418 -0.8402 -1.0288
  183DOPC   H7S22475   0.758   3.024  11.537 -0.1054  0.7373  0.1627
  183DOPC   C2822476   0.893   3.190  11.519 -0.6485 -0.3097  0.2053
  183DOPC   H8R22477   0.819   3.271  11.538 -3.2358 -2.2219 -1.0196
  183DOPC   H8S22478   0.961   3.235  11.444 -0.6997 -0.6937 -0.0734
  183DOPC   C2922479   0.966   3.139  11.636  0.4031  0.4267  0.3350
  183DOPC   H9R22480   1.060   3.084  11.619  0.2818  0.0245  0.9461
  183DOPC  C21022481   0.939   3.163  11.764  0.0456  0.1849  0.5056
  183DOPC  H10R22482   0.996   3.121  11.848  0.3910 -0.1385  0.1165
  183DOPC  C21122483   0.837   3.255  11.813 -0.3895  0.3521 -0.6380
  183DOPC  H11R22484   0.754   3.264  11.740  0.6186 -1.3307 -2.0898
  183DOPC  H11S22485   0.881   3.355  11.835  0.0499  0.2266 -0.9315
  183DOPC  C21222486   0.758   3.226  11.951  0.3519 -0.0166 -0.0278
  183DOPC  H12R22487   0.715   3.124  11.956 -0.8292  0.4518 -0.1709
  183DOPC  H12S22488   0.680   3.301  11.977  0.7123 -0.6018  3.2072
  183DOPC  C21322489   0.843   3.246  12.082 -0.5983  0.2733  0.0121
  183DOPC  H13R22490   0.887   3.348  12.077 -0.4623  0.1543 -2.8561
  183DOPC  H13S22491   0.936   3.185  12.092  0.4766  1.6257 -1.2585
  183DOPC  C21422492   0.776   3.237  12.224 -0.0178  0.1626  0.0454
  183DOPC  H14R22493   0.751   3.133  12.255  1.1783  0.6627  2.9425
  183DOPC  H14S22494   0.692   3.308  12.209  0.0631 -0.0463 -1.7096
  183DOPC  C21522495   0.862   3.297  12.336 -0.1353  0.4532 -0.3831
  183DOPC  H15R22496   0.875   3.403  12.305 -1.8140  1.6184  2.5390
  183DOPC  H15S22497   0.961   3.246  12.341 -0.5096 -0.2400  0.1122
  183DOPC  C21622498   0.806   3.305  12.479  0.2247  0.2605  0.3056
  183DOPC  H16R22499   0.804   3.213  12.540  0.8192  1.3594  2.0579
  183DOPC  H16S22500   0.700   3.335  12.465 -0.7770 -3.1566 -0.3411
  183DOPC  C21722501   0.884   3.407  12.563  0.7779  0.9096 -0.0340
  183DOPC  H17R22502   0.873   3.500  12.503  0.3818  1.0498  0.2507
  183DOPC  H17S22503   0.990   3.375  12.566  0.2458 -0.9971  3.2693
  183DOPC  C21822504   0.840   3.430  12.708  0.2555  0.6221  0.2772
  183DOPC  H18R22505   0.857   3.339  12.769 -0.6506  0.2174 -0.0551
  183DOPC  H18S22506   0.732   3.452  12.721  0.1991  3.0793 -3.0588
  183DOPC  H18T22507   0.890   3.519  12.752 -1.8025  0.6295  2.8519
  183DOPC   C3322508   0.617   3.437  11.000 -0.1952  0.0242 -0.4215
  183DOPC   H3X22509   0.591   3.543  10.979  0.4095 -0.0166 -1.4324
  183DOPC   H3Y22510   0.685   3.408  10.917  0.7334  0.0581  0.3047
  183DOPC   C3422511   0.684   3.419  11.134  0.0586  0.1525 -0.2165
  183DOPC   H4X22512   0.700   3.310  11.153  0.0943  0.1525 -0.2475
  183DOPC   H4Y22513   0.621   3.453  11.220  0.9293  1.5192 -0.1010
  183DOPC   C3522514   0.822   3.479  11.144 -0.6056  0.0543 -0.3063
  183DOPC   H5X22515   0.829   3.578  11.096 -1.9506  1.1847  1.6724
  183DOPC   H5Y22516   0.901   3.420  11.094 -1.1735 -1.1613  0.1703
  183DOPC   C3622517   0.870   3.494  11.294 -0.4500 -0.2118 -0.1954
  183DOPC   H6X22518   0.793   3.558  11.341 -0.0109  0.8250 -0.8311
  183DOPC   H6Y22519   0.869   3.393  11.340  1.4222  0.3722  1.2799
  183DOPC   C3722520   1.005   3.559  11.331  0.2626  0.2434 -0.7062
  183DOPC   H7X22521   1.084   3.514  11.268  0.0932 -0.4391 -0.4370
  183DOPC   H7Y22522   0.999   3.667  11.306 -3.3760 -0.5949 -4.5207
  183DOPC   C3822523   1.031   3.554  11.488 -0.3180 -0.2439 -0.1357
  183DOPC   H8X22524   1.002   3.454  11.526 -3.7595  0.2141 -1.2529
  183DOPC   H8Y22525   0.962   3.621  11.543 -0.8699 -0.2745 -0.7799
  183DOPC   C3922526   1.177   3.585  11.532 -0.2870  0.5032 -0.5131
  183DOPC   H9X22527   1.243   3.643  11.466  1.5545  0.5633  1.2803
  183DOPC  C31022528   1.240   3.547  11.646 -0.8618  1.0302  0.5305
  183DOPC  H10X22529   1.346   3.571  11.664 -0.5422  0.1765 -0.1876
  183DOPC  C31122530   1.178   3.467  11.759 -0.5220  0.0953  0.6021
  183DOPC  H11X22531   1.163   3.364  11.720  1.8508  0.2100 -0.8232
  183DOPC  H11Y22532   1.082   3.514  11.787  0.0167  1.5906  0.0338
  183DOPC  C31222533   1.264   3.464  11.878  0.0092 -0.6450 -0.5770
  183DOPC  H12X22534   1.259   3.564  11.927 -0.5302  0.3686 -2.6030
  183DOPC  H12Y22535   1.366   3.434  11.847  0.8118  0.3066  0.9861
  183DOPC  C31322536   1.212   3.355  11.977 -0.5625 -0.8800 -0.3779
  183DOPC  H13X22537   1.102   3.366  11.967 -0.2900  0.4774 -2.7344
  183DOPC  H13Y22538   1.244   3.253  11.947 -1.9603 -2.1582  2.1839
  183DOPC  C31422539   1.257   3.372  12.122  0.2458 -0.2323  0.3991
  183DOPC  H14X22540   1.217   3.466  12.164 -1.4800 -0.2443 -1.1180
  183DOPC  H14Y22541   1.210   3.295  12.188  1.7123 -0.6984  0.9434
  183DOPC  C31522542   1.410   3.368  12.148 -0.5387  0.2110  0.6854
  183DOPC  H15X22543   1.454   3.452  12.090 -0.9415  0.7333  1.1226
  183DOPC  H15Y22544   1.441   3.275  12.096  0.1342  2.1782 -2.7675
  183DOPC  C31622545   1.456   3.390  12.288 -0.0918 -0.5829  0.2776
  183DOPC  H16X22546   1.420   3.491  12.316 -0.1501 -0.2515 -0.9262
  183DOPC  H16Y22547   1.409   3.314  12.354 -0.9083 -1.5656 -1.3621
  183DOPC  C31722548   1.606   3.372  12.310  0.2917 -0.1105 -0.1744
  183DOPC  H17X22549   1.629   3.264  12.294  1.9361  0.0578  0.8516
  183DOPC  H17Y22550   1.658   3.428  12.229  0.3869 -0.5181 -0.3982
  183DOPC  C31822551   1.655   3.419  12.447  0.0605 -0.5876  0.0451
  183DOPC  H18X22552   1.630   3.526  12.458  2.0159 -0.2225  1.4995
  183DOPC  H18Y22553   1.599   3.373  12.531 -1.3202  0.1083 -0.4581
  183DOPC  H18Z22554   1.765   3.407  12.449  0.2802  0.4195 -2.4685
  184DOPC     N22555   5.572   0.351   9.196 -0.0558 -0.6842 -0.3691
  184DOPC   C1222556   5.487   0.370   9.325 -0.1142  0.1295  0.5409
  184DOPC  H12A22557   5.403   0.428   9.290  1.6357  1.1857 -2.2358
  184DOPC  H12B22558   5.540   0.427   9.399 -2.8120 -0.2723  2.9834
  184DOPC   C1322559   5.482   0.292   9.085  0.0433  0.5066  0.2439
  184DOPC  H13A22560   5.533   0.217   9.027 -0.7920 -0.2426  0.4556
  184DOPC  H13B22561   5.400   0.240   9.132 -0.3108  0.7161 -0.1328
  184DOPC  H13C22562   5.453   0.377   9.025  1.2396  0.5675 -0.2813
  184DOPC   C1422563   5.681   0.254   9.216 -0.0042  0.4291  0.2300
  184DOPC  H14A22564   5.752   0.249   9.135  0.8307 -0.9870  1.0238
  184DOPC  H14B22565   5.741   0.283   9.302 -0.0265  1.0702  0.0380
  184DOPC  H14C22566   5.642   0.155   9.234 -0.5557  0.8087  1.1982
  184DOPC   C1522567   5.620   0.476   9.149  0.1344 -0.5551  0.5190
  184DOPC  H15A22568   5.657   0.461   9.048 -0.2129  0.5613  0.2060
  184DOPC  H15B22569   5.704   0.520   9.201  0.0919  0.6606 -0.3872
  184DOPC  H15C22570   5.549   0.556   9.135 -0.4085 -1.2504 -0.9154
  184DOPC   C1122571   5.422   0.244   9.393 -0.1706  0.0705 -0.2613
  184DOPC  H11A22572   5.493   0.164   9.421 -0.5260 -0.7836 -1.6728
  184DOPC  H11B22573   5.391   0.283   9.492  1.5715  1.2254 -0.1381
  184DOPC     P22574   5.158   0.257   9.349 -0.2280  0.0569 -0.1202
  184DOPC   O1322575   5.055   0.183   9.270 -0.0829 -0.1898 -0.9144
  184DOPC   O1422576   5.165   0.399   9.311  0.4337 -0.3320  0.3215
  184DOPC   O1222577   5.306   0.187   9.324  0.0085 -0.2131 -0.2505
  184DOPC   O1122578   5.133   0.237   9.500 -0.2587 -0.3318  0.0304
  184DOPC    C122579   5.106   0.099   9.547 -0.3360  0.0137 -0.3292
  184DOPC    HA22580   5.198   0.039   9.529 -0.6439 -1.1244  1.6560
  184DOPC    HB22581   5.018   0.057   9.494  0.7545 -0.4925 -1.7939
  184DOPC    C222582   5.086   0.102   9.698 -0.2176 -0.2411  0.4571
  184DOPC    HS22583   5.083  -0.002   9.737  0.5545 -0.1560  0.7718
  184DOPC   O2122584   4.969   0.183   9.725 -0.2406  0.0875  0.6169
  184DOPC   C2122585   4.867   0.106   9.716  0.3758  0.4737  0.5021
  184DOPC   O2222586   4.866  -0.021   9.715 -0.2535 -0.1959 -0.1785
  184DOPC   C2222587   4.741   0.197   9.691 -0.7732 -0.5378 -1.0206
  184DOPC   H2R22588   4.705   0.168   9.590 -2.1714 -0.1603 -0.6499
  184DOPC   H2S22589   4.778   0.302   9.688 -0.3383 -0.7079 -2.4661
  184DOPC    C322590   5.197   0.169   9.774 -0.4084  0.1003 -0.2652
  184DOPC    HX22591   5.190   0.279   9.757  0.4616  0.2861  0.4485
  184DOPC    HY22592   5.293   0.147   9.724 -0.0388  1.6100 -0.2890
  184DOPC   O3122593   5.200   0.131   9.913 -0.2983 -0.3777  0.2802
  184DOPC   C3122594   5.173   0.232   9.997 -0.2284  0.3060  0.1053
  184DOPC   O3222595   5.154   0.348   9.970  0.2152  0.2802 -0.0409
  184DOPC   C3222596   5.190   0.176  10.137 -0.1747 -0.1082  0.2328
  184DOPC   H2X22597   5.088   0.145  10.168 -0.2499 -0.7952 -0.6788
  184DOPC   H2Y22598   5.250   0.083  10.129 -1.6164 -0.9699 -1.1917
  184DOPC   C2322599   4.636   0.175   9.801 -0.2687  0.2906 -1.0709
  184DOPC   H3R22600   4.599   0.070   9.804 -2.1788  0.9387 -0.4452
  184DOPC   H3S22601   4.550   0.241   9.776 -0.2460  0.0954 -1.6852
  184DOPC   C2422602   4.675   0.218   9.951 -0.4317  0.6765  0.1146
  184DOPC   H4R22603   4.658   0.327   9.968 -0.6927  0.6081  0.2830
  184DOPC   H4S22604   4.784   0.204   9.970  0.0656  3.1330 -0.5558
  184DOPC   C2522605   4.600   0.135  10.063  0.3908 -0.2586 -0.1868
  184DOPC   H5R22606   4.619   0.026  10.059  0.1406 -0.2702 -2.2595
  184DOPC   H5S22607   4.490   0.142  10.050  0.3915 -2.5487 -2.0810
  184DOPC   C2622608   4.633   0.172  10.205 -0.4533 -0.0009  0.2994
  184DOPC   H6R22609   4.548   0.151  10.274  1.2571 -1.2399  2.1566
  184DOPC   H6S22610   4.677   0.273  10.219 -0.1858  0.1639 -1.5633
  184DOPC   C2722611   4.745   0.075  10.271 -0.8093 -0.1759 -0.8939
  184DOPC   H7R22612   4.842   0.107  10.228 -0.8997 -0.9438 -1.7256
  184DOPC   H7S22613   4.717  -0.026  10.233 -1.0638 -1.3887  2.2124
  184DOPC   C2822614   4.747   0.080  10.425 -0.0968 -0.2149 -0.4065
  184DOPC   H8R22615   4.808  -0.011  10.448 -0.7842 -0.8057 -0.8993
  184DOPC   H8S22616   4.648   0.074  10.475  0.1931  0.9556  0.3494
  184DOPC   C2922617   4.815   0.208  10.477 -0.5694  0.1943  0.3552
  184DOPC   H9R22618   4.824   0.289  10.402  1.9959 -1.3436 -1.1481
  184DOPC  C21022619   4.874   0.229  10.596 -0.2825  0.2653  0.4481
  184DOPC  H10R22620   4.909   0.331  10.618  3.1018 -0.9036  1.1898
  184DOPC  C21122621   4.886   0.135  10.717  0.2013 -0.0483  0.4942
  184DOPC  H11R22622   4.992   0.104  10.723  0.5361  0.6056 -1.3309
  184DOPC  H11S22623   4.820   0.047  10.698  1.1288 -0.5129 -0.7265
  184DOPC  C21222624   4.852   0.199  10.844  0.0007  0.1670 -0.4835
  184DOPC  H12R22625   4.744   0.221  10.838 -0.3243 -1.5077 -1.4140
  184DOPC  H12S22626   4.906   0.293  10.865 -0.6104  0.4554 -0.1910
  184DOPC  C21322627   4.872   0.102  10.967  0.0725 -0.5323 -0.2189
  184DOPC  H13R22628   4.982   0.103  10.983 -0.1972 -1.7523  2.1436
  184DOPC  H13S22629   4.827   0.002  10.947 -1.3971  0.1218 -0.3295
  184DOPC  C21422630   4.810   0.165  11.094  0.3395  0.7029  0.4668
  184DOPC  H14R22631   4.700   0.158  11.079  0.5591 -1.9654 -0.3599
  184DOPC  H14S22632   4.838   0.272  11.103  0.9021  0.8135 -1.9401
  184DOPC  C21522633   4.849   0.103  11.226  0.8309  0.3452 -0.6222
  184DOPC  H15R22634   4.959   0.084  11.233  1.1528  1.1587 -2.8119
  184DOPC  H15S22635   4.800   0.004  11.235 -1.5342  1.5654  1.0648
  184DOPC  C21622636   4.809   0.185  11.347 -0.5336 -0.2168 -0.0241
  184DOPC  H16R22637   4.699   0.199  11.354 -0.6523  0.6160 -2.7291
  184DOPC  H16S22638   4.824   0.294  11.332 -1.1341 -0.3885 -2.2124
  184DOPC  C21722639   4.867   0.148  11.480 -0.1626  0.8534  1.0008
  184DOPC  H17R22640   4.977   0.159  11.473 -0.0704  0.4750  1.7656
  184DOPC  H17S22641   4.843   0.040  11.495  1.3624  0.1318 -1.1658
  184DOPC  C21822642   4.821   0.233  11.592  0.3995 -0.0540 -0.2788
  184DOPC  H18R22643   4.843   0.186  11.690 -3.2155 -1.6258 -0.0454
  184DOPC  H18S22644   4.712   0.250  11.576  0.3466 -0.3567 -0.2383
  184DOPC  H18T22645   4.871   0.332  11.587 -0.7464  0.5556  0.0735
  184DOPC   C3322646   5.248   0.282  10.230  0.1863  0.5631 -0.3988
  184DOPC   H3X22647   5.204   0.380  10.200 -1.1571 -0.1488 -0.7870
  184DOPC   H3Y22648   5.359   0.286  10.234  0.1490  3.3880  1.6841
  184DOPC   C3422649   5.218   0.240  10.376 -0.3589 -0.2503  0.3557
  184DOPC   H4X22650   5.250   0.134  10.387  0.0588 -0.0245  1.4845
  184DOPC   H4Y22651   5.108   0.247  10.392 -0.5924 -0.1898 -1.1092
  184DOPC   C3522652   5.295   0.318  10.486 -0.3274 -0.6393 -0.0231
  184DOPC   H5X22653   5.288   0.428  10.466 -1.8131 -0.4960  1.0524
  184DOPC   H5Y22654   5.403   0.295  10.495 -0.3076 -0.8955 -0.8701
  184DOPC   C3622655   5.236   0.279  10.622 -0.1730  0.0886 -0.3754
  184DOPC   H6X22656   5.128   0.304  10.611  0.4017  2.6152 -1.0094
  184DOPC   H6Y22657   5.238   0.172  10.649  4.0823  0.6065  2.2212
  184DOPC   C3722658   5.304   0.365  10.727 -0.4049  0.2611 -0.2382
  184DOPC   H7X22659   5.407   0.325  10.730 -1.3253 -2.3257 -0.6720
  184DOPC   H7Y22660   5.311   0.467  10.683  2.4145  0.2668  0.0780
  184DOPC   C3822661   5.242   0.388  10.868 -0.5888  0.0535  0.5571
  184DOPC   H8X22662   5.139   0.422  10.845  0.3588  2.0602 -1.0704
  184DOPC   H8Y22663   5.303   0.466  10.919  0.3836 -0.1841 -0.2108
  184DOPC   C3922664   5.268   0.259  10.941 -0.0406  0.4084  0.3171
  184DOPC   H9X22665   5.272   0.170  10.877  1.3064 -1.2809  2.6116
  184DOPC  C31022666   5.277   0.243  11.072  0.1774  0.4976  0.1472
  184DOPC  H10X22667   5.266   0.139  11.107 -2.1192  0.5028 -0.4215
  184DOPC  C31122668   5.261   0.331  11.194  0.3128 -0.0083  0.5157
  184DOPC  H11X22669   5.252   0.434  11.153  0.3027  0.0932  0.7734
  184DOPC  H11Y22670   5.357   0.342  11.249  0.4097 -0.8193  0.5208
  184DOPC  C31222671   5.135   0.298  11.273 -0.1257 -0.8034 -0.1386
  184DOPC  H12X22672   5.138   0.190  11.301  2.4972 -1.2473 -1.8020
  184DOPC  H12Y22673   5.044   0.312  11.210  0.6041 -0.9033 -1.2361
  184DOPC  C31322674   5.121   0.397  11.394 -0.1512 -0.5122 -0.2358
  184DOPC  H13X22675   5.151   0.501  11.368 -0.3097 -0.2870  0.4599
  184DOPC  H13Y22676   5.014   0.397  11.423 -0.1164  0.8135 -0.0474
  184DOPC  C31422677   5.194   0.348  11.527 -0.0710 -0.5008  0.2747
  184DOPC  H14X22678   5.148   0.259  11.574 -2.6442  0.3951 -0.3762
  184DOPC  H14Y22679   5.303   0.329  11.514 -0.1188 -0.1833 -0.6699
  184DOPC  C31522680   5.204   0.458  11.637 -0.5717 -0.0590 -0.2893
  184DOPC  H15X22681   5.110   0.502  11.676  0.3863  2.7311 -0.8913
  184DOPC  H15Y22682   5.268   0.536  11.590 -1.3302  1.5062  1.1715
  184DOPC  C31622683   5.268   0.409  11.767  0.0445  0.0229  0.6203
  184DOPC  H16X22684   5.374   0.383  11.748 -0.0364  0.5792 -0.6597
  184DOPC  H16Y22685   5.267   0.487  11.847  0.4574 -2.3739  3.1080
  184DOPC  C31722686   5.205   0.282  11.836  0.0937  0.1205 -0.0685
  184DOPC  H17X22687   5.095   0.298  11.834  0.2584  1.2839 -0.6926
  184DOPC  H17Y22688   5.223   0.182  11.791 -0.3105 -0.2583  0.6002
  184DOPC  C31822689   5.248   0.261  11.987 -0.2119  0.7150  0.5908
  184DOPC  H18X22690   5.206   0.345  12.047 -0.4492 -0.3334  1.9362
  184DOPC  H18Y22691   5.211   0.164  12.024 -0.0734  0.8983  1.2146
  184DOPC  H18Z22692   5.356   0.248  12.009 -0.5380 -0.8803  1.3503
  185DOPC     N22693   0.035   3.638  10.160 -0.1850 -0.4276 -0.2167
  185DOPC   C1222694   0.139   3.675  10.269 -0.2207  0.5463 -0.0434
  185DOPC  H12A22695   0.161   3.584  10.323 -1.5032  0.6680  0.7295
  185DOPC  H12B22696   0.097   3.737  10.346 -1.2739 -0.1665 -0.0127
  185DOPC   C1322697  -0.016   3.754  10.092 -0.4375 -0.2940 -0.9023
  185DOPC  H13A22698  -0.060   3.815  10.169  2.8786  0.2449  0.7610
  185DOPC  H13B22699   0.050   3.813  10.030  0.7927  0.8282  1.3419
  185DOPC  H13C22700  -0.092   3.720  10.024 -0.4719 -2.6362  0.2066
  185DOPC   C1422701  -0.077   3.573  10.227 -0.6994  0.2409  0.4042
  185DOPC  H14A22702  -0.117   3.634  10.307  0.0794  2.1051 -0.5665
  185DOPC  H14B22703  -0.153   3.554  10.152  0.4514 -0.9138 -0.5222
  185DOPC  H14C22704  -0.049   3.472  10.253  0.5958  0.7455  1.0381
  185DOPC   C1522705   0.100   3.548  10.065  0.4669  0.4994 -0.5583
  185DOPC  H15A22706   0.188   3.591  10.019  1.4810  0.9013  1.6324
  185DOPC  H15B22707   0.034   3.519   9.985  1.5702 -1.0023 -0.9582
  185DOPC  H15C22708   0.132   3.463  10.123 -0.6997 -0.0748 -0.7376
  185DOPC   C1122709   0.269   3.751  10.227  0.3333 -0.0663 -0.1616
  185DOPC  H11A22710   0.331   3.748  10.319 -0.2025  0.5208  0.2264
  185DOPC  H11B22711   0.319   3.690  10.149  1.3341  1.9172 -1.1545
  185DOPC     P22712   0.195   3.999  10.254 -0.1340 -0.2286 -0.3022
  185DOPC   O1322713   0.062   3.959  10.309  1.0461 -0.1633 -0.5027
  185DOPC   O1422714   0.186   4.112  10.166 -0.2600 -0.2076 -0.1100
  185DOPC   O1222715   0.247   3.879  10.166  0.3976 -0.4841 -0.3001
  185DOPC   O1122716   0.303   4.022  10.364 -0.6004  0.6634 -0.1892
  185DOPC    C122717   0.266   4.049  10.492  0.7414 -0.4987 -0.2141
  185DOPC    HA22718   0.362   4.045  10.547  1.5541  4.0748 -0.8503
  185DOPC    HB22719   0.183   3.986  10.530 -2.5898  2.7102 -1.6253
  185DOPC    C222720   0.204   4.193  10.493 -1.1959  0.2208 -0.5273
  185DOPC    HS22721   0.112   4.191  10.431 -1.3821  0.7767 -0.2703
  185DOPC   O2122722   0.299   4.284  10.436 -0.2227 -0.3295 -0.0551
  185DOPC   C2122723   0.246   4.395  10.402 -0.2030 -0.4932  0.3223
  185DOPC   O2222724   0.128   4.426  10.397  0.0525 -0.2731  0.6502
  185DOPC   C2222725   0.363   4.482  10.360 -0.4110 -0.4353  0.4411
  185DOPC   H2R22726   0.343   4.538  10.266  1.4228  1.0794  0.8801
  185DOPC   H2S22727   0.455   4.421  10.351 -1.1056 -1.3624 -0.6549
  185DOPC    C322728   0.155   4.233  10.637  0.2825  0.0468  0.5884
  185DOPC    HX22729   0.076   4.158  10.657  1.1250 -1.6883 -2.0623
  185DOPC    HY22730   0.109   4.334  10.638  0.5487  0.1779  0.1562
  185DOPC   O3122731   0.263   4.216  10.730  0.0050 -0.4420  0.4534
  185DOPC   C3122732   0.225   4.217  10.861  0.1977 -1.1219 -0.5623
  185DOPC   O3222733   0.113   4.252  10.900 -0.8961  0.2823 -0.1854
  185DOPC   C3222734   0.348   4.167  10.941 -0.1503 -0.1546 -0.1448
  185DOPC   H2X22735   0.346   4.058  10.959  0.6001  0.2035  2.6178
  185DOPC   H2Y22736   0.427   4.184  10.866 -0.2992 -0.8342 -0.4605
  185DOPC   C2322737   0.375   4.596  10.465 -0.8315 -0.4563 -0.6373
  185DOPC   H3R22738   0.295   4.671  10.450 -1.6309 -0.9437  0.9753
  185DOPC   H3S22739   0.472   4.640  10.434 -0.4556 -0.1568  0.8846
  185DOPC   C2422740   0.391   4.545  10.609  0.0976  0.4294 -0.8187
  185DOPC   H4R22741   0.501   4.535  10.622  0.0482 -0.1367 -0.8373
  185DOPC   H4S22742   0.349   4.444  10.625  1.7167 -0.1536  0.0504
  185DOPC   C2522743   0.341   4.652  10.706 -0.4795  1.0124  0.8584
  185DOPC   H5R22744   0.230   4.657  10.700 -0.9374 -3.3457  1.8619
  185DOPC   H5S22745   0.395   4.745  10.677  0.9226  0.0936  0.4038
  185DOPC   C2622746   0.376   4.627  10.855  0.5226  0.1693  0.3880
  185DOPC   H6R22747   0.487   4.624  10.851  0.5778  1.5561  0.2646
  185DOPC   H6S22748   0.348   4.522  10.876 -1.0258  0.3103 -0.7920
  185DOPC   C2722749   0.315   4.730  10.945  0.1255 -0.5061  0.2228
  185DOPC   H7R22750   0.338   4.836  10.918 -0.0272 -0.7520 -0.9342
  185DOPC   H7S22751   0.358   4.719  11.047 -0.0064  0.4746  0.3912
  185DOPC   C2822752   0.160   4.722  10.954 -0.1611 -0.4430  0.3824
  185DOPC   H8R22753   0.120   4.740  10.852  1.6185  1.7957  0.0164
  185DOPC   H8S22754   0.120   4.809  11.010 -0.9129 -0.3966 -0.2092
  185DOPC   C2922755   0.114   4.588  11.012 -0.4669  0.3671  0.5912
  185DOPC   H9R22756   0.121   4.509  10.937  1.3342 -1.2454  2.3310
  185DOPC  C21022757   0.089   4.556  11.139 -0.5461  0.6975 -0.6634
  185DOPC  H10R22758   0.047   4.456  11.156  0.1146  0.3102 -1.2574
  185DOPC  C21122759   0.073   4.659  11.253 -0.7440  0.0901 -0.2986
  185DOPC  H11R22760  -0.011   4.630  11.321 -0.2914 -1.2887 -0.3003
  185DOPC  H11S22761   0.051   4.757  11.206 -3.8477 -0.9883 -1.4045
  185DOPC  C21222762   0.200   4.679  11.326 -0.4115  0.6273 -0.8301
  185DOPC  H12R22763   0.287   4.699  11.260  1.5267  3.6589  2.2790
  185DOPC  H12S22764   0.229   4.583  11.373  2.4982  1.6391 -0.3047
  185DOPC  C21322765   0.210   4.796  11.419 -0.4071  0.3294 -0.3937
  185DOPC  H13R22766   0.305   4.774  11.472 -0.7822  0.5706  0.4024
  185DOPC  H13S22767   0.139   4.788  11.504  0.7833 -0.3664  0.5663
  185DOPC  C21422768   0.222   4.937  11.350 -0.5946  0.1517 -0.1289
  185DOPC  H14R22769   0.121   4.949  11.306 -0.1236 -0.7629 -1.5030
  185DOPC  H14S22770   0.295   4.929  11.266 -0.4732 -0.1527  0.0032
  185DOPC  C21522771   0.259   5.046  11.458  0.0866  0.1137 -0.1914
  185DOPC  H15R22772   0.322   5.124  11.411 -0.4522  1.0813  0.6739
  185DOPC  H15S22773   0.304   4.995  11.546 -0.7058 -0.7264 -0.2472
  185DOPC  C21622774   0.136   5.130  11.491  0.4155  0.1328  0.5798
  185DOPC  H16R22775   0.057   5.072  11.544 -0.3565  0.8114  0.2057
  185DOPC  H16S22776   0.093   5.175  11.399  1.6634  2.3848  1.0394
  185DOPC  C21722777   0.190   5.247  11.574  0.0237  0.5446  0.2574
  185DOPC  H17R22778   0.268   5.305  11.520  0.2807 -0.7071 -0.7747
  185DOPC  H17S22779   0.244   5.208  11.663  1.7026  0.0854 -0.9087
  185DOPC  C21822780   0.082   5.350  11.622  0.2693  0.1303 -0.1176
  185DOPC  H18R22781   0.121   5.443  11.669 -0.4885  0.6696 -0.5195
  185DOPC  H18S22782   0.024   5.300  11.703  0.0558 -0.0092 -0.3554
  185DOPC  H18T22783   0.014   5.372  11.536 -0.6038  0.0380  0.5311
  185DOPC   C3322784   0.372   4.252  11.067  0.3750 -0.2866 -0.4078
  185DOPC   H3X22785   0.340   4.359  11.066  3.1645  0.6239 -1.4892
  185DOPC   H3Y22786   0.481   4.270  11.065  0.1925  0.8532 -0.8040
  185DOPC   C3422787   0.331   4.194  11.206  0.6809 -0.6303 -1.0576
  185DOPC   H4X22788   0.386   4.098  11.217  1.7254 -0.0255 -0.8921
  185DOPC   H4Y22789   0.220   4.183  11.207  0.6651 -0.5576 -1.6658
  185DOPC   C3522790   0.368   4.293  11.321 -0.0854  0.0006 -0.2850
  185DOPC   H5X22791   0.299   4.380  11.319  0.4067  0.4646  1.5332
  185DOPC   H5Y22792   0.469   4.330  11.291 -0.0115  1.4656  1.5725
  185DOPC   C3622793   0.360   4.228  11.454  0.2099 -0.2315  0.0391
  185DOPC   H6X22794   0.259   4.184  11.461 -0.6352  1.2770 -1.9847
  185DOPC   H6Y22795   0.433   4.147  11.476 -0.8193 -1.0717  0.3999
  185DOPC   C3722796   0.371   4.325  11.576  0.0661  0.8428 -0.2707
  185DOPC   H7X22797   0.478   4.353  11.582  1.0950 -2.7814  0.6622
  185DOPC   H7Y22798   0.315   4.421  11.566 -2.1400 -0.3600 -0.0383
  185DOPC   C3822799   0.327   4.244  11.703 -0.1194  0.1216  0.1685
  185DOPC   H8X22800   0.407   4.168  11.715 -0.8729 -0.7097  0.0293
  185DOPC   H8Y22801   0.235   4.185  11.687 -1.9800  2.9066 -0.2063
  185DOPC   C3922802   0.297   4.335  11.818 -0.8052  0.1146  1.2034
  185DOPC   H9X22803   0.201   4.383  11.797  1.0491  3.2385 -0.9209
  185DOPC  C31022804   0.369   4.356  11.931  0.0938 -0.7230 -0.7021
  185DOPC  H10X22805   0.319   4.427  11.998  2.0595 -1.2624  1.4784
  185DOPC  C31122806   0.501   4.309  11.972  0.8433  0.2873  0.6146
  185DOPC  H11X22807   0.547   4.246  11.893 -2.1567  0.1458 -1.1463
  185DOPC  H11Y22808   0.486   4.244  12.061 -1.7623  0.8453  0.6668
  185DOPC  C31222809   0.603   4.421  12.005 -0.5915 -0.5449  0.1059
  185DOPC  H12X22810   0.617   4.473  11.908  1.8790 -0.9119  0.2105
  185DOPC  H12Y22811   0.698   4.372  12.032 -0.5687 -1.6174 -1.7511
  185DOPC  C31322812   0.554   4.516  12.117 -0.3781 -0.1493 -0.5115
  185DOPC  H13X22813   0.456   4.560  12.087  1.0376  2.2321 -1.9483
  185DOPC  H13Y22814   0.543   4.458  12.211  0.9023 -0.4762 -0.5516
  185DOPC  C31422815   0.660   4.632  12.145 -0.2836  0.6058  0.2066
  185DOPC  H14X22816   0.737   4.600  12.217 -1.1512  1.1196  1.3956
  185DOPC  H14Y22817   0.709   4.663  12.050 -0.1981  2.0230  0.6875
  185DOPC  C31522818   0.602   4.769  12.192  0.1559  0.7698  0.4719
  185DOPC  H15X22819   0.505   4.779  12.139 -1.4184 -0.6659  2.8831
  185DOPC  H15Y22820   0.663   4.848  12.144 -0.0626 -0.6763 -2.3781
  185DOPC  C31622821   0.590   4.777  12.341  0.0606 -0.5904  0.7307
  185DOPC  H16X22822   0.536   4.691  12.386  0.9914 -1.8876 -0.5634
  185DOPC  H16Y22823   0.691   4.791  12.384 -0.0283  2.8920  0.1254
  185DOPC  C31722824   0.503   4.896  12.384  0.6576 -0.5302 -0.0954
  185DOPC  H17X22825   0.399   4.884  12.347 -0.1046  1.7122  1.1267
  185DOPC  H17Y22826   0.509   4.894  12.495  2.1246  0.0782 -0.1401
  185DOPC  C31822827   0.549   5.036  12.337  0.3079 -0.0442 -0.3217
  185DOPC  H18X22828   0.550   5.035  12.226 -2.2568 -2.2459 -0.4103
  185DOPC  H18Y22829   0.479   5.112  12.377  1.7012  2.0001 -1.5630
  185DOPC  H18Z22830   0.648   5.060  12.382 -0.0431 -0.5945  0.7632
  186DOPC     N22831   1.211   2.442  10.138  0.5975 -0.2646  0.1918
  186DOPC   C1222832   1.176   2.498  10.275 -0.2609  0.2686  0.1224
  186DOPC  H12A22833   1.161   2.604  10.266 -2.0029 -0.0944 -2.0172
  186DOPC  H12B22834   1.252   2.484  10.351 -0.8661 -1.3471  0.4831
  186DOPC   C1322835   1.135   2.509  10.026  0.2722  0.8414 -0.4339
  186DOPC  H13A22836   1.175   2.606  10.001  1.9911  1.1765  3.0167
  186DOPC  H13B22837   1.141   2.445   9.939 -1.3854  1.8413 -1.3522
  186DOPC  H13C22838   1.029   2.519  10.044 -0.1655  0.1087 -2.3056
  186DOPC   C1422839   1.179   2.292  10.133  0.0355 -0.0011 -0.0404
  186DOPC  H14A22840   1.218   2.242  10.046 -0.8428 -0.1552 -0.3638
  186DOPC  H14B22841   1.213   2.236  10.219 -0.8922  0.8935  0.9449
  186DOPC  H14C22842   1.072   2.275  10.134  0.1227 -0.6073  1.0632
  186DOPC   C1522843   1.358   2.461  10.104  0.0661  0.7142  0.2909
  186DOPC  H15A22844   1.390   2.564  10.102 -1.0823  1.0806  0.2758
  186DOPC  H15B22845   1.379   2.424  10.005 -0.3234 -0.0349  0.4874
  186DOPC  H15C22846   1.417   2.414  10.182  0.1286  0.4131  0.0638
  186DOPC   C1122847   1.038   2.445  10.333 -0.0907 -0.4084 -0.3217
  186DOPC  H11A22848   1.056   2.336  10.343  0.0938 -0.3466  0.0496
  186DOPC  H11B22849   1.029   2.484  10.437  0.2343 -1.3567  0.0780
  186DOPC     P22850   0.798   2.397  10.279 -0.4490 -0.3889  0.1140
  186DOPC   O1322851   0.813   2.271  10.217  0.0790 -0.3121  0.3842
  186DOPC   O1422852   0.680   2.478  10.242 -0.0287  0.4932 -0.1699
  186DOPC   O1222853   0.923   2.484  10.247  0.3543 -0.1213  0.2908
  186DOPC   O1122854   0.803   2.378  10.437  0.0678  0.3135  0.0611
  186DOPC    C122855   0.777   2.259  10.505 -0.1264  0.1151 -0.7209
  186DOPC    HA22856   0.854   2.182  10.482  0.2704  0.5458 -0.8377
  186DOPC    HB22857   0.680   2.213  10.477  0.7837 -2.1437 -0.3905
  186DOPC    C222858   0.799   2.284  10.654 -0.0462 -0.5135 -0.2822
  186DOPC    HS22859   0.844   2.193  10.699  1.1441  0.8282  1.3711
  186DOPC   O2122860   0.682   2.330  10.723 -0.1570  0.1862  0.0242
  186DOPC   C2122861   0.612   2.226  10.772  0.2823 -0.2195  0.9179
  186DOPC   O2222862   0.649   2.108  10.779 -0.6664 -0.3663 -0.2034
  186DOPC   C2222863   0.482   2.284  10.813 -0.6014  0.4243 -0.3689
  186DOPC   H2R22864   0.459   2.379  10.760 -2.8523 -1.1838 -2.5321
  186DOPC   H2S22865   0.506   2.313  10.917  0.4180 -1.7630  0.0641
  186DOPC    C322866   0.916   2.390  10.676  0.2608 -0.7779 -0.4237
  186DOPC    HX22867   0.891   2.488  10.630  2.9466  0.7277  1.0502
  186DOPC    HY22868   1.004   2.350  10.622  2.0429  2.3894 -0.1647
  186DOPC   O3122869   0.954   2.399  10.811  0.3735 -0.2490 -0.2896
  186DOPC   C3122870   0.981   2.517  10.860 -0.2286 -0.1615 -0.9798
  186DOPC   O3222871   0.950   2.622  10.806 -0.3018 -0.2727 -0.2273
  186DOPC   C3222872   1.047   2.507  10.999  0.7091 -0.2264 -0.6102
  186DOPC   H2X22873   0.998   2.426  11.058  2.0394 -0.9038 -0.4121
  186DOPC   H2Y22874   1.152   2.477  10.982  0.4842 -3.0403  2.1856
  186DOPC   C2322875   0.361   2.180  10.815 -0.4390 -0.4253  0.0224
  186DOPC   H3R22876   0.358   2.127  10.718 -1.2451  0.8274 -0.6628
  186DOPC   H3S22877   0.268   2.241  10.809  0.3226  0.7471 -0.1753
  186DOPC   C2422878   0.362   2.085  10.936 -0.4944 -0.0350 -0.0678
  186DOPC   H4R22879   0.466   2.045  10.941  0.7656  2.8773 -0.9452
  186DOPC   H4S22880   0.291   2.000  10.930 -1.0804  0.4005  0.6021
  186DOPC   C2522881   0.309   2.154  11.064  0.2117 -0.3150 -0.2249
  186DOPC   H5R22882   0.201   2.180  11.054  0.7556  1.5587 -2.0628
  186DOPC   H5S22883   0.364   2.250  11.080  0.9627 -0.2145 -2.8892
  186DOPC   C2622884   0.332   2.058  11.181  0.3431 -0.5818 -0.1319
  186DOPC   H6R22885   0.440   2.037  11.192  0.8052  2.3345  2.0014
  186DOPC   H6S22886   0.279   1.969  11.141 -1.3925  0.7946 -1.0940
  186DOPC   C2722887   0.271   2.107  11.314  0.0312  0.1816 -0.1746
  186DOPC   H7R22888   0.163   2.111  11.289 -0.1182 -2.4857 -0.2492
  186DOPC   H7S22889   0.306   2.209  11.339  0.7955  0.1467 -1.0697
  186DOPC   C2822890   0.304   2.003  11.432  0.0427 -0.3692 -0.1389
  186DOPC   H8R22891   0.411   2.020  11.456 -0.2811  0.4528  0.7994
  186DOPC   H8S22892   0.274   1.902  11.397 -0.2763  0.0857 -1.2185
  186DOPC   C2922893   0.232   2.036  11.558  0.5015  0.1983  0.0829
  186DOPC   H9R22894   0.144   2.101  11.545 -1.2458 -1.7871  1.3524
  186DOPC  C21022895   0.247   1.992  11.683 -0.4754  0.3365 -0.2283
  186DOPC  H10R22896   0.169   2.008  11.760 -2.3732 -3.3140 -1.1790
  186DOPC  C21122897   0.352   1.893  11.735 -0.7699 -0.9431  0.0615
  186DOPC  H11R22898   0.454   1.937  11.741  0.4859 -2.8693 -3.6235
  186DOPC  H11S22899   0.363   1.814  11.658  0.8788  0.6921 -1.5041
  186DOPC  C21222900   0.319   1.820  11.855  0.0515 -0.0465  0.5409
  186DOPC  H12R22901   0.383   1.731  11.871 -1.2942 -0.9242  1.2466
  186DOPC  H12S22902   0.214   1.783  11.853  0.1902 -0.4574  0.8462
  186DOPC  C21322903   0.347   1.909  11.981  0.2412  0.3427 -0.0042
  186DOPC  H13R22904   0.259   1.977  11.982 -0.0629  0.0625 -2.5563
  186DOPC  H13S22905   0.436   1.973  11.962 -0.5175  1.3792 -0.1610
  186DOPC  C21422906   0.357   1.826  12.109  0.3553  0.1143  0.3582
  186DOPC  H14R22907   0.436   1.750  12.087 -0.2175 -0.3022 -0.2848
  186DOPC  H14S22908   0.269   1.762  12.129  1.0366 -1.2677 -0.8638
  186DOPC  C21522909   0.371   1.911  12.236  0.1497 -0.3658  0.1769
  186DOPC  H15R22910   0.278   1.971  12.234  0.0675 -0.3147  2.5916
  186DOPC  H15S22911   0.462   1.974  12.226  1.5159 -2.2711  0.0410
  186DOPC  C21622912   0.364   1.823  12.362 -0.1823 -0.0215 -0.3478
  186DOPC  H16R22913   0.449   1.754  12.377  0.9373  1.5969  1.0696
  186DOPC  H16S22914   0.265   1.772  12.358 -0.3333  0.2198  0.2256
  186DOPC  C21722915   0.362   1.917  12.486 -0.5011 -0.0269  0.2988
  186DOPC  H17R22916   0.307   2.009  12.454  1.6082  1.1527 -0.1553
  186DOPC  H17S22917   0.465   1.949  12.513 -0.0265 -1.7804  0.6647
  186DOPC  C21822918   0.283   1.861  12.606  0.0391  0.7195  0.5784
  186DOPC  H18R22919   0.335   1.772  12.648 -0.2930  1.1214  1.9066
  186DOPC  H18S22920   0.181   1.828  12.576  1.0438 -1.4226 -0.6965
  186DOPC  H18T22921   0.272   1.936  12.687 -1.7952  0.1737  0.8903
  186DOPC   C3322922   1.040   2.638  11.077 -0.8480 -0.4634  0.3096
  186DOPC   H3X22923   0.935   2.658  11.108 -0.8243  1.8877 -0.8959
  186DOPC   H3Y22924   1.068   2.715  11.002  2.9251 -0.7178  1.2415
  186DOPC   C3422925   1.114   2.651  11.211 -0.2987 -0.7496 -0.4787
  186DOPC   H4X22926   1.220   2.648  11.177  0.1807  0.1376  0.8239
  186DOPC   H4Y22927   1.090   2.566  11.277 -0.8292 -1.1108 -1.1271
  186DOPC   C3522928   1.061   2.779  11.288  0.1502 -0.5813 -0.2400
  186DOPC   H5X22929   0.955   2.770  11.317  0.4646  0.2606  1.2767
  186DOPC   H5Y22930   1.058   2.861  11.213  3.7216 -1.1987 -1.2574
  186DOPC   C3622931   1.146   2.834  11.408 -0.4833  0.3534 -0.7195
  186DOPC   H6X22932   1.240   2.862  11.356 -1.5940  0.8909 -2.5460
  186DOPC   H6Y22933   1.107   2.928  11.454  2.3173  0.7299  1.1330
  186DOPC   C3722934   1.164   2.726  11.514  0.4090  0.1233 -0.0293
  186DOPC   H7X22935   1.094   2.644  11.490 -0.3923  1.8658 -4.8407
  186DOPC   H7Y22936   1.260   2.673  11.494  2.0397  2.5520  0.7676
  186DOPC   C3822937   1.149   2.777  11.663  0.1641  0.2584 -0.1448
  186DOPC   H8X22938   1.158   2.682  11.722  1.1831  0.3372 -0.1493
  186DOPC   H8Y22939   1.044   2.811  11.666 -0.6006 -1.9946  1.0613
  186DOPC   C3922940   1.248   2.889  11.688  0.4481 -0.2504  0.3659
  186DOPC   H9X22941   1.297   2.949  11.609  0.4362  1.3886  1.5446
  186DOPC  C31022942   1.295   2.908  11.815  0.0644 -0.5328 -0.0106
  186DOPC  H10X22943   1.379   2.976  11.835 -0.6880 -0.4001  3.1510
  186DOPC  C31122944   1.251   2.823  11.932 -0.0416 -0.6321  0.5792
  186DOPC  H11X22945   1.316   2.733  11.937  0.5459 -0.2734 -0.3458
  186DOPC  H11Y22946   1.152   2.776  11.914  0.1167 -0.1833 -1.7276
  186DOPC  C31222947   1.260   2.910  12.058 -0.1995  0.5977  0.5880
  186DOPC  H12X22948   1.188   2.875  12.135  1.4102  0.6105  2.1636
  186DOPC  H12Y22949   1.238   3.019  12.050  0.5237  1.0358  3.5424
  186DOPC  C31322950   1.406   2.912  12.110 -0.2339 -0.6796 -0.6641
  186DOPC  H13X22951   1.466   2.818  12.116  1.5880  0.5209  2.0495
  186DOPC  H13Y22952   1.469   2.982  12.052 -1.5960  0.4889 -0.7672
  186DOPC  C31422953   1.402   2.954  12.264 -0.1119 -0.9731 -0.4957
  186DOPC  H14X22954   1.361   3.056  12.273  0.7103 -0.7245  0.7298
  186DOPC  H14Y22955   1.337   2.880  12.316 -1.3887  0.4093 -0.0566
  186DOPC  C31522956   1.539   2.974  12.323  0.2409  0.2803  0.8338
  186DOPC  H15X22957   1.574   3.071  12.281  2.5121 -0.5424  0.6955
  186DOPC  H15Y22958   1.610   2.898  12.284 -0.2554 -0.2758  0.9876
  186DOPC  C31622959   1.538   2.971  12.478  0.0040  0.1200  0.7154
  186DOPC  H16X22960   1.448   3.029  12.506  0.1299 -0.7123  3.0356
  186DOPC  H16Y22961   1.522   2.873  12.529  1.8211  0.3021  1.7228
  186DOPC  C31722962   1.659   3.035  12.552  0.3980 -0.1735  1.1025
  186DOPC  H17X22963   1.640   3.144  12.542  0.3186 -0.2576  0.2989
  186DOPC  H17Y22964   1.653   3.012  12.661 -0.2908 -1.3671  0.8366
  186DOPC  C31822965   1.792   2.991  12.499 -0.6238 -0.0828  0.3967
  186DOPC  H18X22966   1.822   2.890  12.533  0.9364  0.0257 -0.5775
  186DOPC  H18Y22967   1.789   2.985  12.389 -2.0809  0.1646  0.3954
  186DOPC  H18Z22968   1.878   3.055  12.530 -1.5196  1.1257  0.4898
  187DOPC     N22969   0.571   1.407   9.902 -0.8306  0.2107  0.0236
  187DOPC   C1222970   0.477   1.474   9.812  0.1877 -0.4050  0.3484
  187DOPC  H12A22971   0.515   1.489   9.712  1.6509  1.1227  1.0801
  187DOPC  H12B22972   0.454   1.568   9.859 -2.2000 -0.8373  0.1446
  187DOPC   C1322973   0.610   1.274   9.837  0.0008 -0.0191  0.4613
  187DOPC  H13A22974   0.693   1.225   9.885  1.2764 -0.1762 -1.7655
  187DOPC  H13B22975   0.525   1.210   9.817 -2.8082  3.5919 -0.3859
  187DOPC  H13C22976   0.650   1.300   9.740  0.5990 -2.7844 -0.1057
  187DOPC   C1422977   0.506   1.378  10.035  0.3372 -0.1859  0.3288
  187DOPC  H14A22978   0.569   1.306  10.085 -0.0183 -1.0287 -0.4113
  187DOPC  H14B22979   0.511   1.465  10.100  2.1960  1.4153 -1.7874
  187DOPC  H14C22980   0.413   1.325  10.022 -0.0514 -0.1577  2.5632
  187DOPC   C1522981   0.696   1.485   9.923 -0.4046  0.1451  0.5076
  187DOPC  H15A22982   0.775   1.422   9.963  1.7238  2.0428 -0.4801
  187DOPC  H15B22983   0.685   1.558  10.002  0.0012  0.3237  0.3992
  187DOPC  H15C22984   0.739   1.528   9.834 -0.2857 -1.0906 -0.0591
  187DOPC   C1122985   0.336   1.411   9.789 -0.0083  0.0509 -0.0457
  187DOPC  H11A22986   0.280   1.462   9.707 -1.4639  2.0966  2.1123
  187DOPC  H11B22987   0.347   1.307   9.749  0.2183  0.2506 -0.5211
  187DOPC     P22988   0.112   1.452   9.919  0.0741 -0.1213 -0.4139
  187DOPC   O1322989   0.079   1.530   9.798  0.5955 -0.3771 -0.0293
  187DOPC   O1422990   0.081   1.514  10.046 -0.4099  0.2427 -0.5275
  187DOPC   O1222991   0.260   1.410   9.912  0.3680  0.5446 -0.8536
  187DOPC   O1122992   0.028   1.326   9.925 -0.0489 -0.8672  0.2483
  187DOPC    C122993   0.051   1.187   9.893 -0.5819 -0.7718  0.4668
  187DOPC    HA22994   0.161   1.174   9.895 -0.3256  0.3733 -2.0022
  187DOPC    HB22995   0.006   1.184   9.791 -1.0386  0.2637  0.6181
  187DOPC    C222996  -0.011   1.099  10.000  0.6742  0.7323 -0.4108
  187DOPC    HS22997  -0.121   1.109   9.985  0.7947  1.7559 -0.6833
  187DOPC   O2122998   0.036   1.143  10.127  0.3672 -0.0174  0.0307
  187DOPC   C2122999  -0.063   1.186  10.210 -1.5909  0.3283  0.2151
  187DOPC   O2223000  -0.180   1.199  10.185  0.5363 -0.2643 -0.4556
  187DOPC   C2223001  -0.003   1.205  10.352 -0.5331  0.4639 -0.0816
  187DOPC   H2R23002   0.081   1.277  10.340 -0.3783  0.4563  0.9205
  187DOPC   H2S23003   0.047   1.110  10.380  2.5171  2.3440  1.2778
  187DOPC    C323004   0.024   0.948   9.990 -0.2007  0.4915  0.2498
  187DOPC    HX23005   0.135   0.938   9.986 -0.1744  1.2526 -2.6326
  187DOPC    HY23006  -0.018   0.911   9.894  0.4725  0.4883 -0.0458
  187DOPC   O3123007  -0.023   0.866  10.091  0.0953  0.9822 -0.3466
  187DOPC   C3123008  -0.092   0.752  10.062  0.0348 -0.2761  0.2778
  187DOPC   O3223009  -0.121   0.706   9.954 -0.4791 -0.8655 -0.2808
  187DOPC   C3223010  -0.129   0.689  10.189 -0.4934 -0.3444  0.4918
  187DOPC   H2X23011  -0.047   0.707  10.261 -1.9224  2.4038  1.6153
  187DOPC   H2Y23012  -0.219   0.741  10.229 -1.8089  0.2879 -2.9567
  187DOPC   C2323013  -0.113   1.258  10.452  0.2840  0.2800  0.6249
  187DOPC   H3R23014  -0.199   1.188  10.457 -2.0013  2.8594  0.0461
  187DOPC   H3S23015  -0.161   1.348  10.408  1.1873  0.2465 -0.4651
  187DOPC   C2423016  -0.042   1.279  10.582 -0.6888 -0.4534  0.0752
  187DOPC   H4R23017   0.011   1.376  10.575 -1.5469  0.1046  1.0358
  187DOPC   H4S23018   0.045   1.210  10.583 -1.9426 -2.0805  0.0874
  187DOPC   C2523019  -0.122   1.254  10.710 -0.2161  0.1588 -0.6102
  187DOPC   H5R23020  -0.143   1.145  10.712  0.7271 -0.0281  1.3236
  187DOPC   H5S23021  -0.217   1.311  10.707 -1.4142 -1.7667 -2.4473
  187DOPC   C2623022  -0.038   1.275  10.832  0.8047 -0.0656  0.2553
  187DOPC   H6R23023   0.066   1.239  10.815  1.2539  1.5084 -0.5658
  187DOPC   H6S23024  -0.084   1.215  10.913 -2.5983 -0.1151 -1.5085
  187DOPC   C2723025  -0.050   1.424  10.877 -0.0944 -0.0421  0.4165
  187DOPC   H7R23026  -0.137   1.430  10.946  0.5870  1.8267  1.1651
  187DOPC   H7S23027  -0.064   1.494  10.792 -0.7804  1.7520  1.9386
  187DOPC   C2823028   0.072   1.466  10.952  1.0562 -0.5545  0.0044
  187DOPC   H8R23029   0.062   1.570  10.990  2.9212  0.6681 -2.5416
  187DOPC   H8S23030   0.133   1.489  10.862 -0.1142  0.7369 -0.4998
  187DOPC   C2923031   0.130   1.368  11.057  0.1451 -0.0759  0.4911
  187DOPC   H9R23032   0.141   1.263  11.026 -0.0556 -1.1069  3.5564
  187DOPC  C21023033   0.150   1.392  11.183  0.0149 -0.2602 -0.2045
  187DOPC  H10R23034   0.167   1.311  11.256 -1.3412 -0.6518 -0.2872
  187DOPC  C21123035   0.121   1.526  11.248  0.3433  0.2915 -0.3415
  187DOPC  H11R23036   0.012   1.528  11.272  0.7194  1.9185  1.4846
  187DOPC  H11S23037   0.143   1.616  11.187  4.1306  1.5267  2.4305
  187DOPC  C21223038   0.205   1.543  11.378 -0.9632 -0.2272  0.7445
  187DOPC  H12R23039   0.202   1.649  11.409  1.2461  0.1653 -0.1858
  187DOPC  H12S23040   0.308   1.512  11.347 -0.9585  0.3350  0.1768
  187DOPC  C21323041   0.159   1.455  11.497 -0.3088  0.4114 -0.8602
  187DOPC  H13R23042   0.182   1.352  11.463 -1.3365  0.4576 -1.7728
  187DOPC  H13S23043   0.049   1.458  11.483 -0.6087  0.0763  1.1649
  187DOPC  C21423044   0.205   1.509  11.635 -0.2477  0.2392  0.1620
  187DOPC  H14R23045   0.203   1.619  11.651  3.3449  0.3229  1.0545
  187DOPC  H14S23046   0.313   1.485  11.648  0.4092  2.3552 -0.9788
  187DOPC  C21523047   0.132   1.442  11.746 -0.4567  0.2585 -0.8076
  187DOPC  H15R23048   0.129   1.332  11.733  1.6548  0.2077 -1.3133
  187DOPC  H15S23049   0.028   1.479  11.738 -1.2029 -1.8531 -1.5436
  187DOPC  C21623050   0.186   1.464  11.888  0.4757  0.3557  0.4526
  187DOPC  H16R23051   0.110   1.420  11.957 -0.2429  0.5350 -0.2128
  187DOPC  H16S23052   0.191   1.570  11.920  1.9781  0.5744 -0.4174
  187DOPC  C21723053   0.324   1.402  11.909  0.2944  0.2325 -0.2722
  187DOPC  H17R23054   0.395   1.433  11.830  2.7121 -1.0805  1.2615
  187DOPC  H17S23055   0.310   1.295  11.881 -0.4235  0.1294  0.4406
  187DOPC  C21823056   0.362   1.420  12.061  0.3957 -0.3617  0.3731
  187DOPC  H18R23057   0.331   1.518  12.101 -1.3735 -1.3001  1.4318
  187DOPC  H18S23058   0.468   1.401  12.090  0.6380  2.1503  1.3624
  187DOPC  H18T23059   0.300   1.345  12.115 -1.5836  0.6768 -0.3451
  187DOPC   C3323060  -0.166   0.545  10.172 -0.1533 -0.3378  0.2828
  187DOPC   H3X23061  -0.089   0.491  10.113 -1.1289 -1.9421  0.4201
  187DOPC   H3Y23062  -0.265   0.533  10.123 -0.1981  0.5482  0.1459
  187DOPC   C3423063  -0.168   0.475  10.315 -0.2556  0.2594 -0.1439
  187DOPC   H4X23064  -0.217   0.377  10.298 -0.1713  0.3757 -1.1388
  187DOPC   H4Y23065  -0.230   0.537  10.383 -0.3462 -1.3460  1.3115
  187DOPC   C3523066  -0.033   0.452  10.384  0.6739  0.3943  0.2031
  187DOPC   H5X23067   0.030   0.542  10.373  2.2200 -0.6512  0.1674
  187DOPC   H5Y23068   0.035   0.369  10.352  1.8693  0.8193  1.5367
  187DOPC   C3623069  -0.045   0.421  10.534 -0.8858 -0.6710  0.3511
  187DOPC   H6X23070  -0.121   0.489  10.578 -1.9063 -2.1246  0.9228
  187DOPC   H6Y23071  -0.093   0.322  10.547 -1.6894 -0.3693 -0.2652
  187DOPC   C3723072   0.083   0.445  10.610  0.0289 -0.2325  0.1497
  187DOPC   H7X23073   0.148   0.362  10.576  0.8849 -0.5434  2.3418
  187DOPC   H7Y23074   0.128   0.540  10.574 -0.6037  0.0441  0.0846
  187DOPC   C3823075   0.077   0.434  10.758  0.1062  0.2326 -0.2079
  187DOPC   H8X23076   0.171   0.432  10.817  0.0921 -0.6688 -0.1976
  187DOPC   H8Y23077   0.028   0.335  10.774  0.5149  0.1445  0.5383
  187DOPC   C3923078  -0.001   0.544  10.823  0.7847 -0.3966 -0.2831
  187DOPC   H9X23079   0.057   0.637  10.821 -0.4084  0.4135  0.7401
  187DOPC  C31023080  -0.128   0.543  10.878 -0.1916 -0.1475 -0.2383
  187DOPC  H10X23081  -0.162   0.643  10.905 -0.1404 -0.5863  1.5491
  187DOPC  C31123082  -0.226   0.425  10.878 -0.0608  0.9996 -0.3811
  187DOPC  H11X23083  -0.211   0.365  10.786  0.6105  0.1350  0.2795
  187DOPC  H11Y23084  -0.329   0.466  10.867  0.2577  1.4450 -2.0999
  187DOPC  C31223085  -0.210   0.334  11.003  0.7778 -0.7183 -0.0718
  187DOPC  H12X23086  -0.120   0.268  11.007  1.0901 -0.2701  0.5793
  187DOPC  H12Y23087  -0.290   0.259  10.992  1.1534 -0.8925 -1.9350
  187DOPC  C31323088  -0.237   0.425  11.134  0.7587  0.7145 -0.0230
  187DOPC  H13X23089  -0.311   0.505  11.113 -0.2926  0.0105  0.8865
  187DOPC  H13Y23090  -0.300   0.362  11.200  2.7512 -1.3775 -0.0044
  187DOPC  C31423091  -0.113   0.477  11.208 -0.1172  0.6082  0.3190
  187DOPC  H14X23092  -0.039   0.394  11.220 -0.2994  0.3512 -0.3112
  187DOPC  H14Y23093  -0.071   0.559  11.147 -0.0670  0.5184  0.2331
  187DOPC  C31523094  -0.134   0.530  11.349  1.2613 -0.6456  0.1249
  187DOPC  H15X23095  -0.208   0.462  11.395 -0.0820  0.9122  0.3806
  187DOPC  H15Y23096  -0.183   0.630  11.343  2.1847 -0.2438 -1.5899
  187DOPC  C31623097  -0.011   0.535  11.438 -0.3574 -0.7169 -0.4253
  187DOPC  H16X23098   0.037   0.435  11.445  0.5949 -0.1638  3.9582
  187DOPC  H16Y23099   0.060   0.606  11.390 -2.1625  1.7524  0.3783
  187DOPC  C31723100  -0.041   0.581  11.581  0.3022  0.7848 -0.0276
  187DOPC  H17X23101  -0.102   0.674  11.576  2.9096  2.7477  1.9279
  187DOPC  H17Y23102  -0.108   0.507  11.629 -0.3152  0.7538 -0.9205
  187DOPC  C31823103   0.087   0.601  11.659  0.4639  0.3217  0.6100
  187DOPC  H18X23104   0.152   0.680  11.615 -0.1653  0.3442 -0.3045
  187DOPC  H18Y23105   0.063   0.609  11.767  1.5755  0.1523  0.8803
  187DOPC  H18Z23106   0.152   0.512  11.653  0.1853  0.2052 -0.9879
  188DOPC     N23107   3.444   1.897   9.116  0.5357  0.3436  0.5907
  188DOPC   C1223108   3.445   1.757   9.177  0.1796  0.6136  0.1634
  188DOPC  H12A23109   3.530   1.746   9.242 -0.4551  0.6009  1.0082
  188DOPC  H12B23110   3.449   1.688   9.094  2.0711  1.2950 -0.3540
  188DOPC   C1323111   3.343   1.908   9.005 -0.5603  0.6327  0.4428
  188DOPC  H13A23112   3.382   1.863   8.915  1.4310  0.7461  1.1924
  188DOPC  H13B23113   3.255   1.855   9.041  0.7976 -0.3996  2.4469
  188DOPC  H13C23114   3.321   2.008   8.973 -0.7702 -0.2142 -2.2515
  188DOPC   C1423115   3.582   1.916   9.057  0.2678 -0.4195 -0.0029
  188DOPC  H14A23116   3.657   1.890   9.130  0.3027 -0.7081 -0.1402
  188DOPC  H14B23117   3.594   1.859   8.966 -0.8658 -2.4841  1.0702
  188DOPC  H14C23118   3.602   2.018   9.029  0.4164 -0.8676 -1.6152
  188DOPC   C1523119   3.420   2.007   9.212  0.5021  0.0619 -0.1693
  188DOPC  H15A23120   3.427   2.098   9.155 -0.4380  0.3378  0.1232
  188DOPC  H15B23121   3.493   2.013   9.291 -0.5899  2.1525  0.7807
  188DOPC  H15C23122   3.318   2.012   9.248 -0.7201  1.1777 -3.4004
  188DOPC   C1123123   3.329   1.738   9.272 -0.5257  0.2842  0.1460
  188DOPC  H11A23124   3.332   1.650   9.340  0.2187  1.1327  1.2429
  188DOPC  H11B23125   3.328   1.813   9.354  0.5247 -0.0315  0.4544
  188DOPC     P23126   3.143   1.591   9.169  0.1462  0.0725  0.0518
  188DOPC   O1323127   3.240   1.496   9.103  0.2269 -0.0003 -0.7846
  188DOPC   O1423128   3.022   1.617   9.098 -0.1319 -0.1252  0.2981
  188DOPC   O1223129   3.205   1.726   9.202 -0.5725 -0.6999  0.0775
  188DOPC   O1123130   3.098   1.522   9.301  0.0727 -0.3396 -0.5237
  188DOPC    C123131   3.031   1.587   9.415 -0.4046  0.8097  0.1913
  188DOPC    HA23132   2.922   1.580   9.394  0.0161 -0.0288 -2.0969
  188DOPC    HB23133   3.053   1.695   9.414  1.4619  0.4775  0.9365
  188DOPC    C223134   3.049   1.518   9.559 -0.3238 -0.2909 -0.4095
  188DOPC    HS23135   2.974   1.568   9.624  0.1053  0.6301 -0.6031
  188DOPC   O2123136   3.185   1.552   9.594  0.7250  0.2566  0.4659
  188DOPC   C2123137   3.212   1.578   9.717 -0.0989 -0.3440  0.4789
  188DOPC   O2223138   3.131   1.585   9.807  0.2789  0.2438  0.5231
  188DOPC   C2223139   3.359   1.615   9.729 -0.0597  0.1424 -0.6618
  188DOPC   H2R23140   3.388   1.685   9.648  1.2626 -0.3544 -0.6437
  188DOPC   H2S23141   3.415   1.520   9.719  0.2614  0.1717  0.6731
  188DOPC    C323142   3.029   1.371   9.566 -0.1777  0.1285 -0.4702
  188DOPC    HX23143   3.091   1.311   9.496 -1.1071  1.5327 -2.5748
  188DOPC    HY23144   2.927   1.356   9.524 -0.5697 -1.0481  0.7975
  188DOPC   O3123145   3.027   1.322   9.695  0.1371 -1.1336  0.0739
  188DOPC   C3123146   3.137   1.275   9.755 -0.1426 -0.3280 -1.2306
  188DOPC   O3223147   3.242   1.263   9.701 -0.5825 -0.1943  0.1829
  188DOPC   C3223148   3.099   1.246   9.895  0.4377  0.2249 -0.6050
  188DOPC   H2X23149   3.094   1.340   9.954  0.7116  1.3661 -2.3273
  188DOPC   H2Y23150   3.000   1.195   9.893 -0.8510  2.5577  0.1562
  188DOPC   C2323151   3.398   1.682   9.870  0.1505  0.1603  0.9215
  188DOPC   H3R23152   3.326   1.767   9.883 -2.5610 -1.3398 -2.5063
  188DOPC   H3S23153   3.501   1.724   9.861 -0.0473  0.2598 -3.3112
  188DOPC   C2423154   3.400   1.580   9.980 -0.4422 -0.0192 -0.7767
  188DOPC   H4R23155   3.488   1.521   9.946  0.3077  0.3988  0.3750
  188DOPC   H4S23156   3.307   1.521   9.969 -0.4220 -0.2676  0.3021
  188DOPC   C2523157   3.425   1.625  10.129  0.2467 -0.5061 -0.3177
  188DOPC   H5R23158   3.340   1.691  10.157 -0.4989 -0.9443 -1.5298
  188DOPC   H5S23159   3.526   1.671  10.123  0.6968 -1.4276 -0.0363
  188DOPC   C2623160   3.434   1.507  10.227  0.7465 -0.4602 -0.5385
  188DOPC   H6R23161   3.530   1.450  10.222  1.1212  0.0147  1.0078
  188DOPC   H6S23162   3.351   1.435  10.207  0.3639 -0.1335 -0.1191
  188DOPC   C2723163   3.422   1.551  10.379  0.9285  0.0561 -0.4328
  188DOPC   H7R23164   3.335   1.620  10.386  1.8346  1.0486  1.9242
  188DOPC   H7S23165   3.500   1.628  10.392 -1.2002  2.1554  0.6763
  188DOPC   C2823166   3.423   1.437  10.483  0.8161 -0.2903 -0.0769
  188DOPC   H8R23167   3.530   1.410  10.493  0.6953 -0.0619  2.4530
  188DOPC   H8S23168   3.367   1.356  10.431 -2.3643  0.8131  1.3580
  188DOPC   C2923169   3.365   1.475  10.615  0.0340 -0.2589 -0.8594
  188DOPC   H9R23170   3.290   1.555  10.613  1.8290  1.6360  1.2743
  188DOPC  C21023171   3.403   1.420  10.731  0.7419  0.1815  0.1305
  188DOPC  H10R23172   3.340   1.447  10.818 -1.1572 -1.2205 -0.7302
  188DOPC  C21123173   3.508   1.315  10.749 -0.0316  0.4609  0.0806
  188DOPC  H11R23174   3.616   1.342  10.748  0.1309 -0.0021 -2.3809
  188DOPC  H11S23175   3.503   1.249  10.659  0.2119 -0.8998  1.0382
  188DOPC  C21223176   3.498   1.239  10.882 -0.0783  0.0501 -0.1427
  188DOPC  H12R23177   3.544   1.141  10.861 -1.5097 -0.3933 -1.4582
  188DOPC  H12S23178   3.391   1.221  10.905 -0.6093  0.3191 -2.1540
  188DOPC  C21323179   3.562   1.317  11.001 -0.2518  0.1399  0.8665
  188DOPC  H13R23180   3.519   1.419  10.992 -1.0958 -0.3938 -2.0704
  188DOPC  H13S23181   3.672   1.329  10.985 -0.0525 -0.2717  1.8234
  188DOPC  C21423182   3.532   1.257  11.136  0.6623 -0.1489 -0.1179
  188DOPC  H14R23183   3.532   1.146  11.131  0.4994 -0.1229 -0.9315
  188DOPC  H14S23184   3.427   1.278  11.165  0.7156 -1.4674  1.1159
  188DOPC  C21523185   3.610   1.313  11.255  0.0724 -0.1745 -0.6666
  188DOPC  H15R23186   3.628   1.422  11.241  0.4681 -0.3937 -1.9552
  188DOPC  H15S23187   3.716   1.277  11.257  0.8363  1.9314  0.7182
  188DOPC  C21623188   3.546   1.278  11.399  0.0536 -0.2070 -0.0259
  188DOPC  H16R23189   3.539   1.167  11.401 -1.0282 -0.1609  2.3926
  188DOPC  H16S23190   3.448   1.329  11.410  0.1993 -0.1153  0.9792
  188DOPC  C21723191   3.637   1.315  11.515  0.1732 -0.1747 -0.7859
  188DOPC  H17R23192   3.660   1.424  11.511 -1.4396  0.2374  0.1174
  188DOPC  H17S23193   3.737   1.271  11.497 -0.3239 -0.7333 -2.4242
  188DOPC  C21823194   3.595   1.287  11.663 -0.0435  0.4089  0.7056
  188DOPC  H18R23195   3.510   1.353  11.694 -0.6585  0.0033 -0.0631
  188DOPC  H18S23196   3.685   1.304  11.724  0.9558  0.8574 -0.8300
  188DOPC  H18T23197   3.569   1.180  11.677 -1.2901  0.6470  0.3897
  188DOPC   C3323198   3.196   1.143   9.964 -0.6278 -0.6868  0.6059
  188DOPC   H3X23199   3.302   1.164   9.940 -1.0427 -0.3679 -1.0978
  188DOPC   H3Y23200   3.171   1.044   9.922 -2.9609  0.5649 -1.1945
  188DOPC   C3423201   3.181   1.141  10.116  0.1155  0.4873 -0.2690
  188DOPC   H4X23202   3.084   1.098  10.150  0.6229 -0.6974 -0.2693
  188DOPC   H4Y23203   3.189   1.240  10.164 -0.7824  0.0097  0.9278
  188DOPC   C3523204   3.282   1.054  10.187  0.4263  0.3280  0.2345
  188DOPC   H5X23205   3.384   1.084  10.153  0.6088 -1.0127 -0.4651
  188DOPC   H5Y23206   3.273   0.954  10.140  1.2179 -0.5441  1.8316
  188DOPC   C3623207   3.253   1.061  10.339  0.1377  0.3851  0.2405
  188DOPC   H6X23208   3.248   1.165  10.375  0.0794  0.6476 -0.5000
  188DOPC   H6Y23209   3.159   1.004  10.360 -0.0356  0.6585  0.2056
  188DOPC   C3723210   3.359   0.992  10.419  0.2954  0.3791 -0.0704
  188DOPC   H7X23211   3.373   0.887  10.386 -0.3254  0.0255  0.7381
  188DOPC   H7Y23212   3.454   1.047  10.404 -0.5626  1.4272 -2.0795
  188DOPC   C3823213   3.330   0.996  10.572 -0.0540  0.4559  0.0604
  188DOPC   H8X23214   3.305   1.101  10.598  2.2677  0.7422  1.5023
  188DOPC   H8Y23215   3.426   0.982  10.627 -0.7404 -0.0650  1.1562
  188DOPC   C3923216   3.218   0.910  10.603  0.1749  0.1611  0.1564
  188DOPC   H9X23217   3.166   0.865  10.517  0.6445 -1.9391  0.8985
  188DOPC  C31023218   3.194   0.859  10.724 -0.0323 -0.7063  0.7352
  188DOPC  H10X23219   3.105   0.798  10.742 -1.4733  0.5795 -1.5516
  188DOPC  C31123220   3.264   0.893  10.853 -0.6873  0.2381  0.3388
  188DOPC  H11X23221   3.338   0.975  10.842 -1.3691  0.8330  0.1912
  188DOPC  H11Y23222   3.313   0.808  10.906  0.5127  0.5046 -0.3020
  188DOPC  C31223223   3.158   0.944  10.953 -0.0045 -0.8203 -0.0503
  188DOPC  H12X23224   3.062   0.888  10.954 -0.7073  0.2794 -1.7218
  188DOPC  H12Y23225   3.112   1.035  10.910 -0.1845 -1.6406 -1.6968
  188DOPC  C31323226   3.213   0.956  11.093  0.2143 -0.6063  0.0240
  188DOPC  H13X23227   3.244   0.856  11.129 -1.3826 -0.8577  0.7933
  188DOPC  H13Y23228   3.299   1.026  11.087 -0.2941 -0.0650 -2.2043
  188DOPC  C31423229   3.114   1.022  11.191  0.0743 -0.1918  0.3080
  188DOPC  H14X23230   3.077   1.123  11.163 -1.1232 -0.4142  1.0173
  188DOPC  H14Y23231   3.023   0.959  11.193  0.5593 -0.9035  0.8697
  188DOPC  C31523232   3.170   1.043  11.330 -0.0215  0.3600 -0.4732
  188DOPC  H15X23233   3.104   1.121  11.374  1.0834 -0.3271  2.7142
  188DOPC  H15Y23234   3.278   1.071  11.332 -0.1977  1.0445 -0.3052
  188DOPC  C31623235   3.141   0.916  11.422 -0.1688  0.4403 -0.1141
  188DOPC  H16X23236   3.033   0.895  11.408 -0.8211  1.9683  2.0744
  188DOPC  H16Y23237   3.198   0.824  11.397  0.6885  0.8438  0.3027
  188DOPC  C31723238   3.160   0.956  11.569  0.3866  0.2202 -0.0429
  188DOPC  H17X23239   3.098   1.046  11.591  0.8034  0.9324 -1.6149
  188DOPC  H17Y23240   3.117   0.876  11.632 -1.3887  1.3819  0.3043
  188DOPC  C31823241   3.307   0.978  11.612  0.5950 -0.2977 -0.3728
  188DOPC  H18X23242   3.372   0.907  11.557  0.2459 -0.7814 -0.1748
  188DOPC  H18Y23243   3.349   1.073  11.573  0.2524 -0.6835 -1.7352
  188DOPC  H18Z23244   3.323   0.970  11.722 -0.5481 -1.3954 -0.2600
  189DOPC     N23245   4.762   5.669   8.838 -0.1959  0.1542  0.0112
  189DOPC   C1223246   4.630   5.693   8.919  0.1828  0.9589  0.2389
  189DOPC  H12A23247   4.612   5.609   8.984  2.5221 -1.7547 -2.3277
  189DOPC  H12B23248   4.539   5.686   8.862  1.1435 -1.0386 -1.1788
  189DOPC   C1323249   4.881   5.673   8.926 -0.3933  0.3359 -0.8960
  189DOPC  H13A23250   4.864   5.753   8.996 -0.8206 -0.5683  0.0570
  189DOPC  H13B23251   4.879   5.578   8.977 -1.1022  1.3120  0.9887
  189DOPC  H13C23252   4.977   5.689   8.880  1.4096  2.6121  3.1479
  189DOPC   C1423253   4.765   5.776   8.733 -0.0323 -0.1367  0.2409
  189DOPC  H14A23254   4.670   5.787   8.683  0.2775  0.7696 -0.1669
  189DOPC  H14B23255   4.785   5.871   8.782 -0.4341 -0.2725  0.6782
  189DOPC  H14C23256   4.841   5.751   8.662 -1.2704 -2.3848 -0.3964
  189DOPC   C1523257   4.762   5.530   8.780  0.3390  0.1999 -0.3400
  189DOPC  H15A23258   4.856   5.514   8.730  1.0939 -0.2308  1.1325
  189DOPC  H15B23259   4.674   5.518   8.719 -0.9415  0.2148  1.4313
  189DOPC  H15C23260   4.763   5.457   8.861 -0.2979  0.0528 -0.4607
  189DOPC   C1123261   4.622   5.818   9.010  0.6108  0.4918 -0.1480
  189DOPC  H11A23262   4.646   5.908   8.948 -1.6139  0.9716 -0.3855
  189DOPC  H11B23263   4.516   5.842   9.029  0.7376  2.1245 -1.2863
  189DOPC     P23264   4.669   5.690   9.231  0.2539  0.2719 -0.5533
  189DOPC   O1323265   4.794   5.622   9.271  0.0635  0.0172 -0.5649
  189DOPC   O1423266   4.544   5.624   9.186  0.6040  0.3205 -0.1595
  189DOPC   O1223267   4.696   5.799   9.129 -0.4833  0.0910 -0.3682
  189DOPC   O1123268   4.621   5.784   9.352  0.1316  0.1973  0.4197
  189DOPC    C123269   4.619   5.924   9.355 -0.0343 -0.1594  0.2654
  189DOPC    HA23270   4.536   5.958   9.421 -0.7247  0.2033 -0.7659
  189DOPC    HB23271   4.593   5.969   9.257  0.8551  0.0233  0.1119
  189DOPC    C223272   4.737   5.989   9.435 -0.1500  0.0264  0.3859
  189DOPC    HS23273   4.822   5.959   9.371 -0.4084 -0.1931  0.1474
  189DOPC   O2123274   4.742   5.944   9.572 -0.6283  0.3157 -0.5235
  189DOPC   C2123275   4.867   5.901   9.611 -0.4026 -0.2574 -0.2388
  189DOPC   O2223276   4.965   5.911   9.541 -0.3855  0.1137  0.6153
  189DOPC   C2223277   4.857   5.846   9.756  0.4872  0.6636 -0.4734
  189DOPC   H2R23278   4.959   5.816   9.789  0.3814 -0.8353 -1.4245
  189DOPC   H2S23279   4.796   5.754   9.752 -0.2927  1.2135 -1.6884
  189DOPC    C323280   4.740   6.144   9.429  0.7841 -0.3821 -0.4496
  189DOPC    HX23281   4.705   6.181   9.330  4.3460  2.9552 -0.7122
  189DOPC    HY23282   4.841   6.190   9.428  0.4223  0.4314 -1.2000
  189DOPC   O3123283   4.643   6.186   9.524 -0.3383 -0.5018  0.6316
  189DOPC   C3123284   4.695   6.255   9.621 -0.3052  0.6475  0.1350
  189DOPC   O3223285   4.810   6.264   9.653 -0.1711 -0.5084 -0.1158
  189DOPC   C3223286   4.582   6.339   9.673 -0.6313 -0.6389 -0.1164
  189DOPC   H2X23287   4.544   6.398   9.586  0.5171 -0.6266 -0.6271
  189DOPC   H2Y23288   4.490   6.279   9.690 -2.3908  0.4606 -4.2980
  189DOPC   C2323289   4.795   5.934   9.870  0.3625 -0.1661 -0.0309
  189DOPC   H3R23290   4.694   5.966   9.839  0.6660 -0.9037 -1.8625
  189DOPC   H3S23291   4.863   6.022   9.875 -0.4029  0.4274  0.1366
  189DOPC   C2423292   4.785   5.863  10.006 -0.6516 -0.3090 -1.1064
  189DOPC   H4R23293   4.884   5.825  10.040  0.2388  1.4959 -1.5690
  189DOPC   H4S23294   4.708   5.783   9.999 -1.1361 -0.2135  1.7173
  189DOPC   C2523295   4.741   5.958  10.119  0.2335  0.1952  0.3458
  189DOPC   H5R23296   4.642   6.006  10.100  0.1924 -0.1870 -0.4249
  189DOPC   H5S23297   4.813   6.042  10.124 -0.2057  0.8245 -2.3451
  189DOPC   C2623298   4.732   5.892  10.254 -0.8258 -0.1957  0.4485
  189DOPC   H6R23299   4.827   5.838  10.276 -1.1262 -0.8257  0.2272
  189DOPC   H6S23300   4.655   5.812  10.261 -0.8780 -0.2150 -0.3202
  189DOPC   C2723301   4.697   5.983  10.371  0.4890 -0.1689  0.5763
  189DOPC   H7R23302   4.599   6.030  10.347  0.9805  0.9971  0.7692
  189DOPC   H7S23303   4.767   6.066  10.350  0.5191 -0.1511  0.7471
  189DOPC   C2823304   4.709   5.919  10.507  0.1260  1.2736  0.1338
  189DOPC   H8R23305   4.702   6.004  10.578 -1.2515  0.7534  0.6577
  189DOPC   H8S23306   4.813   5.883  10.494  0.1224  1.9605 -2.5149
  189DOPC   C2923307   4.605   5.808  10.534  0.3214  0.2819  0.0472
  189DOPC   H9R23308   4.570   5.758  10.442 -1.3056 -0.8129  1.2117
  189DOPC  C21023309   4.548   5.779  10.652  0.0344 -0.2057 -0.1264
  189DOPC  H10R23310   4.511   5.677  10.668 -1.4285  0.2125 -0.6310
  189DOPC  C21123311   4.580   5.854  10.777 -0.1618  0.7268 -0.4299
  189DOPC  H11R23312   4.526   5.951  10.781  0.2333  0.9843 -1.1318
  189DOPC  H11S23313   4.687   5.878  10.792  0.2089 -0.6425 -0.6979
  189DOPC  C21223314   4.538   5.764  10.896 -0.2170 -0.1916 -0.3377
  189DOPC  H12R23315   4.589   5.665  10.896  0.9994  0.4062  0.6531
  189DOPC  H12S23316   4.429   5.747  10.889 -0.2244 -0.7250  0.8889
  189DOPC  C21323317   4.573   5.824  11.031  0.4242 -0.0944  0.0407
  189DOPC  H13R23318   4.518   5.920  11.043 -0.8097 -0.6659 -0.7637
  189DOPC  H13S23319   4.681   5.847  11.027  0.5936 -1.0016 -1.2093
  189DOPC  C21423320   4.544   5.733  11.143  0.4444  0.7652  0.1886
  189DOPC  H14R23321   4.545   5.626  11.116 -3.5341 -0.1669  2.9167
  189DOPC  H14S23322   4.437   5.743  11.168  0.6680  0.1052  1.5202
  189DOPC  C21523323   4.619   5.764  11.274 -0.1088 -0.3807  0.1361
  189DOPC  H15R23324   4.729   5.758  11.260 -0.0914  1.4204 -0.6873
  189DOPC  H15S23325   4.588   5.702  11.361  1.6079 -0.8450  0.4527
  189DOPC  C21623326   4.601   5.914  11.323 -0.7495  0.5606  0.6356
  189DOPC  H16R23327   4.491   5.919  11.337 -0.9766  1.2646 -1.0955
  189DOPC  H16S23328   4.621   5.984  11.239 -0.4567 -0.5482 -0.2492
  189DOPC  C21723329   4.682   5.947  11.444  0.5268 -0.1303 -0.6528
  189DOPC  H17R23330   4.665   6.051  11.479 -1.6060 -0.9322  0.8607
  189DOPC  H17S23331   4.787   5.922  11.415 -0.0138 -2.7052 -0.5509
  189DOPC  C21823332   4.653   5.858  11.575  0.1357 -0.7044  0.4348
  189DOPC  H18R23333   4.547   5.829  11.584  0.1601 -1.3519 -1.0520
  189DOPC  H18S23334   4.693   5.907  11.667  2.3703 -1.0082 -0.3214
  189DOPC  H18T23335   4.711   5.764  11.562  1.5575  0.0074  1.4021
  189DOPC   C3323336   4.606   6.423   9.799  0.0807 -0.0309  0.6529
  189DOPC   H3X23337   4.518   6.487   9.819 -0.3533 -0.2247 -0.5692
  189DOPC   H3Y23338   4.694   6.489   9.781  0.7221 -1.2043 -0.6932
  189DOPC   C3423339   4.609   6.332   9.923  0.7353  0.2505  0.4710
  189DOPC   H4X23340   4.683   6.250   9.911 -0.5602 -0.6992 -1.5388
  189DOPC   H4Y23341   4.515   6.274   9.936 -1.2281  2.6702 -1.6860
  189DOPC   C3523342   4.648   6.403  10.050  0.5008  0.1494  0.2774
  189DOPC   H5X23343   4.575   6.482  10.077  1.9484  1.2025  1.2559
  189DOPC   H5Y23344   4.731   6.471  10.021 -0.5504  1.1049 -0.6113
  189DOPC   C3623345   4.671   6.319  10.171  0.4504 -0.2873 -0.1117
  189DOPC   H6X23346   4.582   6.256  10.191 -0.7497  1.0372 -1.1211
  189DOPC   H6Y23347   4.748   6.245  10.143 -0.4812 -1.2574 -0.1639
  189DOPC   C3723348   4.721   6.410  10.291 -0.1991  0.9161  0.5221
  189DOPC   H7X23349   4.814   6.460  10.259  1.0593 -0.1365  2.3749
  189DOPC   H7Y23350   4.643   6.485  10.315 -0.6190  1.7379 -2.9818
  189DOPC   C3823351   4.751   6.327  10.418 -0.3855 -0.1251 -0.5163
  189DOPC   H8X23352   4.840   6.262  10.405 -1.0608 -1.9656  2.7512
  189DOPC   H8Y23353   4.663   6.264  10.444  0.7271 -0.8693  1.7278
  189DOPC   C3923354   4.791   6.413  10.532 -0.0490  0.1832  0.2810
  189DOPC   H9X23355   4.833   6.513  10.515  0.7080  0.2614  2.3700
  189DOPC  C31023356   4.776   6.380  10.661 -0.7151  0.0244  0.3154
  189DOPC  H10X23357   4.801   6.459  10.734 -0.9008 -0.1153  0.5303
  189DOPC  C31123358   4.713   6.256  10.721 -0.6673 -0.5605 -0.4301
  189DOPC  H11X23359   4.789   6.175  10.732 -1.0219 -0.9919 -1.0784
  189DOPC  H11Y23360   4.633   6.214  10.656 -1.2074  0.2010 -0.2708
  189DOPC  C31223361   4.654   6.286  10.862 -0.6118 -0.4161 -0.1490
  189DOPC  H12X23362   4.585   6.205  10.893  0.1992 -1.3264 -0.6743
  189DOPC  H12Y23363   4.586   6.373  10.849 -0.6717 -0.4431 -0.0113
  189DOPC  C31323364   4.755   6.310  10.978 -0.2850  0.1001  0.4703
  189DOPC  H13X23365   4.817   6.219  10.985 -2.4707 -1.5628 -0.5519
  189DOPC  H13Y23366   4.829   6.392  10.963  1.1043 -0.3982  3.7782
  189DOPC  C31423367   4.693   6.336  11.119 -0.1928  0.5417  0.2517
  189DOPC  H14X23368   4.625   6.423  11.114  1.0727  1.5493  0.1066
  189DOPC  H14Y23369   4.620   6.254  11.136  0.4225 -0.0658  0.0446
  189DOPC  C31523370   4.797   6.344  11.228 -0.2466  0.0387  0.5998
  189DOPC  H15X23371   4.862   6.432  11.215  1.2431 -1.1885 -0.6259
  189DOPC  H15Y23372   4.865   6.257  11.217 -2.3478 -1.5438 -0.7384
  189DOPC  C31623373   4.733   6.335  11.372 -0.1329  0.8217  0.3159
  189DOPC  H16X23374   4.654   6.414  11.366 -1.2110 -0.2953 -1.1595
  189DOPC  H16Y23375   4.678   6.238  11.376 -0.4938  1.0632  2.0048
  189DOPC  C31723376   4.822   6.377  11.485 -0.6434  0.0251  0.2269
  189DOPC  H17X23377   4.909   6.309  11.471 -0.3760  0.4329 -0.1254
  189DOPC  H17Y23378   4.850   6.484  11.470 -0.6611  0.2969  1.9685
  189DOPC  C31823379   4.748   6.358  11.616  1.0214  0.1266  0.3512
  189DOPC  H18X23380   4.637   6.354  11.602  0.9092 -2.6374  1.3833
  189DOPC  H18Y23381   4.763   6.257  11.659  0.1108 -0.7447 -1.2539
  189DOPC  H18Z23382   4.766   6.437  11.692 -0.3043  2.1921 -1.3501
  190DOPC     N23383   2.762   0.255   9.331  0.0464 -0.0264 -0.0820
  190DOPC   C1223384   2.876   0.259   9.433 -0.0265 -0.4676  0.4615
  190DOPC  H12A23385   2.912   0.159   9.449 -0.3212 -0.5209  0.7998
  190DOPC  H12B23386   2.844   0.323   9.514 -0.3898  1.5283 -1.1772
  190DOPC   C1323387   2.731   0.383   9.263 -0.3204  0.2410  0.6633
  190DOPC  H13A23388   2.708   0.448   9.345 -1.8079 -1.4507  1.6408
  190DOPC  H13B23389   2.812   0.435   9.214 -0.9311  0.7982  0.2297
  190DOPC  H13C23390   2.652   0.378   9.190  0.4081  0.1093 -0.1324
  190DOPC   C1423391   2.640   0.212   9.404 -0.5342 -0.6628 -0.0017
  190DOPC  H14A23392   2.629   0.264   9.498  0.6259 -1.0985  0.3851
  190DOPC  H14B23393   2.546   0.208   9.350 -0.9621 -0.9139  0.7463
  190DOPC  H14C23394   2.652   0.111   9.440  0.7213 -0.5348 -0.0161
  190DOPC   C1523395   2.798   0.158   9.222  0.2392  0.0173 -0.3835
  190DOPC  H15A23396   2.895   0.179   9.179  0.5502 -0.2660  0.1680
  190DOPC  H15B23397   2.731   0.170   9.138 -2.0116 -0.9507  1.1850
  190DOPC  H15C23398   2.821   0.058   9.257  0.5069 -0.8966 -2.9236
  190DOPC   C1123399   3.000   0.341   9.386 -0.2934  0.2994  0.6103
  190DOPC  H11A23400   3.076   0.341   9.467  0.5497  1.3148 -0.1527
  190DOPC  H11B23401   3.050   0.287   9.303 -1.1721  0.1975  0.1407
  190DOPC     P23402   3.002   0.602   9.431  0.1550 -0.2616  0.5320
  190DOPC   O1323403   2.919   0.596   9.551 -0.5834  0.0124  0.2200
  190DOPC   O1423404   2.980   0.717   9.337 -0.4468  0.3989 -0.0357
  190DOPC   O1223405   2.973   0.472   9.341  0.2829 -0.6916 -0.1088
  190DOPC   O1123406   3.160   0.599   9.469 -0.7542  0.0015  0.1657
  190DOPC    C123407   3.239   0.709   9.508 -0.4028  0.2495  0.0342
  190DOPC    HA23408   3.186   0.802   9.536  1.3627  3.0776 -4.7056
  190DOPC    HB23409   3.304   0.735   9.421 -1.2745  1.2041 -0.3511
  190DOPC    C223410   3.336   0.666   9.621  0.2373  0.9573  0.3166
  190DOPC    HS23411   3.407   0.750   9.629  2.8715 -1.0298 -0.8356
  190DOPC   O2123412   3.395   0.544   9.576  0.3291 -0.8594 -0.4156
  190DOPC   C2123413   3.528   0.530   9.602  0.3336 -0.3675 -0.2525
  190DOPC   O2223414   3.600   0.622   9.638  0.3435  0.0443  0.0134
  190DOPC   C2223415   3.572   0.392   9.566 -0.5313  0.7208 -0.0916
  190DOPC   H2R23416   3.576   0.383   9.455 -1.5633 -1.5550 -0.0074
  190DOPC   H2S23417   3.498   0.314   9.593  0.9453 -0.3992  0.8740
  190DOPC    C323418   3.256   0.630   9.749  0.6692 -0.5078 -0.1838
  190DOPC    HX23419   3.180   0.553   9.722  1.9753 -1.2627 -1.9378
  190DOPC    HY23420   3.198   0.721   9.774 -0.9511 -0.7144 -2.7027
  190DOPC   O3123421   3.327   0.581   9.864  0.6549 -0.0534  0.2671
  190DOPC   C3123422   3.387   0.680   9.936 -0.3560 -0.2696  0.1177
  190DOPC   O3223423   3.378   0.800   9.914  0.4716  0.3399  0.3674
  190DOPC   C3223424   3.456   0.618  10.054 -0.0359  0.7639 -0.3954
  190DOPC   H2X23425   3.372   0.592  10.121 -0.0836  0.5170 -0.5469
  190DOPC   H2Y23426   3.500   0.526  10.010 -0.9011  0.1564 -0.0198
  190DOPC   C2323427   3.708   0.348   9.621 -0.4990 -0.0031 -0.0364
  190DOPC   H3R23428   3.793   0.413   9.591 -0.2826 -0.6832 -0.9168
  190DOPC   H3S23429   3.732   0.250   9.575  0.5392  1.6462 -3.2422
  190DOPC   C2423430   3.694   0.342   9.780  0.5207  1.0973 -0.3553
  190DOPC   H4R23431   3.610   0.270   9.780  1.7310 -0.3780 -1.1057
  190DOPC   H4S23432   3.664   0.438   9.828 -3.2014  0.8737 -1.9392
  190DOPC   C2523433   3.814   0.278   9.847  0.4671  0.1914 -0.0420
  190DOPC   H5R23434   3.902   0.343   9.827  0.6728  0.1599  0.7513
  190DOPC   H5S23435   3.836   0.179   9.803  1.8005  0.6820 -0.5501
  190DOPC   C2623436   3.792   0.270  10.000  0.2378 -0.0392  0.4096
  190DOPC   H6R23437   3.699   0.213  10.017 -1.7478  2.2404 -1.9725
  190DOPC   H6S23438   3.769   0.372  10.039  1.1895  0.7105 -0.9179
  190DOPC   C2723439   3.913   0.215  10.081 -0.0113 -0.3181  0.7303
  190DOPC   H7R23440   3.994   0.288  10.104  0.2305 -0.4899  0.4273
  190DOPC   H7S23441   3.943   0.132  10.014 -3.7686 -0.0708 -1.5356
  190DOPC   C2823442   3.859   0.140  10.202  0.4268  0.3482  0.3742
  190DOPC   H8R23443   3.951   0.088  10.237  0.0275  1.2901  3.0417
  190DOPC   H8S23444   3.794   0.057  10.169  1.1279  0.0414 -0.2540
  190DOPC   C2923445   3.797   0.220  10.315 -0.4111 -0.2596 -0.4222
  190DOPC   H9R23446   3.693   0.253  10.302  0.1710  2.2035  0.6577
  190DOPC  C21023447   3.860   0.241  10.433  0.0387  0.2151  0.6982
  190DOPC  H10R23448   3.808   0.300  10.510  1.2328 -2.3491  3.6971
  190DOPC  C21123449   3.994   0.190  10.474 -0.1926  0.7818 -0.1175
  190DOPC  H11R23450   4.055   0.218  10.386  0.5326  0.8153  0.3885
  190DOPC  H11S23451   4.001   0.080  10.489  1.2822  1.1128  2.1665
  190DOPC  C21223452   4.059   0.259  10.599  0.5245 -0.4299 -0.0449
  190DOPC  H12R23453   4.062   0.370  10.589  1.1522 -0.5042 -0.7346
  190DOPC  H12S23454   4.162   0.219  10.588  0.9317  1.1269 -2.4694
  190DOPC  C21323455   3.996   0.221  10.736 -0.0381  0.3720 -0.0167
  190DOPC  H13R23456   3.989   0.110  10.737  0.5480  0.3243  1.2732
  190DOPC  H13S23457   3.892   0.249  10.762 -0.6763 -2.1728  0.5108
  190DOPC  C21423458   4.092   0.243  10.850  0.0670 -0.8448 -0.4021
  190DOPC  H14R23459   4.119   0.350  10.858 -1.9077 -0.4228  1.2168
  190DOPC  H14S23460   4.191   0.193  10.840 -0.0801 -0.9248 -1.6529
  190DOPC  C21523461   4.044   0.191  10.986 -0.3617  0.9263 -0.5075
  190DOPC  H15R23462   4.031   0.083  10.965 -0.1308  1.1688 -2.0773
  190DOPC  H15S23463   3.944   0.237  10.997 -0.5681  0.2855  0.3380
  190DOPC  C21623464   4.126   0.226  11.104 -0.3390  0.2386  0.0154
  190DOPC  H16R23465   4.150   0.334  11.106  2.4974 -0.3232  1.8021
  190DOPC  H16S23466   4.225   0.183  11.080 -1.6820 -2.6581 -0.8148
  190DOPC  C21723467   4.078   0.173  11.243 -0.4924 -0.0423 -0.5059
  190DOPC  H17R23468   4.105   0.066  11.253  0.7252  0.4434  2.3593
  190DOPC  H17S23469   3.968   0.178  11.253 -0.5104 -0.1305 -0.6668
  190DOPC  C21823470   4.142   0.239  11.365 -0.2899 -0.2118 -0.3220
  190DOPC  H18R23471   4.101   0.343  11.362  0.5649  0.1100 -1.1830
  190DOPC  H18S23472   4.252   0.254  11.368 -0.4265  0.8629  2.5342
  190DOPC  H18T23473   4.121   0.190  11.463  1.3762  3.6537  2.2201
  190DOPC   C3323474   3.560   0.704  10.124  0.3725 -0.1343 -0.2796
  190DOPC   H3X23475   3.528   0.805  10.157 -0.3155 -0.3924 -0.1485
  190DOPC   H3Y23476   3.645   0.732  10.057 -1.3691  3.2012 -1.2958
  190DOPC   C3423477   3.632   0.638  10.241 -0.3627 -0.4996 -0.5212
  190DOPC   H4X23478   3.732   0.682  10.261 -0.1097 -1.0054 -0.6414
  190DOPC   H4Y23479   3.651   0.530  10.223  0.8043 -0.1085 -1.8678
  190DOPC   C3523480   3.558   0.647  10.377  0.5996  0.4134  0.2848
  190DOPC   H5X23481   3.452   0.630  10.349 -0.0273  1.2714  2.0097
  190DOPC   H5Y23482   3.563   0.750  10.420  0.2230  0.4809  0.1731
  190DOPC   C3623483   3.602   0.549  10.482  0.2487 -0.2842  0.3260
  190DOPC   H6X23484   3.647   0.465  10.424 -0.7030 -1.4554  1.2050
  190DOPC   H6Y23485   3.681   0.600  10.540  0.6795  0.0494 -0.5272
  190DOPC   C3723486   3.480   0.493  10.563  0.2552 -0.3775  0.0651
  190DOPC   H7X23487   3.439   0.575  10.626 -0.8695 -0.8345 -0.0385
  190DOPC   H7Y23488   3.392   0.468  10.500 -0.4980 -0.1027  0.9790
  190DOPC   C3823489   3.520   0.372  10.643 -0.8153  0.2243  0.1280
  190DOPC   H8X23490   3.602   0.397  10.713 -1.4887  0.5964  0.7965
  190DOPC   H8Y23491   3.560   0.299  10.569 -1.0790  1.8087 -1.6613
  190DOPC   C3923492   3.406   0.306  10.722 -0.1770 -0.3346  0.5960
  190DOPC   H9X23493   3.310   0.310  10.668 -0.5411  2.4045  1.3237
  190DOPC  C31023494   3.413   0.262  10.847  0.2714 -1.0779  0.3365
  190DOPC  H10X23495   3.337   0.189  10.879 -0.8267 -1.0478 -1.9829
  190DOPC  C31123496   3.516   0.308  10.951 -0.2916 -0.0719 -0.3266
  190DOPC  H11X23497   3.591   0.375  10.903  0.0560 -0.8761 -0.9507
  190DOPC  H11Y23498   3.576   0.228  11.000  3.0098  3.4808  2.0346
  190DOPC  C31223499   3.465   0.392  11.069  0.6792 -0.3474  0.0152
  190DOPC  H12X23500   3.391   0.349  11.139 -0.8505 -1.2666 -2.0639
  190DOPC  H12Y23501   3.411   0.478  11.023  3.5706  1.5347 -0.1641
  190DOPC  C31323502   3.580   0.446  11.159 -0.2532  1.0126  0.3638
  190DOPC  H13X23503   3.659   0.498  11.102  2.3312  1.0002  3.6810
  190DOPC  H13Y23504   3.536   0.527  11.221 -1.0322  1.5437 -0.8491
  190DOPC  C31423505   3.641   0.332  11.250  0.5795 -0.5754 -0.1917
  190DOPC  H14X23506   3.558   0.283  11.306 -0.4386  0.8500 -0.3786
  190DOPC  H14Y23507   3.698   0.264  11.184  1.6414  0.5168 -0.4357
  190DOPC  C31523508   3.740   0.387  11.354  0.6863 -0.0498  0.4552
  190DOPC  H15X23509   3.783   0.481  11.315 -0.2701  0.2572  0.1100
  190DOPC  H15Y23510   3.827   0.318  11.364 -1.0618 -2.2877  1.1027
  190DOPC  C31623511   3.676   0.422  11.486 -0.1535  0.0301 -0.2677
  190DOPC  H16X23512   3.746   0.473  11.556  0.2056 -0.1152 -0.5163
  190DOPC  H16Y23513   3.585   0.484  11.474 -0.9716 -0.9625  0.6313
  190DOPC  C31723514   3.630   0.293  11.565  0.3072  0.0268 -0.1734
  190DOPC  H17X23515   3.576   0.345  11.646 -0.3884 -2.0387  0.7385
  190DOPC  H17Y23516   3.561   0.233  11.503 -0.8398 -0.2333  1.3148
  190DOPC  C31823517   3.735   0.214  11.632 -0.4818  0.1990 -0.2014
  190DOPC  H18X23518   3.788   0.273  11.709  0.4825  0.2837 -0.9211
  190DOPC  H18Y23519   3.688   0.127  11.683  1.0886 -0.0959  0.7912
  190DOPC  H18Z23520   3.807   0.174  11.558 -2.1002 -3.1734 -0.1717
  191DOPC     N23521   6.256   0.724   9.676  0.0957 -0.9133  0.1169
  191DOPC   C1223522   6.140   0.631   9.671 -0.6953  0.1829  0.4766
  191DOPC  H12A23523   6.055   0.695   9.654 -0.5932  1.0469  2.8415
  191DOPC  H12B23524   6.122   0.604   9.774  2.4895  0.2167  1.1357
  191DOPC   C1323525   6.240   0.831   9.784  0.0290 -0.1620  0.0352
  191DOPC  H13A23526   6.160   0.903   9.768  1.5022  1.8472  1.2907
  191DOPC  H13B23527   6.224   0.776   9.876  1.2284 -1.7673 -0.6672
  191DOPC  H13C23528   6.328   0.893   9.790  0.2906 -0.6015  0.8752
  191DOPC   C1423529   6.262   0.797   9.544  0.0917 -0.6860  0.3176
  191DOPC  H14A23530   6.286   0.731   9.462  1.2914  0.3349 -0.1881
  191DOPC  H14B23531   6.168   0.847   9.524  0.7206  0.5526  0.3561
  191DOPC  H14C23532   6.342   0.869   9.554 -0.6122  0.1824 -0.1499
  191DOPC   C1523533   6.386   0.667   9.701 -0.7750  0.2515 -0.2780
  191DOPC  H15A23534   6.394   0.575   9.643 -1.9921  0.3487 -0.6366
  191DOPC  H15B23535   6.397   0.625   9.800  0.8111 -0.5298 -0.7429
  191DOPC  H15C23536   6.462   0.734   9.663 -0.0370 -0.8893 -0.8954
  191DOPC   C1123537   6.141   0.504   9.585 -0.6747  0.4254  0.8988
  191DOPC  H11A23538   6.034   0.474   9.588 -0.8951  0.4731 -2.6177
  191DOPC  H11B23539   6.163   0.530   9.480  0.5075 -2.1855  0.4332
  191DOPC     P23540   6.190   0.314   9.751 -0.3157 -0.3079 -0.3444
  191DOPC   O1323541   6.254   0.184   9.732  0.4487  0.1099 -0.2099
  191DOPC   O1423542   6.045   0.320   9.762  0.0533  0.0367 -0.1408
  191DOPC   O1223543   6.235   0.405   9.637 -0.3802 -0.3014  0.2026
  191DOPC   O1123544   6.257   0.389   9.874 -0.1748  0.2056  0.1881
  191DOPC    C123545   6.397   0.355   9.898  0.3679 -0.4350  1.0480
  191DOPC    HA23546   6.441   0.440   9.955 -1.3173  1.6708 -0.6047
  191DOPC    HB23547   6.451   0.339   9.802 -2.2304 -1.3966 -0.3505
  191DOPC    C223548   6.401   0.237  10.000  0.1863  0.3013  0.0480
  191DOPC    HS23549   6.349   0.159   9.939  1.4496 -1.3079  0.9466
  191DOPC   O2123550   6.341   0.271  10.127 -0.1727 -0.4869 -0.1431
  191DOPC   C2123551   6.225   0.207  10.164  0.2326  0.5781 -0.0607
  191DOPC   O2223552   6.158   0.133  10.088 -0.4892 -0.4465 -0.0331
  191DOPC   C2223553   6.188   0.216  10.317  0.1333  0.7293  0.4114
  191DOPC   H2R23554   6.286   0.217  10.370 -0.1410  2.4495  0.9699
  191DOPC   H2S23555   6.125   0.128  10.343  1.7036 -0.9627 -1.2080
  191DOPC    C323556   6.540   0.184  10.032 -0.4786  0.3287 -0.1950
  191DOPC    HX23557   6.611   0.265  10.059  1.8517 -1.4521 -0.6564
  191DOPC    HY23558   6.569   0.154   9.929  0.6651 -0.5657  0.3620
  191DOPC   O3123559   6.533   0.079  10.130  0.3617  0.1856 -0.5962
  191DOPC   C3123560   6.503  -0.045  10.085  0.4139 -0.3684 -0.2698
  191DOPC   O3223561   6.476  -0.063   9.971 -0.0242  0.5249 -0.1367
  191DOPC   C3223562   6.491  -0.137  10.205 -0.5535 -0.5266 -0.0414
  191DOPC   H2X23563   6.573  -0.115  10.276 -0.0077 -0.0597 -0.8125
  191DOPC   H2Y23564   6.399  -0.098  10.256  0.9992  1.9143  1.0736
  191DOPC   C2323565   6.123   0.352  10.357 -0.2104  0.5669 -0.1846
  191DOPC   H3R23566   6.042   0.371  10.283  1.2563  3.2198 -1.2682
  191DOPC   H3S23567   6.206   0.426  10.360  0.9308 -0.6401 -1.0361
  191DOPC   C2423568   6.057   0.343  10.494  0.0531 -0.7226  0.6289
  191DOPC   H4R23569   5.978   0.265  10.487 -2.4706  1.7424 -0.6045
  191DOPC   H4S23570   6.015   0.443  10.519  1.6468  0.5921 -1.6193
  191DOPC   C2523571   6.153   0.318  10.607 -0.0215 -0.6597  0.0352
  191DOPC   H5R23572   6.227   0.401  10.615  0.0339 -0.6239 -0.8155
  191DOPC   H5S23573   6.208   0.223  10.594 -0.3303 -0.9566  0.8300
  191DOPC   C2623574   6.078   0.305  10.742  1.1488 -0.4635  0.0824
  191DOPC   H6R23575   6.017   0.212  10.733  1.6608 -0.6400 -2.1465
  191DOPC   H6S23576   5.997   0.381  10.754  1.0309 -0.2948 -1.5872
  191DOPC   C2723577   6.161   0.302  10.874 -0.4060  0.8773  0.2038
  191DOPC   H7R23578   6.203   0.404  10.889 -0.4924  0.9308  0.0860
  191DOPC   H7S23579   6.247   0.234  10.855 -0.8761  0.8298 -2.0470
  191DOPC   C2823580   6.081   0.247  10.990 -0.2222 -0.3274 -0.2156
  191DOPC   H8R23581   6.155   0.225  11.070  0.2901 -0.0154 -0.6020
  191DOPC   H8S23582   6.032   0.150  10.968 -0.6942 -0.4899  1.4170
  191DOPC   C2923583   5.978   0.342  11.043 -0.8400 -0.5219  0.5761
  191DOPC   H9R23584   5.892   0.356  10.976  0.5766  1.1677 -0.9764
  191DOPC  C21023585   5.980   0.403  11.162 -1.5672 -0.4453  0.1949
  191DOPC  H10R23586   5.897   0.470  11.187 -1.5271 -0.6719  0.9399
  191DOPC  C21123587   6.080   0.407  11.269 -0.4897  0.2153  0.3862
  191DOPC  H11R23588   6.108   0.509  11.300  0.5321  0.5050 -1.3616
  191DOPC  H11S23589   6.168   0.352  11.230 -0.7151  0.1198  0.0032
  191DOPC  C21223590   6.039   0.339  11.398 -0.3783 -0.7970 -0.2614
  191DOPC  H12R23591   5.987   0.243  11.376 -1.2902 -0.8020  1.7427
  191DOPC  H12S23592   5.952   0.392  11.440 -1.0076 -2.5508  0.7488
  191DOPC  C21323593   6.141   0.319  11.509  0.6184 -0.0083 -0.3281
  191DOPC  H13R23594   6.190   0.417  11.526 -2.5462  2.1684 -2.4012
  191DOPC  H13S23595   6.218   0.250  11.468  1.9504  1.0260  0.3632
  191DOPC  C21423596   6.096   0.244  11.634 -0.0214 -0.1542  0.0871
  191DOPC  H14R23597   6.183   0.213  11.695  0.2798 -0.0885 -0.3059
  191DOPC  H14S23598   6.045   0.150  11.601 -0.3141  0.8134 -2.4589
  191DOPC  C21523599   5.985   0.326  11.717 -0.4775  0.8421  0.7751
  191DOPC  H15R23600   5.888   0.277  11.696  0.6421 -1.3034  0.3206
  191DOPC  H15S23601   5.982   0.429  11.677  0.1161  1.3992  2.1212
  191DOPC  C21623602   6.014   0.325  11.867  0.3026  0.2489 -0.4000
  191DOPC  H16R23603   6.114   0.369  11.887  0.0697  1.2660 -1.3441
  191DOPC  H16S23604   6.009   0.224  11.913 -1.5060 -0.3643 -1.8266
  191DOPC  C21723605   5.920   0.424  11.943 -0.0410 -0.1447 -0.3189
  191DOPC  H17R23606   5.812   0.405  11.923 -0.8825  2.1296  1.5371
  191DOPC  H17S23607   5.928   0.527  11.902  1.0438  1.2736  3.1279
  191DOPC  C21823608   5.955   0.439  12.090 -1.0040 -0.0546 -0.0319
  191DOPC  H18R23609   5.891   0.512  12.143 -0.4533 -0.2589  0.9309
  191DOPC  H18S23610   6.060   0.473  12.094 -0.3404 -2.0782  1.2641
  191DOPC  H18T23611   5.956   0.344  12.147  2.2991  0.2066  0.5260
  191DOPC   C3323612   6.477  -0.291  10.174 -0.0449  0.0597  0.3046
  191DOPC   H3X23613   6.572  -0.337  10.139 -1.1729 -1.4392 -0.9196
  191DOPC   H3Y23614   6.409  -0.296  10.087  1.3627 -1.7591 -0.7652
  191DOPC   C3423615   6.417  -0.377  10.287  0.3269 -0.3377 -0.2332
  191DOPC   H4X23616   6.343  -0.308  10.334  1.5244 -0.6303  2.2422
  191DOPC   H4Y23617   6.493  -0.410  10.361  1.8404  0.7719 -1.2215
  191DOPC   C3523618   6.338  -0.500  10.232  1.0814 -0.0927 -0.1085
  191DOPC   H5X23619   6.238  -0.469  10.195  0.9649 -0.9795 -0.5682
  191DOPC   H5Y23620   6.322  -0.562  10.323 -0.0269 -3.2146 -2.2540
  191DOPC   C3623621   6.412  -0.594  10.137  0.1640  0.1145 -0.5849
  191DOPC   H6X23622   6.437  -0.547  10.040 -0.1880  1.0602 -0.2280
  191DOPC   H6Y23623   6.507  -0.625  10.186 -0.5300  1.2188  1.6112
  191DOPC   C3723624   6.327  -0.713  10.079 -0.0053 -0.5057  0.0579
  191DOPC   H7X23625   6.265  -0.764  10.155 -1.2735 -0.3708 -0.8662
  191DOPC   H7Y23626   6.255  -0.661  10.012  0.7529  0.2084 -0.2262
  191DOPC   C3823627   6.404  -0.817   9.991  0.1031 -0.1017 -0.0416
  191DOPC   H8X23628   6.483  -0.849  10.062  0.6103  0.9059 -0.1258
  191DOPC   H8Y23629   6.443  -0.753   9.909 -1.1462 -0.8481 -1.2599
  191DOPC   C3923630   6.314  -0.934   9.953 -0.3718  0.1552 -0.0599
  191DOPC   H9X23631   6.217  -0.905   9.911 -0.5836  1.1605  1.0888
  191DOPC  C31023632   6.334  -1.062   9.990 -0.0525  0.6732  0.0463
  191DOPC  H10X23633   6.268  -1.138   9.947 -0.4550  1.0190  0.0468
  191DOPC  C31123634   6.440  -1.126  10.077 -0.2990 -0.4138  0.7185
  191DOPC  H11X23635   6.508  -1.045  10.110 -1.5998  0.1744  2.0879
  191DOPC  H11Y23636   6.489  -1.199  10.009 -0.4269  0.4517 -0.3221
  191DOPC  C31223637   6.380  -1.186  10.206 -0.2645  0.3022 -0.0075
  191DOPC  H12X23638   6.458  -1.243  10.261  0.3603 -0.8585 -1.9989
  191DOPC  H12Y23639   6.301  -1.255  10.170  1.7499 -1.6256 -0.9695
  191DOPC  C31323640   6.325  -1.089  10.311  0.3272 -0.5185  0.8233
  191DOPC  H13X23641   6.249  -1.027  10.260  2.6772  0.9646 -1.1345
  191DOPC  H13Y23642   6.285  -1.140  10.401 -1.8574 -1.0276 -0.3792
  191DOPC  C31423643   6.432  -0.990  10.362  0.3262 -0.6164 -0.1584
  191DOPC  H14X23644   6.514  -1.040  10.418  2.9947  2.9426 -0.4907
  191DOPC  H14Y23645   6.489  -0.955  10.273 -0.5346 -2.4696 -1.4971
  191DOPC  C31523646   6.367  -0.876  10.448  0.7940  0.3684 -0.9174
  191DOPC  H15X23647   6.331  -0.929  10.539  1.7204 -0.1851 -0.8574
  191DOPC  H15Y23648   6.281  -0.820  10.406 -0.2949  1.0051  1.9036
  191DOPC  C31623649   6.468  -0.780  10.506  0.2806 -0.4807 -0.3487
  191DOPC  H16X23650   6.551  -0.838  10.552  1.3961  0.6372 -0.9114
  191DOPC  H16Y23651   6.513  -0.723  10.422 -0.0628  0.1286 -0.1211
  191DOPC  C31723652   6.406  -0.694  10.614  0.0576 -0.1122 -0.7234
  191DOPC  H17X23653   6.320  -0.635  10.575  0.5059  0.7120 -0.4847
  191DOPC  H17Y23654   6.380  -0.751  10.706  0.5760  3.4910  1.8690
  191DOPC  C31823655   6.519  -0.592  10.670  0.0826  0.4660 -0.5269
  191DOPC  H18X23656   6.611  -0.649  10.695 -0.2859  0.6832  1.5405
  191DOPC  H18Y23657   6.549  -0.525  10.587 -0.1760 -0.3958 -1.3378
  191DOPC  H18Z23658   6.490  -0.542  10.765  2.1985 -1.0934  1.0360
  192DOPC     N23659   1.178   3.321  10.231 -0.4452 -0.4873  0.8051
  192DOPC   C1223660   1.284   3.382  10.323 -0.5984  0.7750 -0.0442
  192DOPC  H12A23661   1.269   3.357  10.427  0.7741  0.9884  0.2322
  192DOPC  H12B23662   1.268   3.489  10.326  0.3444  0.9179  0.4112
  192DOPC   C1323663   1.198   3.172  10.210  0.0789  0.2449  0.0097
  192DOPC  H13A23664   1.138   3.147  10.123 -1.2788 -3.4502  1.7915
  192DOPC  H13B23665   1.300   3.151  10.181 -1.0881 -1.2192 -3.6395
  192DOPC  H13C23666   1.170   3.117  10.299 -0.3113 -0.2688 -0.4249
  192DOPC   C1423667   1.179   3.387  10.099 -0.2334  0.2259  0.1478
  192DOPC  H14A23668   1.129   3.332  10.021  2.3751 -1.9163 -0.1360
  192DOPC  H14B23669   1.141   3.488  10.110 -0.5662  0.0198  1.0377
  192DOPC  H14C23670   1.276   3.392  10.054 -0.3442  1.7231  0.0260
  192DOPC   C1523671   1.040   3.338  10.285  0.6447 -0.7362 -0.1902
  192DOPC  H15A23672   1.005   3.440  10.296 -0.7969 -1.4299  2.2895
  192DOPC  H15B23673   1.016   3.287  10.377 -0.6366  0.9644  0.4829
  192DOPC  H15C23674   0.976   3.291  10.212 -1.0625  0.3485  0.5659
  192DOPC   C1123675   1.430   3.366  10.279  0.3422 -0.2966 -0.0058
  192DOPC  H11A23676   1.484   3.413  10.364 -0.2829  0.2617  0.0914
  192DOPC  H11B23677   1.461   3.259  10.277 -1.1405 -0.7459 -0.3178
  192DOPC     P23678   1.583   3.525  10.133 -0.0941 -0.7029  0.0587
  192DOPC   O1323679   1.545   3.617  10.023 -0.7509  0.0338 -0.3402
  192DOPC   O1423680   1.706   3.454  10.114 -0.0782  0.5825 -0.2695
  192DOPC   O1223681   1.460   3.425  10.151  0.0909  0.0411  0.0869
  192DOPC   O1123682   1.585   3.611  10.262  0.1676  0.2277 -0.0396
  192DOPC    C123683   1.483   3.690  10.323  0.1323 -0.4230  0.1168
  192DOPC    HA23684   1.462   3.660  10.427 -1.0410  1.8916  0.5974
  192DOPC    HB23685   1.386   3.665  10.275  1.1727 -2.2701 -1.1656
  192DOPC    C223686   1.514   3.842  10.307  0.9810 -0.1051  0.7792
  192DOPC    HS23687   1.521   3.867  10.199  3.5176  0.7240  1.0524
  192DOPC   O2123688   1.638   3.880  10.369 -0.4601 -0.0740 -0.5203
  192DOPC   C2123689   1.686   3.992  10.334 -0.4975  0.6314  0.3286
  192DOPC   O2223690   1.658   4.059  10.235 -0.5865  0.4219 -0.4517
  192DOPC   C2223691   1.803   4.044  10.425  0.2923  0.4738  0.2893
  192DOPC   H2R23692   1.899   3.998  10.394  0.1419 -1.1417  2.0032
  192DOPC   H2S23693   1.759   4.022  10.525 -2.5199 -0.2319 -0.9728
  192DOPC    C323694   1.397   3.920  10.365  0.4811  0.6248  0.5426
  192DOPC    HX23695   1.300   3.907  10.313  0.6640  2.0925 -0.2206
  192DOPC    HY23696   1.405   4.029  10.346  2.3448  0.5488  0.6897
  192DOPC   O3123697   1.383   3.891  10.506  0.6298 -0.5418 -0.1420
  192DOPC   C3123698   1.461   3.973  10.584  0.4831  0.1555  0.3794
  192DOPC   O3223699   1.504   4.081  10.548  0.1636 -0.4505  0.2109
  192DOPC   C3223700   1.489   3.913  10.719  0.3129  0.0426  0.2075
  192DOPC   H2X23701   1.397   3.862  10.753 -0.0790 -0.5242 -1.6161
  192DOPC   H2Y23702   1.573   3.841  10.704  0.4887  0.5675 -1.6094
  192DOPC   C2323703   1.812   4.200  10.421  0.0418 -0.4676  0.3321
  192DOPC   H3R23704   1.715   4.233  10.465  0.7707  0.7678  1.0935
  192DOPC   H3S23705   1.826   4.232  10.316  0.3881 -1.4869  0.0561
  192DOPC   C2423706   1.924   4.250  10.514  0.0241  0.2067  0.0206
  192DOPC   H4R23707   1.928   4.361  10.509 -1.0037  0.1868 -2.1704
  192DOPC   H4S23708   2.016   4.198  10.480 -0.4914 -0.8373  0.1831
  192DOPC   C2523709   1.910   4.197  10.660 -0.3942 -0.5985  0.4465
  192DOPC   H5R23710   1.914   4.086  10.654 -0.3849 -0.5358 -2.8343
  192DOPC   H5S23711   1.809   4.229  10.692 -0.6397 -0.6593 -0.2468
  192DOPC   C2623712   2.011   4.256  10.760  0.3957 -0.2212 -0.3053
  192DOPC   H6R23713   2.010   4.367  10.746  0.9399 -0.4360 -2.2515
  192DOPC   H6S23714   2.117   4.229  10.739  0.1595 -1.0918 -0.3956
  192DOPC   C2723715   1.966   4.233  10.904  0.2676  0.0573  0.1512
  192DOPC   H7R23716   1.924   4.130  10.909 -1.2833  0.6071 -0.7645
  192DOPC   H7S23717   1.880   4.299  10.928  0.2604 -0.0702  0.4775
  192DOPC   C2823718   2.073   4.250  11.007 -0.0009  1.3562 -0.2816
  192DOPC   H8R23719   2.105   4.356  11.003 -0.0353  1.3203 -2.4665
  192DOPC   H8S23720   2.159   4.189  10.972 -0.5727  0.6838 -0.5513
  192DOPC   C2923721   2.020   4.196  11.141 -0.3290  0.7768 -0.2616
  192DOPC   H9R23722   1.968   4.099  11.136 -0.3436  0.8403 -1.7802
  192DOPC  C21023723   2.012   4.271  11.251  0.7032  0.0627  0.7353
  192DOPC  H10R23724   1.947   4.237  11.333 -0.5920  2.3750  0.7449
  192DOPC  C21123725   2.051   4.405  11.275 -0.4442  0.2984 -0.6990
  192DOPC  H11R23726   1.969   4.480  11.277  0.9578  1.9009 -1.5022
  192DOPC  H11S23727   2.138   4.434  11.213  1.9207 -1.9173  1.3104
  192DOPC  C21223728   2.115   4.408  11.414 -0.2176 -0.2828  0.0434
  192DOPC  H12R23729   2.183   4.320  11.421 -0.6789 -0.7844 -1.3981
  192DOPC  H12S23730   2.027   4.404  11.482 -0.4231  1.9594  0.0057
  192DOPC  C21323731   2.189   4.534  11.422 -0.6362  0.2154  0.1875
  192DOPC  H13R23732   2.124   4.599  11.360 -2.3925 -0.8320  0.8429
  192DOPC  H13S23733   2.293   4.515  11.389 -1.1247 -1.9360 -0.3017
  192DOPC  C21423734   2.186   4.596  11.567 -0.0974  0.1796  0.1582
  192DOPC  H14R23735   2.230   4.523  11.639  0.4010  0.6171  0.2999
  192DOPC  H14S23736   2.078   4.604  11.595  0.1806  0.2099  1.2763
  192DOPC  C21523737   2.261   4.731  11.571  0.0832  0.4070  0.5252
  192DOPC  H15R23738   2.213   4.821  11.528  1.2681 -0.6365 -3.2987
  192DOPC  H15S23739   2.346   4.704  11.506  0.7144 -1.2937  1.9882
  192DOPC  C21623740   2.323   4.763  11.710 -0.1590 -0.0972  0.6972
  192DOPC  H16R23741   2.376   4.861  11.709 -0.6161  0.1523 -0.4350
  192DOPC  H16S23742   2.398   4.683  11.728  0.6199  0.6910  1.0644
  192DOPC  C21723743   2.218   4.764  11.820 -0.0266  0.7746 -0.0379
  192DOPC  H17R23744   2.139   4.690  11.796 -1.1116  0.7819  3.0788
  192DOPC  H17S23745   2.163   4.861  11.823  0.8316  1.3087 -1.0995
  192DOPC  C21823746   2.265   4.737  11.966 -0.0866 -0.4293 -0.3806
  192DOPC  H18R23747   2.182   4.694  12.025 -0.2102 -1.0835 -1.0203
  192DOPC  H18S23748   2.286   4.834  12.016 -1.0518 -0.6568  0.4944
  192DOPC  H18T23749   2.350   4.666  11.977  0.6485  0.3301 -0.9632
  192DOPC   C3323750   1.535   4.014  10.824 -0.6780 -1.1256 -0.4806
  192DOPC   H3X23751   1.465   4.100  10.824 -1.3867 -1.5193 -4.1566
  192DOPC   H3Y23752   1.635   4.051  10.790 -0.8447 -0.3616 -0.1508
  192DOPC   C3423753   1.548   3.939  10.959  0.5688 -0.9191  0.3334
  192DOPC   H4X23754   1.620   3.854  10.956  1.3674 -0.2425  0.1387
  192DOPC   H4Y23755   1.451   3.886  10.968  0.0909 -0.1045  0.0218
  192DOPC   C3523756   1.568   4.022  11.088 -0.5477  0.1112 -0.0776
  192DOPC   H5X23757   1.498   4.108  11.098 -1.3837 -0.4677 -0.8721
  192DOPC   H5Y23758   1.668   4.067  11.077 -1.0354  0.9246 -1.3852
  192DOPC   C3623759   1.584   3.926  11.207 -0.2790  0.3852  0.2115
  192DOPC   H6X23760   1.502   3.851  11.198  1.7967 -1.9078 -0.7575
  192DOPC   H6Y23761   1.675   3.864  11.194 -2.7837 -3.2045 -2.2444
  192DOPC   C3723762   1.570   4.005  11.337 -0.4540  0.0441  0.0619
  192DOPC   H7X23763   1.470   4.054  11.338 -0.0392  0.9386 -1.0287
  192DOPC   H7Y23764   1.582   3.932  11.420  2.0065 -1.5288 -1.5294
  192DOPC   C3823765   1.675   4.114  11.355  0.1359  0.1131  0.6243
  192DOPC   H8X23766   1.667   4.180  11.266 -1.2880 -0.4518  0.3009
  192DOPC   H8Y23767   1.773   4.064  11.353  0.7812  1.3189  0.8751
  192DOPC   C3923768   1.657   4.197  11.484  0.2746  0.4944 -0.1793
  192DOPC   H9X23769   1.561   4.251  11.486 -0.2414 -0.3703 -0.7627
  192DOPC  C31023770   1.750   4.196  11.586  0.8349  0.1790 -0.1967
  192DOPC  H10X23771   1.720   4.250  11.677  2.1117 -2.3591  1.8566
  192DOPC  C31123772   1.884   4.128  11.601  0.1619  0.0657 -0.5376
  192DOPC  H11X23773   1.935   4.124  11.502  0.2850 -2.9270 -0.4349
  192DOPC  H11Y23774   1.871   4.022  11.631 -2.5723  0.2139 -0.9290
  192DOPC  C31223775   1.962   4.200  11.717 -0.3186  0.3535  0.5704
  192DOPC  H12X23776   1.912   4.181  11.814 -1.7464 -1.1959 -0.3987
  192DOPC  H12Y23777   1.977   4.306  11.689  0.3536 -0.3110 -1.8946
  192DOPC  C31323778   2.103   4.140  11.736  0.2126  0.7033 -0.0998
  192DOPC  H13X23779   2.167   4.134  11.645 -0.2838 -0.5041 -0.3786
  192DOPC  H13Y23780   2.153   4.198  11.817  1.3939  0.8783 -0.9236
  192DOPC  C31423781   2.103   3.997  11.795  0.2662 -0.1883 -0.3112
  192DOPC  H14X23782   2.035   3.989  11.882 -0.4152  3.5341 -0.3492
  192DOPC  H14Y23783   2.082   3.928  11.711 -0.6346 -1.9642  1.3130
  192DOPC  C31523784   2.233   3.965  11.871 -0.1822  0.1599  0.2792
  192DOPC  H15X23785   2.272   4.060  11.914 -1.3255  0.9356 -0.3769
  192DOPC  H15Y23786   2.312   3.936  11.798 -0.3407  0.4643 -0.0114
  192DOPC  C31623787   2.230   3.852  11.978  0.2304  0.0994  0.4840
  192DOPC  H16X23788   2.334   3.828  12.010 -0.6245 -0.1440  3.3172
  192DOPC  H16Y23789   2.174   3.892  12.065 -3.0124  0.3469 -1.5506
  192DOPC  C31723790   2.157   3.723  11.929  0.2824 -0.8093 -0.4505
  192DOPC  H17X23791   2.053   3.754  11.905 -0.1863 -1.3876  0.7651
  192DOPC  H17Y23792   2.196   3.679  11.835  2.5912  0.1801 -0.0193
  192DOPC  C31823793   2.145   3.617  12.030  0.1518  0.5481 -0.8053
  192DOPC  H18X23794   2.066   3.638  12.105  1.0058 -0.3976  0.4080
  192DOPC  H18Y23795   2.110   3.527  11.974 -1.6465  0.4272  0.4514
  192DOPC  H18Z23796   2.234   3.588  12.090 -1.8716 -1.7030  1.3276
  193DOPC     N23797   0.479   2.081  10.113 -0.6518 -0.7581  0.1447
  193DOPC   C1223798   0.485   1.975  10.221 -0.2799 -0.1650  0.3310
  193DOPC  H12A23799   0.457   1.880  10.177  1.8476 -1.6920  2.0725
  193DOPC  H12B23800   0.397   1.989  10.282 -0.8901  1.6841 -0.8745
  193DOPC   C1323801   0.443   2.216  10.176  0.4885 -0.3304 -0.5682
  193DOPC  H13A23802   0.345   2.213  10.219  0.8522  0.1561  0.3288
  193DOPC  H13B23803   0.520   2.251  10.244 -0.9643  2.7809 -0.3349
  193DOPC  H13C23804   0.438   2.290  10.097  1.4286  0.8254  0.4056
  193DOPC   C1423805   0.374   2.055  10.007 -1.3016  0.7083  0.4753
  193DOPC  H14A23806   0.407   1.973   9.945 -0.9940  0.1192  1.3953
  193DOPC  H14B23807   0.286   2.007  10.046 -0.7555 -0.7115  0.0261
  193DOPC  H14C23808   0.364   2.142   9.943  0.2977  1.0102  0.5816
  193DOPC   C1523809   0.614   2.095  10.055  0.4526  0.2457  0.6440
  193DOPC  H15A23810   0.647   1.998  10.021  3.8933  0.8038  1.9599
  193DOPC  H15B23811   0.690   2.114  10.130  1.1060 -1.6674  0.5268
  193DOPC  H15C23812   0.618   2.156   9.966 -0.7423 -0.5993 -0.0244
  193DOPC   C1123813   0.619   1.955  10.297 -0.7323  0.5047 -0.2084
  193DOPC  H11A23814   0.649   2.055  10.336 -0.1607 -0.8792  3.2301
  193DOPC  H11B23815   0.585   1.909  10.392  0.4476 -1.9058 -0.8611
  193DOPC     P23816   0.711   1.740  10.188 -0.2930  0.1144 -0.3822
  193DOPC   O1323817   0.827   1.692  10.111 -0.7103 -0.0579  0.5772
  193DOPC   O1423818   0.577   1.708  10.127  0.0820  0.3025 -0.1078
  193DOPC   O1223819   0.720   1.889  10.223  0.3122 -0.4193 -0.0340
  193DOPC   O1123820   0.716   1.672  10.327 -0.0712 -0.0404 -0.8582
  193DOPC    C123821   0.818   1.701  10.423  0.2625 -0.4287  0.4539
  193DOPC    HA23822   0.814   1.799  10.475  1.5871 -0.8060  1.3207
  193DOPC    HB23823   0.923   1.697  10.386  0.5052  1.4084  0.8292
  193DOPC    C223824   0.824   1.598  10.540  0.1231  0.0912 -0.4688
  193DOPC    HS23825   0.926   1.587  10.583 -0.7086  0.7628  1.8725
  193DOPC   O2123826   0.777   1.472  10.489  0.1821  0.1340  0.4570
  193DOPC   C2123827   0.866   1.398  10.423  0.2126 -0.3270 -0.3942
  193DOPC   O2223828   0.982   1.428  10.402 -0.6303 -0.0051  0.2149
  193DOPC   C2223829   0.791   1.265  10.389  0.0470 -0.2000 -0.2577
  193DOPC   H2R23830   0.758   1.268  10.283  2.0210  1.8301 -0.9103
  193DOPC   H2S23831   0.703   1.263  10.456  0.3969 -1.8526  0.1942
  193DOPC    C323832   0.729   1.639  10.652 -0.0484  0.3979 -0.1168
  193DOPC    HX23833   0.700   1.554  10.718 -0.0477 -0.1220 -0.7746
  193DOPC    HY23834   0.637   1.666  10.597  1.1161  0.1982 -2.2929
  193DOPC   O3123835   0.783   1.752  10.726  0.4581  0.2150  0.2699
  193DOPC   C3123836   0.843   1.738  10.838  0.5202  0.1649  0.3220
  193DOPC   O3223837   0.876   1.629  10.889 -0.2601  0.4436  0.4993
  193DOPC   C3223838   0.884   1.871  10.904  0.3199  0.2322 -0.2214
  193DOPC   H2X23839   0.973   1.903  10.846  1.3240 -0.7486  0.7321
  193DOPC   H2Y23840   0.812   1.952  10.883 -0.0555  0.2431  1.0216
  193DOPC   C2323841   0.882   1.146  10.423  0.6786  0.2409 -0.1021
  193DOPC   H3R23842   0.981   1.168  10.378  1.1652 -0.2429  0.6891
  193DOPC   H3S23843   0.853   1.056  10.364 -2.5374  2.6009 -2.4593
  193DOPC   C2423844   0.899   1.095  10.567  0.3766  0.0264  0.3089
  193DOPC   H4R23845   0.965   1.166  10.621  0.4143 -0.6204  1.1315
  193DOPC   H4S23846   0.950   0.997  10.567  1.4381  0.5234 -1.8588
  193DOPC   C2523847   0.770   1.088  10.647 -0.2757  0.2999 -0.6773
  193DOPC   H5R23848   0.697   1.033  10.584  0.3238 -0.6097 -0.5974
  193DOPC   H5S23849   0.727   1.183  10.684  0.3957  0.2195  0.3384
  193DOPC   C2623850   0.783   0.980  10.758  0.5926 -0.0361  0.5569
  193DOPC   H6R23851   0.859   1.011  10.833  0.8827  0.7307 -0.0406
  193DOPC   H6S23852   0.821   0.887  10.710  0.5597  0.6332 -0.7927
  193DOPC   C2723853   0.648   0.946  10.829 -0.9948  0.2351 -0.1444
  193DOPC   H7R23854   0.575   0.932  10.746 -0.5904  1.2120 -0.6790
  193DOPC   H7S23855   0.616   1.040  10.878 -0.7782  0.5518 -0.5965
  193DOPC   C2823856   0.651   0.824  10.921 -0.4423 -0.8477  0.0221
  193DOPC   H8R23857   0.668   0.736  10.856  0.4490 -0.3359 -0.4654
  193DOPC   H8S23858   0.551   0.806  10.966 -0.9298 -0.3910 -0.8406
  193DOPC   C2923859   0.765   0.823  11.017  0.3515  0.3234 -0.7676
  193DOPC   H9R23860   0.866   0.837  10.978  1.3441  0.3192  1.6322
  193DOPC  C21023861   0.741   0.824  11.149  0.1030 -0.7157  0.3191
  193DOPC  H10R23862   0.827   0.818  11.217  0.8327 -0.5826 -0.5762
  193DOPC  C21123863   0.609   0.836  11.221 -0.5173 -0.0383 -0.6333
  193DOPC  H11R23864   0.539   0.905  11.169 -1.0334  1.5653  2.0057
  193DOPC  H11S23865   0.628   0.885  11.319  0.5948  0.9472 -1.3307
  193DOPC  C21223866   0.544   0.702  11.249  0.2691  0.0876  0.3468
  193DOPC  H12R23867   0.518   0.653  11.153 -0.3586 -1.4853  1.2674
  193DOPC  H12S23868   0.445   0.726  11.294  1.8548  4.3278  2.0251
  193DOPC  C21323869   0.628   0.607  11.339 -0.7872  0.3179  0.2317
  193DOPC  H13R23870   0.726   0.600  11.285 -0.2609  2.0405  0.8909
  193DOPC  H13S23871   0.581   0.507  11.335  0.3519 -0.2041 -0.8080
  193DOPC  C21423872   0.669   0.667  11.479  0.0523 -0.4779 -0.8223
  193DOPC  H14R23873   0.739   0.751  11.459 -0.0974  0.2683  1.5132
  193DOPC  H14S23874   0.730   0.593  11.534 -0.4111 -0.7087 -0.6149
  193DOPC  C21523875   0.547   0.716  11.552  0.5121  0.0689 -0.3962
  193DOPC  H15R23876   0.476   0.630  11.551  2.7241 -1.8299 -0.6682
  193DOPC  H15S23877   0.502   0.800  11.494 -2.1673 -1.6022 -0.9107
  193DOPC  C21623878   0.563   0.768  11.699  0.3166 -0.3363  0.5416
  193DOPC  H16R23879   0.626   0.860  11.698 -0.7834  0.4476  1.4856
  193DOPC  H16S23880   0.605   0.683  11.757  0.0171 -0.6290  0.3313
  193DOPC  C21723881   0.439   0.815  11.766  0.1599  0.1894 -0.0618
  193DOPC  H17R23882   0.364   0.734  11.780 -1.0355  1.2331 -0.2993
  193DOPC  H17S23883   0.390   0.888  11.698 -0.0495 -2.4530 -2.9866
  193DOPC  C21823884   0.450   0.877  11.909  0.4716 -0.3145  0.0014
  193DOPC  H18R23885   0.358   0.929  11.941  0.8581 -0.2037  0.9546
  193DOPC  H18S23886   0.537   0.946  11.915 -0.2813  0.6449  0.0081
  193DOPC  H18T23887   0.465   0.792  11.979 -0.0664  1.3144  2.1824
  193DOPC   C3323888   0.910   1.863  11.056 -0.0694 -0.5256 -0.0457
  193DOPC   H3X23889   0.988   1.788  11.082  0.9384 -0.4528 -2.5737
  193DOPC   H3Y23890   0.813   1.842  11.106 -0.7869  3.1247  0.3881
  193DOPC   C3423891   0.945   2.005  11.097  0.1956  0.0599 -0.5663
  193DOPC   H4X23892   0.850   2.062  11.098 -0.5911 -1.1784 -1.3254
  193DOPC   H4Y23893   1.013   2.054  11.024  1.9329 -0.2432  0.7716
  193DOPC   C3523894   1.006   2.018  11.237 -0.3276  0.7532 -0.0339
  193DOPC   H5X23895   1.021   2.120  11.278  0.1152 -0.2418  2.4703
  193DOPC   H5Y23896   1.106   1.970  11.240 -0.0882  1.2858  0.8059
  193DOPC   C3623897   0.932   1.931  11.347  0.0479  0.7868  1.3976
  193DOPC   H6X23898   0.823   1.954  11.339  0.0826  0.6380  0.3171
  193DOPC   H6Y23899   0.950   1.824  11.324  3.5266  1.3720  0.9261
  193DOPC   C3723900   0.977   1.962  11.488  0.2400  0.7492 -0.6229
  193DOPC   H7X23901   0.937   1.879  11.550 -1.6421  1.9677 -0.1223
  193DOPC   H7Y23902   1.087   1.950  11.496  0.0831 -0.0820  0.4038
  193DOPC   C3823903   0.918   2.087  11.535 -0.0865 -0.8745  0.8578
  193DOPC   H8X23904   0.808   2.091  11.521  0.0915  3.9718 -1.0543
  193DOPC   H8Y23905   0.956   2.166  11.467  1.3515 -3.4785 -1.5706
  193DOPC   C3923906   0.939   2.112  11.683  0.0319 -0.7835 -0.3679
  193DOPC   H9X23907   0.905   2.028  11.745 -1.5165  0.3714  0.4268
  193DOPC  C31023908   0.984   2.219  11.753 -0.1471 -0.3552 -0.0546
  193DOPC  H10X23909   0.991   2.204  11.862  0.0826  2.7017  0.4531
  193DOPC  C31123910   1.030   2.359  11.708 -0.1875 -0.1119 -0.1216
  193DOPC  H11X23911   1.027   2.358  11.597  1.4993 -1.6293 -0.1999
  193DOPC  H11Y23912   1.135   2.372  11.740 -0.2303 -1.4629  0.6613
  193DOPC  C31223913   0.940   2.475  11.754  0.2268 -0.0605 -0.2379
  193DOPC  H12X23914   0.833   2.449  11.739  0.6881 -1.7085 -0.9890
  193DOPC  H12Y23915   0.962   2.561  11.687 -1.2856  0.5884  0.0494
  193DOPC  C31323916   0.956   2.519  11.903 -0.0899  0.6456  1.1155
  193DOPC  H13X23917   0.934   2.438  11.975 -1.1555  0.1339  0.2275
  193DOPC  H13Y23918   1.058   2.556  11.926  1.1660 -2.3488  0.7926
  193DOPC  C31423919   0.860   2.635  11.940 -0.1976 -0.0067 -0.3483
  193DOPC  H14X23920   0.867   2.715  11.863 -0.0718  1.2865  0.9737
  193DOPC  H14Y23921   0.755   2.600  11.944  0.0089 -0.6167 -0.2151
  193DOPC  C31523922   0.889   2.695  12.073  0.5554 -0.4081 -0.4517
  193DOPC  H15X23923   0.998   2.716  12.069  0.6729 -1.1152 -2.2321
  193DOPC  H15Y23924   0.868   2.631  12.161  2.7560  0.4072  0.7486
  193DOPC  C31623925   0.835   2.840  12.100  0.6409 -0.3531 -0.3756
  193DOPC  H16X23926   0.891   2.876  12.189 -0.7356 -2.1991  1.3398
  193DOPC  H16Y23927   0.835   2.912  12.015 -1.7998  1.8613  1.3132
  193DOPC  C31723928   0.682   2.841  12.137  0.8606 -0.2886 -0.5732
  193DOPC  H17X23929   0.653   2.948  12.147 -1.0511 -0.8481  0.5838
  193DOPC  H17Y23930   0.623   2.811  12.048 -1.4688  0.2728  0.6942
  193DOPC  C31823931   0.633   2.763  12.262 -0.2302  0.2938  0.8482
  193DOPC  H18X23932   0.530   2.791  12.296 -1.0900 -0.9461 -0.6077
  193DOPC  H18Y23933   0.642   2.655  12.241 -1.9890  0.3990 -0.7346
  193DOPC  H18Z23934   0.703   2.787  12.344 -1.9019  1.8503  1.9249
  194DOPC     N23935   2.686   6.196   9.499 -0.2440 -0.6900 -0.4595
  194DOPC   C1223936   2.805   6.228   9.587  0.0312  0.3260 -0.0347
  194DOPC  H12A23937   2.860   6.139   9.613 -0.7059  0.4897  2.2501
  194DOPC  H12B23938   2.770   6.260   9.684  1.2253  1.1106  0.1568
  194DOPC   C1323939   2.743   6.135   9.379  0.0248 -0.2998  0.3333
  194DOPC  H13A23940   2.676   6.127   9.295 -0.3512  1.4009  0.4302
  194DOPC  H13B23941   2.840   6.177   9.355  0.7343 -0.3142  2.8658
  194DOPC  H13C23942   2.776   6.037   9.410  0.5798 -0.7472 -1.5386
  194DOPC   C1423943   2.619   6.326   9.462  0.3544  0.6694  0.2207
  194DOPC  H14A23944   2.554   6.349   9.545  1.3077  0.9620  0.9155
  194DOPC  H14B23945   2.698   6.400   9.464  1.1940 -0.1792 -0.4262
  194DOPC  H14C23946   2.572   6.327   9.365  2.5868  0.4893 -0.9436
  194DOPC   C1523947   2.578   6.112   9.561 -1.1020 -0.6252 -0.3393
  194DOPC  H15A23948   2.535   6.168   9.643 -1.4223 -1.4562  0.0786
  194DOPC  H15B23949   2.617   6.018   9.598  1.1262  0.8976  1.4663
  194DOPC  H15C23950   2.498   6.100   9.489 -0.9388  0.1241 -0.6514
  194DOPC   C1123951   2.908   6.325   9.535  0.4333  0.7662  0.2752
  194DOPC  H11A23952   3.006   6.325   9.588 -0.0179  1.7412  1.1548
  194DOPC  H11B23953   2.946   6.285   9.439 -1.0617 -4.0002  1.4054
  194DOPC     P23954   2.958   6.579   9.505  0.0971  0.1690  0.2428
  194DOPC   O1323955   2.893   6.703   9.534 -0.3730  0.0170  0.0103
  194DOPC   O1423956   3.032   6.577   9.371  0.1948 -0.1474  0.2742
  194DOPC   O1223957   2.858   6.458   9.520 -0.2434  0.6042  0.3660
  194DOPC   O1123958   3.064   6.560   9.615 -0.0505  0.0396 -0.4875
  194DOPC    C123959   3.031   6.545   9.751 -0.1799  0.0724  0.0067
  194DOPC    HA23960   3.111   6.493   9.809 -0.0644 -0.8969 -1.0024
  194DOPC    HB23961   2.932   6.498   9.765 -0.5806  1.1093  0.8123
  194DOPC    C223962   3.029   6.688   9.822  0.7603 -0.1963 -0.8316
  194DOPC    HS23963   2.955   6.747   9.764 -1.5392  0.3871  2.3771
  194DOPC   O2123964   3.163   6.742   9.807 -0.0960  0.1508 -0.4149
  194DOPC   C2123965   3.163   6.872   9.776 -0.6402 -0.6144  0.1920
  194DOPC   O2223966   3.069   6.946   9.754 -0.4502 -0.2195  0.2146
  194DOPC   C2223967   3.305   6.928   9.793 -0.6625  0.5619 -0.5751
  194DOPC   H2R23968   3.326   6.994   9.706 -0.8732 -0.3155 -1.3104
  194DOPC   H2S23969   3.376   6.842   9.791 -1.2406  0.0876 -0.7369
  194DOPC    C323970   2.985   6.681   9.973  0.4253 -1.3008  0.1447
  194DOPC    HX23971   3.072   6.644  10.031  1.1546 -2.0310 -1.3579
  194DOPC    HY23972   2.897   6.614   9.989 -1.3042  0.3213 -1.9684
  194DOPC   O3123973   2.964   6.816  10.016 -0.2853 -0.8692 -0.8089
  194DOPC   C3123974   2.843   6.880   9.998 -0.6050  0.2086 -0.2152
  194DOPC   O3223975   2.751   6.829   9.938  0.4464 -0.0254  0.4264
  194DOPC   C3223976   2.840   7.012  10.066 -0.5966 -0.9369 -0.5125
  194DOPC   H2X23977   2.933   7.027  10.127 -1.6264  2.0302  0.5265
  194DOPC   H2Y23978   2.837   7.097   9.996 -0.4821 -1.7130 -1.4755
  194DOPC   C2323979   3.315   7.004   9.930 -0.6550 -0.0691 -0.0857
  194DOPC   H3R23980   3.238   7.083   9.935 -0.3121  0.1682  2.4882
  194DOPC   H3S23981   3.417   7.049   9.931 -0.8093  0.3036 -0.6772
  194DOPC   C2423982   3.304   6.918  10.054  0.1097 -0.9571  0.4039
  194DOPC   H4R23983   3.351   6.817  10.052 -1.4513 -1.7435  1.1928
  194DOPC   H4S23984   3.196   6.901  10.075 -0.1309 -0.1258 -0.1226
  194DOPC   C2523985   3.359   6.996  10.178 -0.2960 -0.0305 -0.4058
  194DOPC   H5R23986   3.295   7.087  10.177  1.1544  1.0196 -0.1264
  194DOPC   H5S23987   3.462   7.035  10.165 -0.3329 -0.1952 -1.2580
  194DOPC   C2623988   3.346   6.926  10.314  0.4814 -0.4477  0.3129
  194DOPC   H6R23989   3.364   7.009  10.386 -1.9088  2.0609 -1.7276
  194DOPC   H6S23990   3.415   6.841  10.330 -0.0460 -0.5437  2.4147
  194DOPC   C2723991   3.203   6.866  10.342 -0.4052  0.1498  0.2432
  194DOPC   H7R23992   3.206   6.761  10.305 -0.1692  0.8901 -1.9740
  194DOPC   H7S23993   3.122   6.921  10.290 -2.0970 -1.0167  1.5210
  194DOPC   C2823994   3.154   6.873  10.486 -0.6839  0.4799  0.2687
  194DOPC   H8R23995   3.128   6.977  10.514  0.4453  1.4930 -2.1120
  194DOPC   H8S23996   3.226   6.824  10.554 -0.5910  0.8178  0.4160
  194DOPC   C2923997   3.025   6.788  10.484 -0.1488  0.1612 -1.0314
  194DOPC   H9R23998   2.957   6.804  10.400 -0.0053 -0.2113 -1.2221
  194DOPC  C21023999   2.984   6.697  10.578 -0.1150 -0.5847  0.0159
  194DOPC  H10R24000   2.887   6.645  10.572  0.0742 -1.1024  1.2494
  194DOPC  C21124001   3.059   6.668  10.704 -0.1395 -0.0448 -0.2515
  194DOPC  H11R24002   3.168   6.656  10.685 -0.2750 -2.3599  0.2042
  194DOPC  H11S24003   3.026   6.568  10.740  2.2679 -1.4354 -1.6270
  194DOPC  C21224004   3.054   6.777  10.809 -0.6409  0.6869  0.3817
  194DOPC  H12R24005   2.947   6.807  10.808 -0.2819  2.2327 -2.5703
  194DOPC  H12S24006   3.114   6.869  10.794 -0.5461  0.9409  2.1209
  194DOPC  C21324007   3.074   6.714  10.947 -0.3227 -0.6133 -0.8400
  194DOPC  H13R24008   3.162   6.646  10.940  0.9256  1.0726 -2.2490
  194DOPC  H13S24009   2.986   6.646  10.957 -2.1053  1.5493 -1.0020
  194DOPC  C21424010   3.069   6.812  11.066 -0.0226  0.1397 -0.4882
  194DOPC  H14R24011   2.972   6.866  11.059 -0.5115 -0.3768  1.6252
  194DOPC  H14S24012   3.149   6.889  11.067  0.5877 -0.4915 -0.1917
  194DOPC  C21524013   3.058   6.743  11.204 -0.1990 -0.2570  0.1369
  194DOPC  H15R24014   2.983   6.662  11.205 -1.2075  0.6510  0.8955
  194DOPC  H15S24015   3.032   6.815  11.284  1.4883 -0.3550  0.8094
  194DOPC  C21624016   3.193   6.674  11.252  0.3907  0.3050  0.3669
  194DOPC  H16R24017   3.225   6.602  11.174 -0.6195  0.8843 -0.6058
  194DOPC  H16S24018   3.172   6.618  11.346 -0.5510 -0.0360 -0.0363
  194DOPC  C21724019   3.302   6.776  11.284 -0.1238 -0.2239 -0.1396
  194DOPC  H17R24020   3.262   6.832  11.371  0.5705 -0.1797  0.1545
  194DOPC  H17S24021   3.327   6.834  11.193  1.9643 -2.8472 -1.4025
  194DOPC  C21824022   3.432   6.711  11.327  0.1793 -0.1144 -0.4982
  194DOPC  H18R24023   3.466   6.641  11.248 -0.1938  1.1492 -1.8231
  194DOPC  H18S24024   3.421   6.671  11.430 -2.6641  2.0931  0.1783
  194DOPC  H18T24025   3.515   6.784  11.340 -0.1497 -0.1370  2.4567
  194DOPC   C3324026   2.726   7.019  10.171  0.2563  1.3897  0.0726
  194DOPC   H3X24027   2.629   7.033  10.119  0.2059  0.0159 -0.2380
  194DOPC   H3Y24028   2.748   7.104  10.239 -0.3743  2.5839 -1.1705
  194DOPC   C3424029   2.703   6.892  10.260  0.0135 -0.4138  0.1118
  194DOPC   H4X24030   2.796   6.869  10.315  0.9320  0.3832 -1.0582
  194DOPC   H4Y24031   2.676   6.805  10.197  2.9256 -1.1359 -0.2344
  194DOPC   C3524032   2.592   6.913  10.364 -0.3105  0.7262  0.2645
  194DOPC   H5X24033   2.490   6.923  10.321  0.3501  2.0812 -1.1037
  194DOPC   H5Y24034   2.614   7.019  10.389 -0.0809  1.1262 -1.5082
  194DOPC   C3624035   2.608   6.823  10.487 -0.1549  0.3736  0.4157
  194DOPC   H6X24036   2.511   6.797  10.533 -0.1056 -0.1003  0.2538
  194DOPC   H6Y24037   2.663   6.729  10.468  3.0986  2.2824 -0.4005
  194DOPC   C3724038   2.691   6.890  10.599 -0.1246 -0.5996 -0.6000
  194DOPC   H7X24039   2.722   6.819  10.678  1.3497  1.9129  1.2068
  194DOPC   H7Y24040   2.782   6.936  10.556  0.5106  0.5953  1.8700
  194DOPC   C3824041   2.597   6.998  10.662 -0.0366 -0.4966  0.2486
  194DOPC   H8X24042   2.518   6.930  10.702 -0.0799 -0.8121 -0.3638
  194DOPC   H8Y24043   2.564   7.063  10.579  1.0886 -0.0142  0.1692
  194DOPC   C3924044   2.671   7.076  10.769  0.4273 -0.1503  0.8476
  194DOPC   H9X24045   2.723   7.164  10.729  0.0434 -0.7723 -1.0860
  194DOPC  C31024046   2.712   7.027  10.885  0.1811 -0.7008  0.3586
  194DOPC  H10X24047   2.772   7.093  10.949 -0.1062  0.1292 -0.2101
  194DOPC  C31124048   2.672   6.891  10.940 -0.1491  0.9230 -0.2522
  194DOPC  H11X24049   2.747   6.811  10.923 -1.9309 -0.5756 -1.3039
  194DOPC  H11Y24050   2.584   6.847  10.889 -0.5614  0.7627  0.5787
  194DOPC  C31224051   2.642   6.892  11.091 -0.6892 -0.1367 -0.3072
  194DOPC  H12X24052   2.729   6.930  11.149 -0.0075  1.4491 -2.2508
  194DOPC  H12Y24053   2.609   6.793  11.128  2.1829 -0.2571  2.4003
  194DOPC  C31324054   2.530   6.987  11.120  0.2467  0.5832  0.4267
  194DOPC  H13X24055   2.554   7.093  11.098  2.8128 -0.1833 -0.7757
  194DOPC  H13Y24056   2.459   6.964  11.037 -1.2781 -0.1798  1.8742
  194DOPC  C31424057   2.450   6.972  11.251 -0.1740 -0.1573 -1.1252
  194DOPC  H14X24058   2.350   7.021  11.240 -1.1582 -2.2425 -1.9776
  194DOPC  H14Y24059   2.422   6.865  11.261  0.6388 -0.3864 -1.2439
  194DOPC  C31524060   2.528   7.024  11.369  0.0777 -0.5380  0.3342
  194DOPC  H15X24061   2.456   7.084  11.429  0.9350  1.3775 -0.4728
  194DOPC  H15Y24062   2.613   7.088  11.337  1.8023 -2.1440  1.4648
  194DOPC  C31624063   2.582   6.922  11.470  0.9011 -0.2012  0.3731
  194DOPC  H16X24064   2.612   6.974  11.563 -0.6448 -0.6805  1.1614
  194DOPC  H16Y24065   2.509   6.845  11.501 -0.0801 -0.2252 -1.8022
  194DOPC  C31724066   2.709   6.851  11.431 -0.6207 -0.6771  0.5681
  194DOPC  H17X24067   2.702   6.796  11.335  3.3525 -1.1498  0.4117
  194DOPC  H17Y24068   2.780   6.934  11.413 -0.6873 -0.9416 -1.0355
  194DOPC  C31824069   2.755   6.768  11.545 -0.9956  0.4574  0.3886
  194DOPC  H18X24070   2.860   6.738  11.522 -1.0328  0.1519  0.6112
  194DOPC  H18Y24071   2.748   6.832  11.635 -1.2014  0.6072  0.2678
  194DOPC  H18Z24072   2.703   6.671  11.562  2.1627 -2.1421 -2.8654
  195DOPC     N24073   0.041   0.281   9.194 -0.2848  0.1640  0.2182
  195DOPC   C1224074   0.034   0.293   9.344 -0.7724  0.0006 -0.4603
  195DOPC  H12A24075   0.060   0.200   9.392  0.7203  0.9916  0.7694
  195DOPC  H12B24076  -0.068   0.317   9.371 -0.5915  0.6935 -0.3629
  195DOPC   C1324077  -0.057   0.372   9.129  0.0142 -0.3264  0.0708
  195DOPC  H13A24078  -0.152   0.361   9.179 -1.4172  2.3121 -1.8101
  195DOPC  H13B24079  -0.029   0.477   9.133 -0.3142 -0.0472 -2.8175
  195DOPC  H13C24080  -0.076   0.346   9.026  0.8605 -0.8246  0.0368
  195DOPC   C1424081  -0.001   0.144   9.142 -0.1823 -0.0869  0.4389
  195DOPC  H14A24082   0.004   0.144   9.035 -1.6456  0.0008  0.3581
  195DOPC  H14B24083   0.073   0.078   9.186  1.9540  1.3578 -0.7633
  195DOPC  H14C24084  -0.100   0.114   9.173 -1.1595 -0.3296 -2.6361
  195DOPC   C1524085   0.178   0.308   9.128  0.3714  0.0875  0.4616
  195DOPC  H15A24086   0.180   0.291   9.021 -0.4368  1.8200  0.1347
  195DOPC  H15B24087   0.255   0.247   9.171  0.4253 -1.7542 -2.0267
  195DOPC  H15C24088   0.208   0.411   9.139 -0.2309  0.1986  1.1664
  195DOPC   C1124089   0.120   0.399   9.419  0.0668  0.2090  0.0740
  195DOPC  H11A24090   0.096   0.503   9.388  0.6730  0.3110 -0.0731
  195DOPC  H11B24091   0.092   0.414   9.525  3.3203  2.5887  0.7597
  195DOPC     P24092   0.313   0.226   9.469  0.3832 -0.1285 -0.1541
  195DOPC   O1324093   0.395   0.158   9.369  0.0131 -0.0045 -0.3560
  195DOPC   O1424094   0.209   0.146   9.538  0.4698  0.3186  0.3851
  195DOPC   O1224095   0.254   0.361   9.412 -0.4099 -0.2929  0.4667
  195DOPC   O1124096   0.409   0.277   9.579 -0.2007 -0.2513  0.2854
  195DOPC    C124097   0.388   0.376   9.673 -0.3265  0.5578  0.2599
  195DOPC    HA24098   0.326   0.459   9.632  0.4529  0.3450 -1.4361
  195DOPC    HB24099   0.485   0.427   9.689  0.1018  0.3422 -1.4852
  195DOPC    C224100   0.349   0.317   9.812  0.2645  0.1275 -0.6234
  195DOPC    HS24101   0.242   0.289   9.820  0.7444 -2.4071 -1.7500
  195DOPC   O2124102   0.382   0.408   9.916  0.0469 -0.3513 -0.0880
  195DOPC   C2124103   0.283   0.449   9.995 -0.3314 -0.3272 -0.7603
  195DOPC   O2224104   0.163   0.432   9.984 -0.2214 -0.0521  0.0547
  195DOPC   C2224105   0.353   0.549  10.097 -0.0347 -0.4002  0.4742
  195DOPC   H2R24106   0.425   0.620  10.050  0.3338 -2.0616 -1.6201
  195DOPC   H2S24107   0.411   0.484  10.166 -1.0130  0.6294  2.3520
  195DOPC    C324108   0.411   0.183   9.833  0.9973  0.6029 -0.2929
  195DOPC    HX24109   0.521   0.195   9.833  1.2661 -1.4616 -0.5812
  195DOPC    HY24110   0.395   0.111   9.750 -2.2355  3.5229 -2.4646
  195DOPC   O3124111   0.381   0.127   9.961  0.2257  0.3751 -0.5126
  195DOPC   C3124112   0.265   0.059   9.979  0.7764 -0.2027 -0.3298
  195DOPC   O3224113   0.177   0.055   9.893 -0.2526  0.3200  0.1120
  195DOPC   C3224114   0.259  -0.007  10.119 -0.0221  0.2394  0.4900
  195DOPC   H2X24115   0.245  -0.117  10.118  0.2291  0.2039 -0.9756
  195DOPC   H2Y24116   0.362  -0.008  10.161 -0.7054 -1.6241  2.3521
  195DOPC   C2324117   0.260   0.638  10.178 -0.3473  0.1715  0.2717
  195DOPC   H3R24118   0.157   0.596  10.175 -0.2092 -0.1349 -0.2842
  195DOPC   H3S24119   0.241   0.734  10.126 -0.9404  0.2643  0.6429
  195DOPC   C2424120   0.314   0.648  10.327 -0.3583 -0.9321  0.5287
  195DOPC   H4R24121   0.419   0.683  10.317 -1.2130  1.3195 -1.2899
  195DOPC   H4S24122   0.307   0.550  10.379  0.8604 -0.4291  1.7029
  195DOPC   C2524123   0.230   0.761  10.398  0.2091 -0.0606 -0.0038
  195DOPC   H5R24124   0.124   0.728  10.406 -0.2690  1.5046  0.6285
  195DOPC   H5S24125   0.227   0.854  10.337  1.2539  0.2366  0.3712
  195DOPC   C2624126   0.280   0.787  10.548 -0.2470  0.0182  0.1091
  195DOPC   H6R24127   0.367   0.857  10.549  1.4175 -1.9415  0.2018
  195DOPC   H6S24128   0.307   0.696  10.605 -0.8049  0.8919  1.8203
  195DOPC   C2724129   0.164   0.844  10.628  0.1874 -0.1167 -0.2297
  195DOPC   H7R24130   0.081   0.771  10.622 -0.4984  0.5785  0.5141
  195DOPC   H7S24131   0.126   0.939  10.585  0.5333  0.9696  1.7538
  195DOPC   C2824132   0.200   0.865  10.778 -0.2744  0.2979 -0.4457
  195DOPC   H8R24133   0.290   0.931  10.773  0.4786 -0.7859 -2.2406
  195DOPC   H8S24134   0.231   0.771  10.828  0.2384  2.2001  3.2077
  195DOPC   C2924135   0.095   0.934  10.857  0.3895 -0.0996  0.5623
  195DOPC   H9R24136  -0.004   0.935  10.810  0.1035  2.8173  0.9804
  195DOPC  C21024137   0.104   0.994  10.979 -0.0333 -0.2607 -0.1535
  195DOPC  H10R24138   0.013   1.028  11.030 -0.8518 -1.1261 -0.9715
  195DOPC  C21124139   0.222   0.997  11.079  1.2683 -0.6169  0.2938
  195DOPC  H11R24140   0.260   1.101  11.089 -0.2345  0.2277 -2.0961
  195DOPC  H11S24141   0.304   0.955  11.017  1.1136 -0.3165 -0.1175
  195DOPC  C21224142   0.211   0.921  11.211 -0.2771 -0.2766 -0.6199
  195DOPC  H12R24143   0.312   0.897  11.252 -0.0159 -2.7352 -2.5119
  195DOPC  H12S24144   0.175   0.820  11.185  1.2211 -0.3186 -2.8418
  195DOPC  C21324145   0.132   0.995  11.324 -0.0451 -0.0286 -0.0158
  195DOPC  H13R24146   0.030   1.027  11.292  0.1146  0.7213  0.2111
  195DOPC  H13S24147   0.180   1.092  11.349 -0.7376  0.8884 -2.0286
  195DOPC  C21424148   0.125   0.911  11.450  0.1077  0.1367  0.1117
  195DOPC  H14R24149   0.217   0.917  11.512  1.2721 -0.4820 -1.5051
  195DOPC  H14S24150   0.111   0.803  11.426 -0.5441 -0.2484  2.0378
  195DOPC  C21524151   0.015   0.945  11.554 -0.2413  0.1770 -0.4291
  195DOPC  H15R24152   0.016   0.872  11.638 -0.6255  2.8276  2.0287
  195DOPC  H15S24153  -0.088   0.943  11.511 -1.1016 -4.4557  1.3255
  195DOPC  C21624154   0.031   1.087  11.617  0.1082  0.6705 -0.5323
  195DOPC  H16R24155   0.022   1.152  11.527  0.3399  1.7943  0.2411
  195DOPC  H16S24156   0.137   1.089  11.650  0.6717 -0.7517 -2.1050
  195DOPC  C21724157  -0.072   1.127  11.726 -0.4838  0.6443 -0.1974
  195DOPC  H17R24158  -0.033   1.217  11.778  3.1235 -0.8449 -0.0041
  195DOPC  H17S24159  -0.083   1.038  11.792 -0.2806  0.4377 -0.4396
  195DOPC  C21824160  -0.213   1.155  11.666 -0.0952 -0.6514 -0.7314
  195DOPC  H18R24161  -0.209   1.203  11.566 -0.9785  2.2332  0.5083
  195DOPC  H18S24162  -0.270   1.219  11.736  0.9083 -1.2825  0.7182
  195DOPC  H18T24163  -0.270   1.061  11.661  1.1637 -1.5021  0.1629
  195DOPC   C3324164   0.172   0.065  10.222 -0.8805 -0.0702 -0.8426
  195DOPC   H3X24165   0.064   0.049  10.200 -0.7129 -1.2167 -0.9061
  195DOPC   H3Y24166   0.194   0.173  10.231 -2.1920  0.0811  1.8972
  195DOPC   C3424167   0.176   0.010  10.367 -0.3179  0.8588 -0.0474
  195DOPC   H4X24168   0.281   0.005  10.403  0.4871 -1.4570 -2.3892
  195DOPC   H4Y24169   0.150  -0.097  10.350  1.5382  0.3303  0.2403
  195DOPC   C3524170   0.075   0.069  10.458  0.2299 -0.5455  0.2942
  195DOPC   H5X24171  -0.026   0.045  10.419 -1.0461  2.5237  1.3289
  195DOPC   H5Y24172   0.082   0.180  10.450 -0.8208 -0.4693  0.2565
  195DOPC   C3624173   0.100   0.032  10.607 -0.7396  0.0962  0.2426
  195DOPC   H6X24174   0.137  -0.072  10.621 -0.4408  0.1181 -0.3488
  195DOPC   H6Y24175   0.191   0.085  10.642  0.8589 -0.6672 -2.4799
  195DOPC   C3724176  -0.022   0.055  10.692  0.1772  0.3978  0.2746
  195DOPC   H7X24177   0.008   0.052  10.799 -0.3618  1.8442  0.4879
  195DOPC   H7Y24178  -0.068   0.152  10.664  1.4067  1.4001  1.5789
  195DOPC   C3824179  -0.129  -0.059  10.670  0.2676 -0.0106 -0.1698
  195DOPC   H8X24180  -0.082  -0.155  10.698 -4.4225 -2.8965 -1.0876
  195DOPC   H8Y24181  -0.171  -0.068  10.567  1.3291  0.5443 -0.6634
  195DOPC   C3924182  -0.257  -0.042  10.760 -1.0425 -0.1678 -0.1955
  195DOPC   H9X24183  -0.338   0.011  10.707 -1.0741  0.2633  0.2822
  195DOPC  C31024184  -0.259  -0.047  10.893  0.3097 -0.1977 -0.1808
  195DOPC  H10X24185  -0.347  -0.003  10.942  0.0063 -1.0750  0.0814
  195DOPC  C31124186  -0.151  -0.111  10.978 -0.0979 -0.1353  0.3824
  195DOPC  H11X24187  -0.097  -0.031  11.033  1.5626 -0.3332 -0.8630
  195DOPC  H11Y24188  -0.071  -0.153  10.913  0.7473  0.2450  1.1426
  195DOPC  C31224189  -0.190  -0.221  11.076  0.2269  0.1371 -0.7240
  195DOPC  H12X24190  -0.292  -0.259  11.057 -0.0615 -0.2674  1.3914
  195DOPC  H12Y24191  -0.205  -0.181  11.179  1.5975 -2.2502  0.4969
  195DOPC  C31324192  -0.079  -0.320  11.106 -0.1471 -0.4579  0.0911
  195DOPC  H13X24193  -0.051  -0.368  11.010  1.5702 -1.2107  0.9422
  195DOPC  H13Y24194   0.008  -0.259  11.139  0.4691 -1.9463  1.3407
  195DOPC  C31424195  -0.102  -0.420  11.215  0.0211  0.2282  0.0969
  195DOPC  H14X24196  -0.204  -0.462  11.205  1.0636 -2.0795 -1.7322
  195DOPC  H14Y24197  -0.044  -0.511  11.191  0.2650  0.3693  0.1495
  195DOPC  C31524198  -0.067  -0.371  11.353  0.0313  0.6310 -0.6168
  195DOPC  H15X24199  -0.115  -0.273  11.375 -0.1123  0.0787  1.7359
  195DOPC  H15Y24200   0.043  -0.358  11.358 -0.1285  1.6532  1.6330
  195DOPC  C31624201  -0.112  -0.464  11.477 -0.4882 -0.7289 -0.4023
  195DOPC  H16X24202  -0.218  -0.491  11.461  0.0041 -1.9225 -1.9377
  195DOPC  H16Y24203  -0.043  -0.551  11.474  1.0634  0.3458  1.8585
  195DOPC  C31724204  -0.087  -0.384  11.611  0.7396  0.6163  0.7511
  195DOPC  H17X24205  -0.135  -0.286  11.591  1.6639  0.4990 -2.8853
  195DOPC  H17Y24206  -0.138  -0.431  11.697 -0.7502  0.5283 -0.1476
  195DOPC  C31824207   0.065  -0.347  11.637 -0.0080 -0.3084  0.0884
  195DOPC  H18X24208   0.099  -0.273  11.563  1.0339 -1.7273 -0.9123
  195DOPC  H18Y24209   0.074  -0.297  11.736  1.6251 -0.4867  0.0631
  195DOPC  H18Z24210   0.133  -0.434  11.621  1.3090  0.7115 -0.0238
  196DOPC     N24211   1.419   1.130   9.491  0.3053 -0.2671  0.0364
  196DOPC   C1224212   1.503   1.152   9.613 -0.4659 -0.5978  0.9274
  196DOPC  H12A24213   1.524   1.257   9.623  1.2693 -1.0995  3.8466
  196DOPC  H12B24214   1.603   1.114   9.606 -0.1106  0.6346 -2.7179
  196DOPC   C1324215   1.303   1.224   9.480 -0.7263  0.6013  0.3687
  196DOPC  H13A24216   1.227   1.194   9.409 -0.3184 -1.6657  0.8282
  196DOPC  H13B24217   1.248   1.225   9.573 -0.6587 -0.9253  0.4408
  196DOPC  H13C24218   1.341   1.324   9.464 -0.4780  0.9088  2.6595
  196DOPC   C1424219   1.374   0.988   9.487 -0.5401 -0.0428  0.5985
  196DOPC  H14A24220   1.300   0.970   9.563 -0.4008  0.3396  0.8316
  196DOPC  H14B24221   1.328   0.972   9.391  0.4862 -0.1793  0.1124
  196DOPC  H14C24222   1.456   0.919   9.497 -1.1801 -0.5917  2.3890
  196DOPC   C1524223   1.506   1.158   9.376 -0.6616  0.0931  0.8118
  196DOPC  H15A24224   1.592   1.093   9.370  0.2837  1.1709  2.1501
  196DOPC  H15B24225   1.545   1.259   9.375 -2.8225  0.9749  0.3475
  196DOPC  H15C24226   1.450   1.142   9.285 -2.5931 -1.5065  2.2047
  196DOPC   C1124227   1.436   1.108   9.743 -0.4593  0.2455  0.5546
  196DOPC  H11A24228   1.420   0.999   9.729  1.9421 -0.0056 -0.7449
  196DOPC  H11B24229   1.503   1.125   9.830  0.3046  1.0374 -0.1699
  196DOPC     P24230   1.209   1.116   9.848  0.0907 -0.0723 -0.2017
  196DOPC   O1324231   1.147   1.000   9.771  0.1504  0.0348 -0.3699
  196DOPC   O1424232   1.116   1.228   9.885  0.0404  0.1867 -0.0960
  196DOPC   O1224233   1.318   1.185   9.761 -0.7950 -0.1851 -0.3233
  196DOPC   O1124234   1.284   1.071   9.979  0.0204 -0.1196  0.4027
  196DOPC    C124235   1.235   1.052  10.104  0.7063 -0.5494 -0.9960
  196DOPC    HA24236   1.244   0.949  10.144  0.8756  0.3377  1.4203
  196DOPC    HB24237   1.132   1.092  10.115  0.1004 -1.4656 -2.9245
  196DOPC    C224238   1.310   1.146  10.205  0.1051  0.0995  0.5857
  196DOPC    HS24239   1.417   1.119  10.193 -0.8980 -3.7114 -1.4045
  196DOPC   O2124240   1.262   1.108  10.330 -0.1952  0.3356 -0.0482
  196DOPC   C2124241   1.351   1.101  10.428  0.2172 -0.1575 -0.5049
  196DOPC   O2224242   1.474   1.109  10.416  0.0270  0.0226  0.2187
  196DOPC   C2224243   1.287   1.091  10.573 -0.1704  0.2652 -0.1887
  196DOPC   H2R24244   1.312   0.991  10.615  0.4159  1.3905  2.3663
  196DOPC   H2S24245   1.177   1.100  10.562 -0.6035 -3.3143  0.3132
  196DOPC    C324246   1.278   1.297  10.181 -0.4758  0.0330  0.5273
  196DOPC    HX24247   1.167   1.300  10.180 -0.5565 -1.8278 -0.5277
  196DOPC    HY24248   1.312   1.324  10.078  0.3427 -2.1015  0.1861
  196DOPC   O3124249   1.333   1.370  10.296 -0.7949 -0.9249 -0.1856
  196DOPC   C3124250   1.462   1.402  10.294 -0.0326 -0.1216 -0.1519
  196DOPC   O3224251   1.533   1.385  10.200 -0.3940 -0.3046  0.0365
  196DOPC   C3224252   1.510   1.464  10.423 -0.4779 -0.1147 -0.4719
  196DOPC   H2X24253   1.535   1.568  10.393  0.6532 -0.5161 -0.9862
  196DOPC   H2Y24254   1.426   1.456  10.495  0.1870  1.0145  0.4602
  196DOPC   C2324255   1.330   1.202  10.671 -0.2394 -0.4290 -0.3739
  196DOPC   H3R24256   1.372   1.293  10.623  0.6626  0.6277  2.1957
  196DOPC   H3S24257   1.410   1.177  10.744  1.2543 -3.8443 -2.9402
  196DOPC   C2424258   1.208   1.260  10.749  0.5240 -0.9707 -0.1863
  196DOPC   H4R24259   1.132   1.291  10.674 -1.6677 -0.3587  2.1181
  196DOPC   H4S24260   1.252   1.348  10.802 -1.0213 -0.1119 -0.2470
  196DOPC   C2524261   1.130   1.168  10.849  0.3632  0.0669  0.2851
  196DOPC   H5R24262   1.087   1.085  10.787  0.8401  0.0050  0.0343
  196DOPC   H5S24263   1.045   1.223  10.895 -1.3442 -0.9550 -1.4646
  196DOPC   C2624264   1.214   1.107  10.955 -0.5566  0.3506 -0.4595
  196DOPC   H6R24265   1.291   1.167  11.008  0.3153 -0.0677 -1.2129
  196DOPC   H6S24266   1.266   1.020  10.910 -0.2277  0.5530 -0.4745
  196DOPC   C2724267   1.116   1.044  11.060 -0.4604  0.0082  0.0961
  196DOPC   H7R24268   1.025   0.994  11.021  1.2995 -3.1578 -0.2999
  196DOPC   H7S24269   1.089   1.132  11.122 -1.6899  1.1511 -1.9217
  196DOPC   C2824270   1.177   0.943  11.149  0.0900  0.8636 -0.3184
  196DOPC   H8R24271   1.203   0.861  11.078 -0.2396 -1.9911  2.5876
  196DOPC   H8S24272   1.097   0.900  11.214 -0.2590  1.8050 -0.1124
  196DOPC   C2924273   1.290   0.983  11.232 -0.4037  0.1102  0.2690
  196DOPC   H9R24274   1.388   0.941  11.206 -1.1226 -1.4351 -0.0594
  196DOPC  C21024275   1.264   1.037  11.352 -0.1156 -0.8110 -0.6790
  196DOPC  H10R24276   1.344   1.080  11.414 -0.4854  0.5303 -1.1099
  196DOPC  C21124277   1.127   1.073  11.396  0.5550 -0.0741 -0.1292
  196DOPC  H11R24278   1.069   0.978  11.401 -0.9459  0.7577 -0.9191
  196DOPC  H11S24279   1.080   1.152  11.333 -0.1400  0.8774  1.5136
  196DOPC  C21224280   1.148   1.129  11.533  0.0657 -0.3619  0.3648
  196DOPC  H12R24281   1.221   1.213  11.538  0.0767 -0.1555 -2.2456
  196DOPC  H12S24282   1.201   1.051  11.592  3.2994  1.4148  0.0162
  196DOPC  C21324283   1.023   1.167  11.601 -0.5459  0.3284 -0.2366
  196DOPC  H13R24284   0.957   1.078  11.590  2.1708 -1.7511 -0.7125
  196DOPC  H13S24285   0.986   1.264  11.560 -0.7498  0.0459 -0.7415
  196DOPC  C21424286   1.048   1.187  11.753  0.4026  0.5956 -0.0299
  196DOPC  H14R24287   1.050   1.085  11.798 -1.6174  0.6247  0.1985
  196DOPC  H14S24288   0.951   1.232  11.782  1.1136  2.0240  0.2230
  196DOPC  C21524289   1.160   1.273  11.792  0.7617 -0.6715  0.4586
  196DOPC  H15R24290   1.183   1.362  11.728  1.0865  0.3122  1.8877
  196DOPC  H15S24291   1.246   1.205  11.775  2.9110  2.1846 -1.2478
  196DOPC  C21624292   1.164   1.308  11.946  0.2396 -0.2601  0.8688
  196DOPC  H16R24293   1.155   1.217  12.008  0.4550  1.2239  3.2324
  196DOPC  H16S24294   1.079   1.375  11.971  0.9212  0.1734  2.1075
  196DOPC  C21724295   1.301   1.366  11.984 -0.3186 -0.7264  0.1308
  196DOPC  H17R24296   1.331   1.446  11.913  1.2442 -0.7910  0.6843
  196DOPC  H17S24297   1.373   1.283  11.968 -1.3513 -1.2637 -2.2417
  196DOPC  C21824298   1.294   1.423  12.121 -0.4951  0.7413 -0.2860
  196DOPC  H18R24299   1.298   1.341  12.196  0.6258 -0.4506 -1.5868
  196DOPC  H18S24300   1.198   1.474  12.145  0.1519  0.3128  3.8184
  196DOPC  H18T24301   1.371   1.502  12.132 -0.6289  1.0609 -1.4192
  196DOPC   C3324302   1.638   1.400  10.491  0.0898  0.4434  0.2861
  196DOPC   H3X24303   1.708   1.400  10.405 -1.6118  1.3281 -1.1608
  196DOPC   H3Y24304   1.619   1.292  10.508  1.3359  0.2773  0.7421
  196DOPC   C3424305   1.681   1.477  10.615  0.0710 -0.2450 -0.4058
  196DOPC   H4X24306   1.673   1.586  10.599  1.8484  0.0559  0.4522
  196DOPC   H4Y24307   1.789   1.471  10.638 -0.7656 -2.6092  4.1962
  196DOPC   C3524308   1.609   1.446  10.745  0.6178 -0.1735 -0.5014
  196DOPC   H5X24309   1.585   1.338  10.742 -0.1693  0.0034 -1.2729
  196DOPC   H5Y24310   1.509   1.495  10.749  0.2082 -1.0580  2.1552
  196DOPC   C3624311   1.701   1.474  10.872 -0.0241 -0.0948  0.6496
  196DOPC   H6X24312   1.786   1.404  10.861  0.3787  0.4705  0.0738
  196DOPC   H6Y24313   1.739   1.578  10.859  0.5272 -0.2340  1.0904
  196DOPC   C3724314   1.636   1.447  11.013 -0.9562  0.0730  0.0235
  196DOPC   H7X24315   1.709   1.473  11.092  0.4173  0.4640 -1.3217
  196DOPC   H7Y24316   1.564   1.532  11.006  0.5656  1.4085 -0.0994
  196DOPC   C3824317   1.563   1.313  11.032 -0.6814  0.0738 -0.1267
  196DOPC   H8X24318   1.483   1.298  10.956 -1.6155  1.3444  0.5754
  196DOPC   H8Y24319   1.505   1.316  11.126 -0.0014 -1.6220  0.3702
  196DOPC   C3924320   1.673   1.204  11.026 -0.1062 -0.2385  0.1767
  196DOPC   H9X24321   1.713   1.174  10.929 -2.2368  1.7958 -1.4468
  196DOPC  C31024322   1.705   1.131  11.142  0.4964 -0.9482  0.6514
  196DOPC  H10X24323   1.791   1.063  11.133  0.6373 -0.5152 -2.8712
  196DOPC  C31124324   1.630   1.139  11.270 -0.4638  0.0852 -0.5064
  196DOPC  H11X24325   1.639   1.043  11.327 -0.8756  0.5105  0.2936
  196DOPC  H11Y24326   1.522   1.149  11.248 -0.1806  2.4856 -1.0784
  196DOPC  C31224327   1.696   1.254  11.355  0.7449 -0.4600  0.3933
  196DOPC  H12X24328   1.684   1.354  11.309  1.2197 -0.3943  0.4023
  196DOPC  H12Y24329   1.805   1.234  11.359  0.7793 -0.3522  0.0236
  196DOPC  C31324330   1.632   1.249  11.497  0.0666  0.0410  0.0816
  196DOPC  H13X24331   1.527   1.284  11.486  0.3758  1.0201  0.0965
  196DOPC  H13Y24332   1.626   1.142  11.525 -1.6519  0.0899  0.0223
  196DOPC  C31424333   1.708   1.317  11.605 -0.0406  0.1270 -0.7231
  196DOPC  H14X24334   1.759   1.402  11.556 -0.8613  0.3028 -1.2875
  196DOPC  H14Y24335   1.641   1.362  11.682  0.1426  0.1696 -0.5879
  196DOPC  C31524336   1.817   1.227  11.657 -0.1328 -0.7473  0.5324
  196DOPC  H15X24337   1.899   1.285  11.704  0.2133 -1.4392  0.8062
  196DOPC  H15Y24338   1.847   1.164  11.570 -4.0449  0.6316 -2.0922
  196DOPC  C31624339   1.762   1.124  11.761 -0.1019 -0.2558  1.1924
  196DOPC  H16X24340   1.673   1.073  11.719 -0.8068  1.9651 -0.1526
  196DOPC  H16Y24341   1.837   1.042  11.769 -0.9520 -1.3827 -1.4130
  196DOPC  C31724342   1.726   1.185  11.901 -0.1844 -0.5143 -0.8876
  196DOPC  H17X24343   1.813   1.231  11.954 -1.2271 -2.1472  2.5381
  196DOPC  H17Y24344   1.658   1.269  11.876 -0.2225 -0.0681  0.6419
  196DOPC  C31824345   1.651   1.094  11.997 -0.5395  0.2893 -0.5167
  196DOPC  H18X24346   1.615   1.156  12.082  1.1991  1.2802 -0.4545
  196DOPC  H18Y24347   1.564   1.045  11.949 -1.2811  1.0864  0.0066
  196DOPC  H18Z24348   1.721   1.015  12.033 -1.9036 -1.0918 -0.7772
  197DOPC     N24349   2.135   5.076   9.534  0.2117 -0.6837  0.0435
  197DOPC   C1224350   2.223   5.091   9.656 -0.1548  0.5959 -0.2107
  197DOPC  H12A24351   2.179   5.171   9.713 -0.7343 -0.6828  1.1960
  197DOPC  H12B24352   2.317   5.138   9.634  1.1386 -0.9223  1.7288
  197DOPC   C1324353   2.186   4.960   9.450  0.1579  0.0495  0.1207
  197DOPC  H13A24354   2.191   4.868   9.507 -0.2776  1.1558  2.0097
  197DOPC  H13B24355   2.114   4.939   9.372 -0.9041 -1.8266  1.4949
  197DOPC  H13C24356   2.284   4.986   9.413  0.1084  0.1015  0.0270
  197DOPC   C1424357   2.137   5.191   9.440 -0.4111  0.1086  0.2981
  197DOPC  H14A24358   2.111   5.283   9.489  0.0537  0.6628 -0.4774
  197DOPC  H14B24359   2.230   5.197   9.385 -1.4526  0.0113 -1.5741
  197DOPC  H14C24360   2.061   5.180   9.364  0.3537  1.7689 -0.7600
  197DOPC   C1524361   1.989   5.064   9.568  1.3739  0.6576 -0.0483
  197DOPC  H15A24362   1.924   5.093   9.486 -1.7343 -0.3045  1.9142
  197DOPC  H15B24363   1.968   5.128   9.652  1.1169  0.6945 -0.1375
  197DOPC  H15C24364   1.965   4.965   9.604  0.1057  1.6327  1.9128
  197DOPC   C1124365   2.245   4.973   9.750 -0.5187  0.0087  0.8192
  197DOPC  H11A24366   2.288   5.008   9.846  2.4080 -1.0257 -0.0124
  197DOPC  H11B24367   2.148   4.922   9.766 -1.0467  0.8103  0.2625
  197DOPC     P24368   2.493   4.903   9.681 -0.4430 -0.3050 -0.3690
  197DOPC   O1324369   2.531   5.048   9.686  0.4966  0.3801  0.2571
  197DOPC   O1424370   2.552   4.820   9.576  0.0336 -0.4811  0.1976
  197DOPC   O1224371   2.338   4.879   9.687  0.3240  0.0686  0.1480
  197DOPC   O1124372   2.550   4.848   9.819 -0.0777 -0.2640  0.0444
  197DOPC    C124373   2.503   4.725   9.876 -0.3318 -0.3565 -0.1514
  197DOPC    HA24374   2.542   4.637   9.820 -0.3838 -0.3602 -0.1817
  197DOPC    HB24375   2.392   4.718   9.871 -0.4188 -0.4061  1.4988
  197DOPC    C224376   2.539   4.722  10.028 -0.0046 -0.2179  0.8594
  197DOPC    HS24377   2.474   4.650  10.082 -0.0039  0.7998  2.2819
  197DOPC   O2124378   2.535   4.853  10.083  0.6543 -0.0554  0.2456
  197DOPC   C2124379   2.412   4.896  10.108  0.0390 -0.3786  0.5199
  197DOPC   O2224380   2.309   4.835  10.095  0.0575  0.0092 -0.3782
  197DOPC   C2224381   2.417   5.037  10.158 -0.3849  0.0966 -0.8911
  197DOPC   H2R24382   2.332   5.060  10.226  1.0696 -2.9643  2.2564
  197DOPC   H2S24383   2.420   5.097  10.064  0.7048  0.9570 -0.3266
  197DOPC    C324384   2.676   4.663  10.048 -0.1068  0.2548 -0.2958
  197DOPC    HX24385   2.744   4.705   9.972 -2.5278  1.5394 -1.8797
  197DOPC    HY24386   2.671   4.555  10.022  0.3597  0.2326 -0.3035
  197DOPC   O3124387   2.726   4.666  10.182  0.3354  0.2331 -0.0080
  197DOPC   C3124388   2.810   4.754  10.219 -0.0220 -1.0930 -0.5834
  197DOPC   O3224389   2.869   4.829  10.142  0.0542 -0.2235  0.2267
  197DOPC   C3224390   2.850   4.720  10.360 -0.2542  0.0482 -0.1400
  197DOPC   H2X24391   2.862   4.610  10.356 -1.1516 -0.1793  2.1189
  197DOPC   H2Y24392   2.947   4.764  10.394  0.7786 -2.7629  0.8517
  197DOPC   C2324393   2.531   5.072  10.253 -0.3142  0.2133 -0.4313
  197DOPC   H3R24394   2.630   5.045  10.210 -0.4782 -0.3303 -0.4706
  197DOPC   H3S24395   2.522   5.023  10.352 -1.0659  1.3447  0.0844
  197DOPC   C2424396   2.527   5.223  10.270 -0.2434 -0.6080  0.0319
  197DOPC   H4R24397   2.444   5.245  10.341 -0.1928  0.1289 -0.1286
  197DOPC   H4S24398   2.491   5.277  10.180 -3.2022 -2.2727  0.0731
  197DOPC   C2524399   2.656   5.297  10.322 -0.3005  0.1901  0.3674
  197DOPC   H5R24400   2.622   5.403  10.319  1.6983  0.8445 -1.1379
  197DOPC   H5S24401   2.745   5.280  10.258 -0.8499 -0.4985 -0.2271
  197DOPC   C2624402   2.697   5.262  10.456 -0.1634 -0.4986 -0.7849
  197DOPC   H6R24403   2.782   5.326  10.487 -1.0864  0.1594  0.4939
  197DOPC   H6S24404   2.720   5.153  10.455 -0.4459 -0.5535 -1.3011
  197DOPC   C2724405   2.583   5.292  10.564 -0.5634  0.5515 -0.4082
  197DOPC   H7R24406   2.513   5.206  10.572 -0.9502  0.9025  0.0405
  197DOPC   H7S24407   2.525   5.382  10.537 -3.7505 -1.0663  0.5908
  197DOPC   C2824408   2.645   5.292  10.709 -0.7119  0.4135 -0.1073
  197DOPC   H8R24409   2.707   5.384  10.716 -1.6704  1.1244 -0.6980
  197DOPC   H8S24410   2.721   5.211  10.710  0.4976  1.3889 -2.3829
  197DOPC   C2924411   2.543   5.271  10.818  0.2857  0.0716 -1.0581
  197DOPC   H9R24412   2.445   5.224  10.803  0.2543 -1.5660  2.9701
  197DOPC  C21024413   2.561   5.314  10.943  0.1013 -0.1296 -0.8769
  197DOPC  H10R24414   2.474   5.293  11.007 -1.7033  2.9433 -2.0974
  197DOPC  C21124415   2.669   5.403  11.006 -0.1272  0.3084 -0.2631
  197DOPC  H11R24416   2.626   5.505  11.008 -2.4902 -0.5679 -1.3949
  197DOPC  H11S24417   2.761   5.397  10.944  1.1015  1.0597  1.4117
  197DOPC  C21224418   2.688   5.369  11.159  0.6694  0.1027 -0.1026
  197DOPC  H12R24419   2.710   5.261  11.174  0.2359  0.1110  0.6533
  197DOPC  H12S24420   2.596   5.399  11.212  0.5178  1.9565 -1.3322
  197DOPC  C21324421   2.808   5.448  11.212  0.2201 -0.2545  0.3162
  197DOPC  H13R24422   2.792   5.557  11.204  0.5486 -0.3311 -2.0336
  197DOPC  H13S24423   2.893   5.432  11.142 -0.9757  3.0494 -2.1519
  197DOPC  C21424424   2.843   5.392  11.349  0.5075  0.2196 -0.0604
  197DOPC  H14R24425   2.951   5.414  11.366  0.5164 -1.4239  2.6889
  197DOPC  H14S24426   2.842   5.281  11.354  2.0137  0.1015 -1.5300
  197DOPC  C21524427   2.761   5.462  11.461  0.7081 -0.1345  0.4255
  197DOPC  H15R24428   2.657   5.428  11.447  1.6094 -3.5878  1.3478
  197DOPC  H15S24429   2.757   5.571  11.439  1.9996 -0.2996 -0.8107
  197DOPC  C21624430   2.800   5.415  11.605  0.2918 -0.1236 -0.0689
  197DOPC  H16R24431   2.883   5.472  11.650 -1.5183  0.9921  2.0709
  197DOPC  H16S24432   2.815   5.305  11.596 -1.1734 -0.2314 -1.8779
  197DOPC  C21724433   2.680   5.435  11.704  0.2975 -0.2698  0.1888
  197DOPC  H17R24434   2.608   5.352  11.687 -1.6188  1.7882 -2.6711
  197DOPC  H17S24435   2.632   5.526  11.662  1.7617  1.0675  1.2802
  197DOPC  C21824436   2.717   5.468  11.850 -0.7790 -0.2908  0.7099
  197DOPC  H18R24437   2.642   5.430  11.922 -1.5780  1.2026  0.6893
  197DOPC  H18S24438   2.734   5.576  11.871 -1.3575 -0.5286  2.5252
  197DOPC  H18T24439   2.822   5.431  11.863  0.8189  1.9519 -3.6706
  197DOPC   C3324440   2.736   4.752  10.458 -0.0908 -0.5471 -0.2030
  197DOPC   H3X24441   2.653   4.680  10.445 -0.6556  0.0373  0.1066
  197DOPC   H3Y24442   2.691   4.850  10.432 -0.6061 -0.6967  0.1078
  197DOPC   C3424443   2.783   4.725  10.604 -0.0679  0.4045  0.5281
  197DOPC   H4X24444   2.876   4.779  10.630  0.8733 -1.6379  1.5879
  197DOPC   H4Y24445   2.793   4.615  10.605 -0.8183  0.2646 -1.5262
  197DOPC   C3524446   2.681   4.779  10.707  1.2136  0.7964  0.2883
  197DOPC   H5X24447   2.643   4.878  10.673  0.2227  0.0694 -0.7972
  197DOPC   H5Y24448   2.732   4.791  10.805 -0.4243 -0.6776  1.3981
  197DOPC   C3624449   2.559   4.683  10.726  0.6994 -0.0030  0.5641
  197DOPC   H6X24450   2.520   4.667  10.624  1.0161 -0.1433  0.4624
  197DOPC   H6Y24451   2.591   4.587  10.771  2.4072 -0.3127 -1.2022
  197DOPC   C3724452   2.444   4.739  10.813  0.3031  0.8790 -0.2331
  197DOPC   H7X24453   2.418   4.835  10.765  0.4142  0.5466 -0.9615
  197DOPC   H7Y24454   2.359   4.667  10.812  1.2835 -0.5918  3.4131
  197DOPC   C3824455   2.485   4.757  10.963  0.1834 -0.5735 -0.7833
  197DOPC   H8X24456   2.563   4.836  10.967  0.6884 -1.0100 -1.6866
  197DOPC   H8Y24457   2.524   4.659  10.998 -2.2295 -1.3784 -0.1620
  197DOPC   C3924458   2.364   4.797  11.040  1.2181 -0.0185 -0.0722
  197DOPC   H9X24459   2.277   4.730  11.028 -0.0845  1.4391  0.8266
  197DOPC  C31024460   2.350   4.899  11.124  0.4134 -0.2733  0.3179
  197DOPC  H10X24461   2.256   4.917  11.179  1.8415 -1.1358  3.2209
  197DOPC  C31124462   2.458   4.984  11.184 -0.0596 -0.2006  0.4131
  197DOPC  H11X24463   2.439   5.087  11.146  1.3934  1.1609  3.1373
  197DOPC  H11Y24464   2.563   4.949  11.175  1.0609  1.8040  3.6964
  197DOPC  C31224465   2.450   4.995  11.337  0.0258  0.2245 -0.2560
  197DOPC  H12X24466   2.465   4.890  11.371 -0.8837  0.4866  1.0322
  197DOPC  H12Y24467   2.349   5.018  11.379  0.4057 -1.2875  1.6219
  197DOPC  C31324468   2.556   5.083  11.397 -0.1885  0.5773 -0.5286
  197DOPC  H13X24469   2.659   5.078  11.357  0.5565  2.1563  1.0302
  197DOPC  H13Y24470   2.537   5.190  11.373  2.5631  0.8331 -1.9088
  197DOPC  C31424471   2.581   5.044  11.542 -0.5009  0.4612 -0.2287
  197DOPC  H14X24472   2.586   4.934  11.557 -0.5630  0.6926  1.6376
  197DOPC  H14Y24473   2.675   5.093  11.572 -0.2471  0.7138 -1.3824
  197DOPC  C31524474   2.468   5.097  11.635 -0.4308  0.1746 -0.2832
  197DOPC  H15X24475   2.371   5.051  11.607  0.5717 -1.8907 -0.5133
  197DOPC  H15Y24476   2.457   5.207  11.617 -1.2629  0.1448 -0.0004
  197DOPC  C31624477   2.505   5.067  11.776 -0.2354  0.1436 -1.0560
  197DOPC  H16X24478   2.500   4.960  11.807 -2.5511 -0.1571 -2.3127
  197DOPC  H16Y24479   2.613   5.091  11.791  0.0334 -0.8725 -1.2836
  197DOPC  C31724480   2.427   5.157  11.877 -0.1205 -0.0304  0.8984
  197DOPC  H17X24481   2.429   5.261  11.838  1.2550  0.0102  1.0348
  197DOPC  H17Y24482   2.322   5.119  11.880  0.2814 -1.3322 -0.5677
  197DOPC  C31824483   2.493   5.155  12.010 -0.2512  0.3934 -0.5067
  197DOPC  H18X24484   2.447   5.222  12.086 -0.0388  1.1769 -1.0570
  197DOPC  H18Y24485   2.498   5.053  12.054  1.5578  0.8681  0.5235
  197DOPC  H18Z24486   2.599   5.188  12.005 -0.1683  0.2094 -0.0634
  198DOPC     N24487   0.242   5.570   9.360  0.4108 -0.0555  0.0958
  198DOPC   C1224488   0.355   5.601   9.454 -0.7266  0.1537 -0.0108
  198DOPC  H12A24489   0.317   5.607   9.555 -1.6176  2.5656 -0.4432
  198DOPC  H12B24490   0.388   5.698   9.421 -0.1535 -0.1940 -0.4759
  198DOPC   C1324491   0.111   5.654   9.360 -0.5415 -0.5794 -0.0961
  198DOPC  H13A24492   0.141   5.758   9.359 -0.7154 -0.4719  1.8974
  198DOPC  H13B24493   0.060   5.637   9.266  0.4312  3.2256 -1.4925
  198DOPC  H13C24494   0.046   5.626   9.441 -0.7868 -1.0420 -0.4488
  198DOPC   C1424495   0.200   5.434   9.389  0.6254  0.5224  0.0766
  198DOPC  H14A24496   0.150   5.432   9.485 -2.0974 -0.0676 -1.2865
  198DOPC  H14B24497   0.136   5.391   9.314  1.0493 -0.3320  0.1876
  198DOPC  H14C24498   0.285   5.366   9.394  1.8505  2.0732  1.3304
  198DOPC   C1524499   0.288   5.576   9.208 -0.4366  0.0488 -0.3460
  198DOPC  H15A24500   0.207   5.545   9.145  0.6614  1.1062 -2.3909
  198DOPC  H15B24501   0.374   5.512   9.196  0.2486  0.6274  1.1886
  198DOPC  H15C24502   0.312   5.678   9.180  0.8224 -0.0411  0.3141
  198DOPC   C1124503   0.483   5.514   9.452  0.2513 -0.0162  0.0462
  198DOPC  H11A24504   0.531   5.534   9.550 -0.4938 -1.7071  0.7918
  198DOPC  H11B24505   0.460   5.407   9.468  1.2580  0.0099  1.9710
  198DOPC     P24506   0.679   5.626   9.318  0.4397  0.0263  0.1840
  198DOPC   O1324507   0.717   5.636   9.174  0.5958 -0.3865  0.0017
  198DOPC   O1424508   0.780   5.582   9.416 -0.1388  0.2726  0.3276
  198DOPC   O1224509   0.555   5.529   9.330 -0.4940  0.1308  0.2803
  198DOPC   O1124510   0.618   5.769   9.359 -0.0187  0.0123  0.0400
  198DOPC    C124511   0.700   5.877   9.399  0.5717 -0.2410 -0.5062
  198DOPC    HA24512   0.666   5.973   9.355 -1.2658 -0.4802  0.3112
  198DOPC    HB24513   0.804   5.850   9.372  0.9578 -1.5323  1.9271
  198DOPC    C224514   0.695   5.901   9.551 -0.3330 -0.1163 -0.3192
  198DOPC    HS24515   0.754   5.993   9.570 -3.1575  1.8934 -0.5854
  198DOPC   O2124516   0.744   5.787   9.617 -0.1842 -0.2706  0.4915
  198DOPC   C2124517   0.863   5.806   9.677  0.5697 -0.4956  0.6633
  198DOPC   O2224518   0.932   5.906   9.659 -0.2382 -0.1507  0.1784
  198DOPC   C2224519   0.897   5.671   9.743 -0.5197  0.4776 -0.2627
  198DOPC   H2R24520   0.968   5.615   9.679  1.6987 -3.0263  4.6357
  198DOPC   H2S24521   0.800   5.618   9.743 -0.9918  1.2904  0.8706
  198DOPC    C324522   0.550   5.939   9.600  0.0218  0.8128 -0.3694
  198DOPC    HX24523   0.483   5.879   9.535  0.9616 -2.4340  1.4241
  198DOPC    HY24524   0.542   6.048   9.586 -2.2951  0.9085  1.1446
  198DOPC   O3124525   0.537   5.898   9.740  0.1610  0.0313 -0.3981
  198DOPC   C3124526   0.430   5.908   9.807 -0.2102 -0.1780 -0.0028
  198DOPC   O3224527   0.328   5.950   9.761  0.2516 -0.2972 -0.3624
  198DOPC   C3224528   0.450   5.859   9.954  0.1304  0.4897  0.0466
  198DOPC   H2X24529   0.347   5.827   9.982 -0.5757  2.9412  0.5525
  198DOPC   H2Y24530   0.509   5.766   9.941 -0.9655 -0.3285  0.7640
  198DOPC   C2324531   0.954   5.689   9.885 -0.7828  1.3420  0.3971
  198DOPC   H3R24532   0.919   5.603   9.945  2.5532 -2.7637 -2.8642
  198DOPC   H3S24533   0.911   5.782   9.928  0.3714  3.0263 -1.8200
  198DOPC   C2424534   1.103   5.678   9.886 -0.2569 -0.0237  0.1686
  198DOPC   H4R24535   1.154   5.772   9.856  1.1327 -0.7610  0.1042
  198DOPC   H4S24536   1.136   5.597   9.817 -1.1210  0.1338 -0.4406
  198DOPC   C2524537   1.171   5.656  10.027 -0.3613 -0.7488  0.4233
  198DOPC   H5R24538   1.281   5.654  10.020 -0.4227 -0.5771 -0.8892
  198DOPC   H5S24539   1.141   5.555  10.061 -0.9525 -0.5947  0.3891
  198DOPC   C2624540   1.131   5.754  10.144 -0.1327  0.2270 -0.0995
  198DOPC   H6R24541   1.021   5.752  10.160  0.2466 -1.5071  2.8564
  198DOPC   H6S24542   1.151   5.861  10.121  0.8435 -0.0628 -0.6679
  198DOPC   C2724543   1.190   5.711  10.276 -0.4954  0.4902 -1.2750
  198DOPC   H7R24544   1.177   5.795  10.348  1.4180  0.5734 -0.9792
  198DOPC   H7S24545   1.299   5.720  10.257 -0.2701 -0.0142 -0.2780
  198DOPC   C2824546   1.154   5.573  10.332  0.5579  0.4135 -0.0719
  198DOPC   H8R24547   1.225   5.551  10.415  1.2066  2.6818  0.0330
  198DOPC   H8S24548   1.176   5.491  10.261 -0.8259  0.5428 -0.6886
  198DOPC   C2924549   1.007   5.564  10.372  0.1611 -0.4380 -0.4494
  198DOPC   H9R24550   0.952   5.504  10.297  1.0670 -1.5027 -0.2870
  198DOPC  C21024551   0.939   5.617  10.487 -0.1633 -0.6754  0.0295
  198DOPC  H10R24552   0.829   5.614  10.495 -0.2053  0.8032  0.3219
  198DOPC  C21124553   1.010   5.687  10.600  0.4974 -0.5228  0.2585
  198DOPC  H11R24554   0.953   5.776  10.634  0.4608 -0.1691 -0.6992
  198DOPC  H11S24555   1.101   5.731  10.554 -0.3155 -0.7218 -1.5965
  198DOPC  C21224556   1.031   5.609  10.730 -0.2304 -0.5860 -0.5658
  198DOPC  H12R24557   1.118   5.540  10.724  0.4033  0.2716 -1.7053
  198DOPC  H12S24558   0.943   5.543  10.751 -0.4503  0.3436  1.7996
  198DOPC  C21324559   1.070   5.702  10.845  0.0728  0.2980  0.2395
  198DOPC  H13R24560   0.987   5.773  10.866 -0.2505 -0.0699  0.2148
  198DOPC  H13S24561   1.156   5.764  10.812  0.4165  1.0190  2.3103
  198DOPC  C21424562   1.115   5.622  10.964 -0.1677 -0.3045 -0.1046
  198DOPC  H14R24563   1.207   5.569  10.934 -0.0866  0.5928 -1.5192
  198DOPC  H14S24564   1.039   5.551  11.003 -1.3293  0.8558 -0.1584
  198DOPC  C21524565   1.180   5.714  11.083  0.6302  0.8922  0.4990
  198DOPC  H15R24566   1.126   5.811  11.088 -0.1145  0.4269  1.7596
  198DOPC  H15S24567   1.283   5.734  11.044  0.8784  0.0552  0.7060
  198DOPC  C21624568   1.182   5.638  11.220 -0.4832  0.5031 -0.4395
  198DOPC  H16R24569   1.225   5.537  11.200 -1.8563 -0.6489  1.9858
  198DOPC  H16S24570   1.080   5.622  11.260  0.5564  0.8547  2.5705
  198DOPC  C21724571   1.258   5.710  11.326 -0.0673 -0.1696 -0.0447
  198DOPC  H17R24572   1.229   5.817  11.326  2.6790  0.6872  1.3328
  198DOPC  H17S24573   1.363   5.712  11.290  0.6032 -1.4504  1.6739
  198DOPC  C21824574   1.258   5.649  11.467  0.1435 -0.3492  0.4378
  198DOPC  H18R24575   1.154   5.656  11.507 -0.3543  0.0147 -0.8788
  198DOPC  H18S24576   1.322   5.715  11.529 -1.2168  1.0788  0.3645
  198DOPC  H18T24577   1.300   5.546  11.464 -1.2610 -0.9248 -1.6692
  198DOPC   C3324578   0.516   5.951  10.057 -0.3352 -0.5100 -0.0706
  198DOPC   H3X24579   0.455   6.044  10.064 -0.0494 -0.1318 -2.0391
  198DOPC   H3Y24580   0.615   5.972  10.013  0.1628 -0.9685  0.7999
  198DOPC   C3424581   0.519   5.891  10.201  0.1057  0.0156  0.1313
  198DOPC   H4X24582   0.595   5.811  10.214  2.2403  1.3789 -2.6998
  198DOPC   H4Y24583   0.417   5.851  10.216  0.3382 -0.3466  0.7828
  198DOPC   C3524584   0.542   6.003  10.299 -0.5864 -0.3318  1.0327
  198DOPC   H5X24585   0.458   6.075  10.304 -2.9339 -2.7582 -0.6538
  198DOPC   H5Y24586   0.630   6.055  10.255 -0.6692 -0.6288  0.5035
  198DOPC   C3624587   0.589   5.972  10.445 -0.0114 -0.8129 -0.5989
  198DOPC   H6X24588   0.655   5.886  10.420  2.6748  1.0699 -0.4578
  198DOPC   H6Y24589   0.648   6.059  10.482 -1.9802  0.8442 -1.1202
  198DOPC   C3724590   0.483   5.925  10.544  0.3934 -0.1663  0.3288
  198DOPC   H7X24591   0.404   6.004  10.544  0.4412 -0.1152  0.8277
  198DOPC   H7Y24592   0.432   5.835  10.505  2.0178 -0.7214 -0.6146
  198DOPC   C3824593   0.523   5.906  10.689 -0.0121 -0.4421 -0.5051
  198DOPC   H8X24594   0.443   5.854  10.746  0.5182  0.1554  0.8233
  198DOPC   H8Y24595   0.546   6.008  10.727 -0.7702  0.2372 -1.7983
  198DOPC   C3924596   0.645   5.812  10.696  0.6215 -0.7570  0.2742
  198DOPC   H9X24597   0.683   5.777  10.599  0.9225  0.5985 -0.1092
  198DOPC  C31024598   0.691   5.765  10.814  0.3583  0.2085 -0.2511
  198DOPC  H10X24599   0.765   5.683  10.820 -0.5858 -0.6089  0.4849
  198DOPC  C31124600   0.640   5.818  10.943  0.4739  0.5540 -0.4237
  198DOPC  H11X24601   0.565   5.747  10.985  0.9496  0.7568  0.8217
  198DOPC  H11Y24602   0.600   5.921  10.930  0.9476  0.7071 -0.6743
  198DOPC  C31224603   0.758   5.826  11.043 -0.1362  0.3245  0.0374
  198DOPC  H12X24604   0.825   5.906  11.005  0.7921  0.4232  1.7725
  198DOPC  H12Y24605   0.823   5.736  11.040 -0.7899 -0.1646  0.3364
  198DOPC  C31324606   0.721   5.850  11.190  0.1841 -0.8000  0.6233
  198DOPC  H13X24607   0.686   5.954  11.207  0.4816 -0.7915  1.2148
  198DOPC  H13Y24608   0.641   5.782  11.228  0.3347 -0.8374  0.8771
  198DOPC  C31424609   0.838   5.813  11.281 -0.3882  0.4125 -0.7691
  198DOPC  H14X24610   0.844   5.703  11.269 -2.3107  0.1869 -0.1415
  198DOPC  H14Y24611   0.931   5.869  11.257 -0.3726  0.0252 -1.6617
  198DOPC  C31524612   0.800   5.840  11.431 -0.0668 -0.0173  0.4325
  198DOPC  H15X24613   0.707   5.783  11.454 -0.6828  0.9112  0.3320
  198DOPC  H15Y24614   0.781   5.950  11.441  4.3556  0.8160  1.5494
  198DOPC  C31624615   0.911   5.809  11.537  0.1072 -0.1067 -0.8355
  198DOPC  H16X24616   0.937   5.701  11.537  1.3967  0.1570  0.7770
  198DOPC  H16Y24617   1.014   5.848  11.529  0.1587  0.0600  0.4372
  198DOPC  C31724618   0.861   5.825  11.681  0.3067 -0.7416 -0.3591
  198DOPC  H17X24619   0.855   5.934  11.703 -2.0320 -0.8819 -0.0583
  198DOPC  H17Y24620   0.757   5.787  11.671 -0.1983  0.8348 -1.5736
  198DOPC  C31824621   0.934   5.742  11.784  0.2041 -0.2973  0.2383
  198DOPC  H18X24622   0.886   5.736  11.884  2.5961 -1.3655  1.4105
  198DOPC  H18Y24623   0.953   5.638  11.751 -1.2093 -1.0210  1.5936
  198DOPC  H18Z24624   1.035   5.789  11.797  0.3375 -0.3842 -0.4787
  199DOPC     N24625   0.084   6.310   9.100  0.6286  0.8335 -0.1404
  199DOPC   C1224626   0.215   6.265   9.028 -0.0408  0.4468 -0.2930
  199DOPC  H12A24627   0.213   6.325   8.939 -2.4180  0.1020 -0.5574
  199DOPC  H12B24628   0.196   6.162   8.999 -0.9598  0.7269 -0.7358
  199DOPC   C1324629   0.094   6.462   9.079 -0.1850 -0.8366 -0.2184
  199DOPC  H13A24630   0.046   6.516   9.160 -0.5179  1.7159 -2.0035
  199DOPC  H13B24631   0.199   6.487   9.090 -0.7571  3.1166 -2.1126
  199DOPC  H13C24632   0.049   6.497   8.988 -0.5503  1.0553  0.6328
  199DOPC   C1424633   0.079   6.263   9.243  0.2528 -0.0245  0.8125
  199DOPC  H14A24634   0.161   6.315   9.290 -0.1753  1.5059 -0.0544
  199DOPC  H14B24635  -0.011   6.294   9.294 -0.5773  2.0479 -1.6560
  199DOPC  H14C24636   0.095   6.157   9.243  0.5015 -0.1368 -3.2495
  199DOPC   C1524637  -0.045   6.263   9.037 -0.0184  0.0060 -0.0217
  199DOPC  H15A24638  -0.052   6.155   9.037  1.4884 -0.1398  1.9299
  199DOPC  H15B24639  -0.058   6.311   8.941  0.0664 -1.5062 -0.8232
  199DOPC  H15C24640  -0.132   6.295   9.092  1.0538 -1.5189  2.7498
  199DOPC   C1124641   0.353   6.266   9.102  0.4138  0.4097  0.2379
  199DOPC  H11A24642   0.341   6.221   9.203 -1.9818 -1.1433 -0.6456
  199DOPC  H11B24643   0.416   6.209   9.031  0.2531 -0.4068  0.7333
  199DOPC     P24644   0.530   6.432   9.190  0.3871  0.1656  0.2745
  199DOPC   O1324645   0.556   6.575   9.187 -0.0858 -0.2096  0.2648
  199DOPC   O1424646   0.644   6.366   9.134 -0.0533  0.9528 -0.1960
  199DOPC   O1224647   0.407   6.400   9.112  0.3822 -0.1936  0.1380
  199DOPC   O1124648   0.509   6.368   9.333 -0.0526  0.4024 -0.4136
  199DOPC    C124649   0.396   6.416   9.415  0.0759 -0.4228 -0.0760
  199DOPC    HA24650   0.332   6.330   9.446 -1.5552  0.8506  0.2381
  199DOPC    HB24651   0.326   6.475   9.352  1.1552  2.2433  1.1153
  199DOPC    C224652   0.451   6.511   9.520  0.0077 -0.2973 -0.7612
  199DOPC    HS24653   0.484   6.608   9.478  0.2737 -0.4392 -0.8863
  199DOPC   O2124654   0.569   6.443   9.580 -0.0472 -0.4607 -0.6179
  199DOPC   C2124655   0.655   6.512   9.654  0.8583  0.1619 -0.0672
  199DOPC   O2224656   0.650   6.633   9.665 -0.2378 -0.1713  0.0640
  199DOPC   C2224657   0.756   6.424   9.715 -0.6250  0.0861  0.6064
  199DOPC   H2R24658   0.841   6.492   9.737 -1.6009  1.1449  1.2847
  199DOPC   H2S24659   0.799   6.345   9.651  1.1113  1.2548  0.2678
  199DOPC    C324660   0.341   6.563   9.624 -0.4955  0.7549  0.8790
  199DOPC    HX24661   0.269   6.623   9.565 -0.8441 -0.6292 -0.1443
  199DOPC    HY24662   0.382   6.619   9.711  0.2663  0.6486  0.5927
  199DOPC   O3124663   0.275   6.449   9.676  0.4095 -0.0183  0.1088
  199DOPC   C3124664   0.291   6.409   9.805  0.0495 -0.1787  0.2939
  199DOPC   O3224665   0.361   6.465   9.882 -0.1314 -0.2507  0.2834
  199DOPC   C3224666   0.208   6.285   9.841 -0.2922  0.1239  0.0766
  199DOPC   H2X24667   0.142   6.247   9.760 -1.6513  0.4579  1.0074
  199DOPC   H2Y24668   0.276   6.199   9.862  0.0601  0.1653 -0.8147
  199DOPC   C2324669   0.710   6.354   9.844  0.4539 -0.1185 -0.0102
  199DOPC   H3R24670   0.781   6.274   9.876  1.9798  0.8712 -0.8093
  199DOPC   H3S24671   0.618   6.292   9.837 -1.3424  2.4933 -0.9911
  199DOPC   C2424672   0.695   6.459   9.959 -0.7385  0.1348  0.9028
  199DOPC   H4R24673   0.624   6.540   9.932  0.8124  1.4052  0.4815
  199DOPC   H4S24674   0.795   6.507   9.952 -1.5568  1.7015 -4.2964
  199DOPC   C2524675   0.653   6.404  10.096 -0.0731  0.0615  0.1934
  199DOPC   H5R24676   0.706   6.309  10.120 -3.4909 -2.8674 -2.5422
  199DOPC   H5S24677   0.545   6.375  10.090  0.2361 -0.9581 -0.8499
  199DOPC   C2624678   0.676   6.500  10.210 -0.5456 -0.1418 -0.3287
  199DOPC   H6R24679   0.615   6.593  10.211  1.4826  1.2599 -1.2147
  199DOPC   H6S24680   0.780   6.538  10.204 -1.6017  2.8952 -1.5672
  199DOPC   C2724681   0.644   6.422  10.334 -0.1147 -0.1867  0.2147
  199DOPC   H7R24682   0.728   6.350  10.349 -0.0451 -0.1275  0.1089
  199DOPC   H7S24683   0.562   6.353  10.307 -0.3502  0.9526 -2.2766
  199DOPC   C2824684   0.629   6.499  10.466  0.4958  0.2546 -0.8670
  199DOPC   H8R24685   0.549   6.576  10.460  1.4471  1.5420  1.4165
  199DOPC   H8S24686   0.718   6.566  10.476 -0.6535  1.6720  0.4593
  199DOPC   C2924687   0.619   6.398  10.580  0.1981 -0.1682 -0.2291
  199DOPC   H9R24688   0.593   6.296  10.550  4.3951 -1.3882 -0.2760
  199DOPC  C21024689   0.667   6.411  10.702 -0.0644  0.0350  0.1827
  199DOPC  H10R24690   0.663   6.329  10.775 -0.5656 -1.6683 -1.6872
  199DOPC  C21124691   0.740   6.535  10.749  0.2180 -0.0249 -0.1705
  199DOPC  H11R24692   0.710   6.622  10.686  1.9341  1.3575  0.8378
  199DOPC  H11S24693   0.847   6.507  10.739 -0.3110 -2.0889 -0.5080
  199DOPC  C21224694   0.709   6.572  10.894 -0.4765  0.1825  0.7681
  199DOPC  H12R24695   0.600   6.590  10.903 -0.2876  0.9642  1.5336
  199DOPC  H12S24696   0.766   6.665  10.913  0.7286  0.1270 -2.0710
  199DOPC  C21324697   0.755   6.468  10.993  0.5038 -0.3106 -0.5030
  199DOPC  H13R24698   0.865   6.479  10.992  0.4102  0.8274 -1.9185
  199DOPC  H13S24699   0.729   6.367  10.956 -0.3247  0.0232 -0.8672
  199DOPC  C21424700   0.690   6.486  11.127  0.0805  0.0735 -0.1189
  199DOPC  H14R24701   0.581   6.472  11.111  0.1079 -1.2533  0.6982
  199DOPC  H14S24702   0.711   6.585  11.172  0.9595 -0.0753 -0.1843
  199DOPC  C21524703   0.736   6.370  11.218  0.6660  0.1706 -0.5813
  199DOPC  H15R24704   0.846   6.368  11.234  0.5757 -2.1383  0.2225
  199DOPC  H15S24705   0.711   6.277  11.163  0.4271 -0.9612  1.3289
  199DOPC  C21624706   0.673   6.363  11.352 -0.4022 -0.2451  0.5113
  199DOPC  H16R24707   0.563   6.372  11.337 -0.1679  1.9835 -0.2913
  199DOPC  H16S24708   0.694   6.454  11.413 -1.7986  1.5645 -1.5526
  199DOPC  C21724709   0.725   6.248  11.434 -0.1803 -0.0359 -0.3293
  199DOPC  H17R24710   0.798   6.192  11.371 -0.9747 -2.8406  1.0891
  199DOPC  H17S24711   0.647   6.172  11.455  1.8475 -2.0946  0.1353
  199DOPC  C21824712   0.801   6.295  11.555  0.1312  0.8448 -0.6863
  199DOPC  H18R24713   0.744   6.368  11.616 -0.9668 -0.1679 -0.4799
  199DOPC  H18S24714   0.903   6.328  11.524  1.0695 -0.4038  0.8907
  199DOPC  H18T24715   0.815   6.214  11.629 -0.3609  0.8666 -0.5663
  199DOPC   C3324716   0.129   6.309   9.976  0.3366 -0.5991 -0.3937
  199DOPC   H3X24717   0.044   6.237   9.985 -0.4306  0.5491  2.3905
  199DOPC   H3Y24718   0.075   6.406   9.971 -0.9649 -1.2543  0.1956
  199DOPC   C3424719   0.211   6.295  10.108  0.2678 -0.1549 -0.1291
  199DOPC   H4X24720   0.291   6.373  10.110 -1.2717  1.5623  2.9891
  199DOPC   H4Y24721   0.252   6.192  10.114 -0.4844 -0.4554 -0.0316
  199DOPC   C3524722   0.131   6.327  10.237  0.8046 -0.8070 -0.8104
  199DOPC   H5X24723   0.055   6.249  10.257  1.0892 -0.6975  0.9085
  199DOPC   H5Y24724   0.079   6.423  10.215  0.2044 -1.0938 -0.6652
  199DOPC   C3624725   0.217   6.339  10.371 -0.1899 -0.0180  0.5579
  199DOPC   H6X24726   0.282   6.249  10.384 -0.1652  0.0785  1.1463
  199DOPC   H6Y24727   0.286   6.426  10.367 -0.5961  0.3599  1.5091
  199DOPC   C3724728   0.135   6.362  10.498  0.1862 -0.8913  0.6333
  199DOPC   H7X24729   0.076   6.456  10.493  0.2077 -0.9205 -0.3254
  199DOPC   H7Y24730   0.077   6.269  10.519  0.2869 -0.6333  2.1604
  199DOPC   C3824731   0.237   6.389  10.617 -0.5703  0.1199  0.4003
  199DOPC   H8X24732   0.300   6.480  10.605 -1.3263  0.5768 -0.2170
  199DOPC   H8Y24733   0.302   6.300  10.626  1.0386  1.1992 -0.1363
  199DOPC   C3924734   0.149   6.411  10.742 -0.6129  0.4569 -0.0591
  199DOPC   H9X24735   0.058   6.351  10.747  0.4059 -1.0356  2.6183
  199DOPC  C31024736   0.189   6.471  10.859  1.2257  0.1362 -0.2337
  199DOPC  H10X24737   0.119   6.474  10.943  0.5070  0.4565 -0.8287
  199DOPC  C31124738   0.325   6.523  10.880 -0.1682  0.4575 -0.0565
  199DOPC  H11X24739   0.388   6.509  10.790 -0.3484  0.5552 -0.2000
  199DOPC  H11Y24740   0.369   6.467  10.965  1.2093  0.9109 -0.4447
  199DOPC  C31224741   0.327   6.678  10.904  0.6730 -0.1285 -0.4273
  199DOPC  H12X24742   0.275   6.724  10.818  0.5454 -2.5893 -1.7391
  199DOPC  H12Y24743   0.431   6.717  10.910  1.1409 -1.4617  1.0323
  199DOPC  C31324744   0.254   6.723  11.035  0.6811  0.2663  0.3357
  199DOPC  H13X24745   0.151   6.682  11.032  1.4558 -1.7314 -0.8493
  199DOPC  H13Y24746   0.300   6.670  11.121 -1.2717  1.0165  1.9341
  199DOPC  C31424747   0.251   6.874  11.057  0.3835  0.0869  0.3537
  199DOPC  H14X24748   0.223   6.927  10.964  0.4331  0.3685  0.4967
  199DOPC  H14Y24749   0.170   6.892  11.131 -1.4933 -1.0036 -1.3454
  199DOPC  C31524750   0.384   6.921  11.106 -0.5144  0.0321  0.2414
  199DOPC  H15X24751   0.457   6.891  11.028  0.7470 -2.5888  2.2651
  199DOPC  H15Y24752   0.417   6.861  11.194 -1.0289  1.4154  1.4202
  199DOPC  C31624753   0.382   7.072  11.141 -0.1343  0.6432  0.0768
  199DOPC  H16X24754   0.482   7.114  11.167  0.1080  1.1644 -1.6128
  199DOPC  H16Y24755   0.343   7.130  11.054 -2.0270  0.5136  0.7829
  199DOPC  C31724756   0.293   7.108  11.262  0.1716 -0.1812 -0.1433
  199DOPC  H17X24757   0.307   7.216  11.280  0.5443  0.0650 -1.7723
  199DOPC  H17Y24758   0.183   7.095  11.250 -0.2209 -0.0484  2.6438
  199DOPC  C31824759   0.330   7.042  11.395 -0.5929  0.9889  0.5078
  199DOPC  H18X24760   0.328   6.931  11.385  0.9747  0.8820  1.1930
  199DOPC  H18Y24761   0.438   7.058  11.412 -0.6435  2.1070 -0.1112
  199DOPC  H18Z24762   0.276   7.082  11.483 -0.8058  0.1461  0.7701
  200DOPC     N24763   1.685   0.184   8.955 -0.2540  0.2538 -0.0393
  200DOPC   C1224764   1.680   0.290   9.055  0.8918 -0.4695 -0.3467
  200DOPC  H12A24765   1.575   0.314   9.066  0.9025  1.1104 -2.9041
  200DOPC  H12B24766   1.716   0.382   9.011 -0.1016  0.4045  0.6074
  200DOPC   C1324767   1.642   0.239   8.824 -0.3058 -0.0953 -0.8693
  200DOPC  H13A24768   1.701   0.321   8.783 -0.8390 -0.0160 -1.4794
  200DOPC  H13B24769   1.643   0.157   8.754  1.7876 -0.7866 -0.1262
  200DOPC  H13C24770   1.537   0.262   8.828 -0.0532  0.9991  1.6185
  200DOPC   C1424771   1.592   0.074   8.985 -0.6038 -0.1695  0.1937
  200DOPC  H14A24772   1.618   0.017   9.073  1.3887 -0.0977 -0.3065
  200DOPC  H14B24773   1.492   0.114   8.989 -1.0474 -1.0245 -1.4010
  200DOPC  H14C24774   1.588   0.015   8.895  3.1298 -1.9190  1.0026
  200DOPC   C1524775   1.824   0.130   8.936 -0.5952 -0.7847 -1.0262
  200DOPC  H15A24776   1.833   0.035   8.886  0.6591 -1.4938  0.4588
  200DOPC  H15B24777   1.882   0.098   9.022  0.4021 -1.4999 -1.9375
  200DOPC  H15C24778   1.884   0.202   8.883  0.4066 -0.5413  0.3631
  200DOPC   C1124779   1.728   0.268   9.198  0.3942 -0.6569  0.2894
  200DOPC  H11A24780   1.693   0.356   9.255  0.4716 -2.2839  2.9945
  200DOPC  H11B24781   1.680   0.182   9.249 -0.6209 -0.2471  0.0540
  200DOPC     P24782   1.970   0.365   9.227 -0.2725 -0.0249 -0.4106
  200DOPC   O1324783   1.958   0.465   9.122  0.5370  0.2774 -0.8024
  200DOPC   O1424784   2.105   0.300   9.251 -0.3267 -0.0736 -0.2534
  200DOPC   O1224785   1.871   0.245   9.199 -0.2896 -0.5200 -0.3363
  200DOPC   O1124786   1.913   0.431   9.365 -0.2972  0.6010 -0.0656
  200DOPC    C124787   1.994   0.395   9.474  0.6136 -0.3225 -0.0464
  200DOPC    HA24788   2.100   0.423   9.454  0.6103 -1.1538 -1.3507
  200DOPC    HB24789   1.991   0.285   9.488 -1.3602 -0.2806  0.0674
  200DOPC    C224790   1.939   0.454   9.608  0.3596  0.3060  0.0762
  200DOPC    HS24791   2.006   0.419   9.690 -0.4533 -0.7893  0.3032
  200DOPC   O2124792   1.802   0.426   9.623 -0.1573 -0.2951 -0.5697
  200DOPC   C2124793   1.779   0.301   9.667 -0.3077 -1.2769  0.0308
  200DOPC   O2224794   1.861   0.218   9.697  0.4458 -0.7200 -0.0671
  200DOPC   C2224795   1.629   0.276   9.664  0.3829  0.6444  0.7370
  200DOPC   H2R24796   1.611   0.169   9.686 -2.2444  1.0285  0.8377
  200DOPC   H2S24797   1.596   0.294   9.559  0.0990  0.8085  0.8519
  200DOPC    C324798   1.960   0.614   9.602 -0.4218  0.3108  0.0309
  200DOPC    HX24799   1.917   0.662   9.511 -0.9060 -2.3611 -1.2435
  200DOPC    HY24800   2.071   0.623   9.595 -0.4420 -0.3881 -2.4184
  200DOPC   O3124801   1.911   0.679   9.720 -0.1971  0.9391 -0.3442
  200DOPC   C3124802   1.791   0.735   9.716 -0.3093 -1.2771 -0.5133
  200DOPC   O3224803   1.717   0.741   9.619 -0.0992 -0.1624  0.1505
  200DOPC   C3224804   1.761   0.788   9.854 -0.1532  0.4803  0.3755
  200DOPC   H2X24805   1.827   0.741   9.931 -0.1961 -1.1347 -0.5209
  200DOPC   H2Y24806   1.783   0.897   9.849 -0.7079  0.6711  1.6671
  200DOPC   C2324807   1.547   0.370   9.761 -0.3817  0.1668 -0.1264
  200DOPC   H3R24808   1.449   0.393   9.713 -0.0685  1.4191 -0.2004
  200DOPC   H3S24809   1.598   0.465   9.789 -0.5429 -0.5887  2.9910
  200DOPC   C2424810   1.532   0.283   9.889  0.8321  0.7714  0.3299
  200DOPC   H4R24811   1.501   0.180   9.862 -1.2544  1.6253 -0.7421
  200DOPC   H4S24812   1.449   0.316   9.955 -0.2804 -1.7036  0.2589
  200DOPC   C2524813   1.657   0.287   9.988  0.2345  0.0426 -0.3906
  200DOPC   H5R24814   1.675   0.397   9.993 -2.3713  0.5272  0.0030
  200DOPC   H5S24815   1.738   0.229   9.939  0.5646 -1.5467  1.9241
  200DOPC   C2624816   1.635   0.246  10.135 -0.1557 -0.4650 -0.0957
  200DOPC   H6R24817   1.736   0.265  10.175 -0.3278  3.2137 -1.0378
  200DOPC   H6S24818   1.612   0.138  10.144  0.5708 -0.5980  0.1644
  200DOPC   C2724819   1.534   0.338  10.204  0.4813 -0.2365  0.4139
  200DOPC   H7R24820   1.434   0.292  10.188 -0.7364  2.2874  0.2192
  200DOPC   H7S24821   1.531   0.437  10.154  0.0953 -0.3336  0.2387
  200DOPC   C2824822   1.569   0.358  10.354  0.2903 -0.2113  0.0443
  200DOPC   H8R24823   1.488   0.421  10.396  0.4980  0.0724  0.0238
  200DOPC   H8S24824   1.660   0.421  10.366 -0.1021  0.6093 -1.0789
  200DOPC   C2924825   1.571   0.235  10.435  0.0574  0.5830  0.1177
  200DOPC   H9R24826   1.579   0.134  10.392  0.5325 -0.7163  2.9848
  200DOPC  C21024827   1.593   0.240  10.566 -0.1393 -0.0904 -0.1786
  200DOPC  H10R24828   1.599   0.144  10.619 -0.6569 -0.6431 -1.0933
  200DOPC  C21124829   1.604   0.365  10.653 -0.1283 -0.5363 -0.2856
  200DOPC  H11R24830   1.600   0.454  10.588 -1.5262 -2.0030 -2.3375
  200DOPC  H11S24831   1.699   0.372  10.710 -0.3501  0.2963 -0.0160
  200DOPC  C21224832   1.481   0.389  10.743 -0.1976 -0.0465  0.1339
  200DOPC  H12R24833   1.394   0.380  10.675 -0.4299  1.2152  0.2450
  200DOPC  H12S24834   1.478   0.493  10.783 -0.5678  0.3980 -1.0219
  200DOPC  C21324835   1.472   0.287  10.862  0.4157  0.5588  0.3328
  200DOPC  H13R24836   1.467   0.184  10.821  1.6870  0.9045 -0.7660
  200DOPC  H13S24837   1.381   0.310  10.921 -0.4781 -0.1995 -0.6984
  200DOPC  C21424838   1.584   0.292  10.966 -0.0861  0.3658 -0.3281
  200DOPC  H14R24839   1.606   0.389  11.016 -0.6681  0.5058 -0.3386
  200DOPC  H14S24840   1.677   0.253  10.919  0.5290 -0.9494  1.8813
  200DOPC  C21524841   1.548   0.188  11.067  0.2024 -0.3235  0.2729
  200DOPC  H15R24842   1.577   0.087  11.032  0.8183  0.2668 -0.9802
  200DOPC  H15S24843   1.438   0.191  11.084 -0.0225 -0.1468 -1.1669
  200DOPC  C21624844   1.621   0.210  11.203  0.9973 -0.2297 -0.1519
  200DOPC  H16R24845   1.731   0.210  11.190  1.2530  1.2968  1.5708
  200DOPC  H16S24846   1.585   0.142  11.284  0.5605  0.5824  0.3493
  200DOPC  C21724847   1.586   0.345  11.267  0.8727 -0.0768 -0.0465
  200DOPC  H17R24848   1.478   0.370  11.269  1.2684  1.7850  0.3821
  200DOPC  H17S24849   1.633   0.430  11.212 -0.6208  0.5409 -0.4016
  200DOPC  C21824850   1.639   0.358  11.407  0.3698 -0.2416  0.3666
  200DOPC  H18R24851   1.582   0.442  11.453  0.4453 -0.1609  0.3115
  200DOPC  H18S24852   1.748   0.379  11.400 -0.0684  2.2016 -0.0544
  200DOPC  H18T24853   1.624   0.272  11.476  0.8352 -1.1370 -0.6282
  200DOPC   C3324854   1.608   0.791   9.887 -0.0817  0.2369 -0.4323
  200DOPC   H3X24855   1.578   0.685   9.886 -0.0774  0.1689 -3.6502
  200DOPC   H3Y24856   1.544   0.842   9.812  0.3265 -0.4900 -1.2937
  200DOPC   C3424857   1.581   0.860  10.022 -0.3641  0.4805  0.5791
  200DOPC   H4X24858   1.476   0.898  10.024 -0.2429  0.8248  0.5125
  200DOPC   H4Y24859   1.653   0.945  10.025  0.1060  0.1491 -0.6763
  200DOPC   C3524860   1.600   0.766  10.143  0.1946 -0.3232  0.4477
  200DOPC   H5X24861   1.695   0.709  10.145 -1.5796 -3.6584 -1.5766
  200DOPC   H5Y24862   1.528   0.682  10.151 -0.2313  0.0094  0.1875
  200DOPC   C3624863   1.580   0.841  10.279  0.1410 -0.1654  0.0826
  200DOPC   H6X24864   1.672   0.899  10.299 -0.5923  1.0661  0.0272
  200DOPC   H6Y24865   1.497   0.914  10.266 -0.7120 -0.9832  0.7506
  200DOPC   C3724866   1.578   0.748  10.393  0.2631 -0.0598 -0.1150
  200DOPC   H7X24867   1.473   0.730  10.425  0.3460 -1.5043 -0.5673
  200DOPC   H7Y24868   1.599   0.647  10.350 -0.7975 -0.3955  0.1288
  200DOPC   C3824869   1.666   0.788  10.513 -0.3676  0.3920 -0.5279
  200DOPC   H8X24870   1.770   0.812  10.481  0.3943  0.6110  1.8789
  200DOPC   H8Y24871   1.673   0.693  10.570 -3.5929 -1.2489 -2.6290
  200DOPC   C3924872   1.613   0.901  10.601 -1.1893  0.4208 -0.2065
  200DOPC   H9X24873   1.620   1.001  10.556 -1.8295  1.1193  1.1667
  200DOPC  C31024874   1.542   0.894  10.714 -0.1700  0.3268 -0.6803
  200DOPC  H10X24875   1.515   0.986  10.767  1.3237  1.2903 -1.5068
  200DOPC  C31124876   1.502   0.770  10.789 -0.0022 -0.0226  0.5514
  200DOPC  H11X24877   1.560   0.687  10.743 -1.2786  0.4980 -2.2103
  200DOPC  H11Y24878   1.396   0.746  10.764 -0.1579  0.8176  0.4050
  200DOPC  C31224879   1.504   0.781  10.936  0.4470 -0.6592 -0.0699
  200DOPC  H12X24880   1.467   0.684  10.976  0.4618  0.0513  1.7835
  200DOPC  H12Y24881   1.435   0.862  10.967  1.8321 -0.2532  2.1663
  200DOPC  C31324882   1.640   0.800  10.996  0.3033  0.2938  0.1751
  200DOPC  H13X24883   1.683   0.899  10.970  2.0998 -0.2985  0.6998
  200DOPC  H13Y24884   1.623   0.803  11.106  0.8575  0.7722  0.2536
  200DOPC  C31424885   1.736   0.680  10.975 -0.5010 -0.4180 -0.4850
  200DOPC  H14X24886   1.688   0.580  10.973  1.3028 -1.3114 -0.9875
  200DOPC  H14Y24887   1.795   0.683  10.881  1.0765 -1.8106  0.4053
  200DOPC  C31524888   1.834   0.657  11.089  0.4569 -0.7737 -0.3670
  200DOPC  H15X24889   1.777   0.648  11.185 -1.2647 -0.9560 -1.3660
  200DOPC  H15Y24890   1.898   0.748  11.094  0.4090 -0.7821  3.0569
  200DOPC  C31624891   1.917   0.533  11.059 -0.6331  0.3803 -0.1516
  200DOPC  H16X24892   1.846   0.450  11.077 -3.2693  2.5387 -0.1257
  200DOPC  H16Y24893   1.952   0.530  10.953 -2.5817  0.0017 -0.8154
  200DOPC  C31724894   2.052   0.521  11.148  0.5234 -0.1841 -0.3477
  200DOPC  H17X24895   2.109   0.429  11.124 -0.3982 -0.9833  0.4492
  200DOPC  H17Y24896   2.110   0.612  11.120  0.0377 -0.1105 -1.1561
  200DOPC  C31824897   2.027   0.514  11.292  0.1433 -0.8202 -0.6652
  200DOPC  H18X24898   1.943   0.442  11.298 -0.7927  0.2454 -0.8705
  200DOPC  H18Y24899   2.109   0.477  11.358 -0.9629  2.6722  3.0105
  200DOPC  H18Z24900   1.991   0.609  11.335  0.1738 -2.1297  2.5649
  201SOD    SOD24901   4.944   4.969  15.524  0.1042 -0.1082  0.4469
  202SOD    SOD24902   0.667   5.060   6.647 -0.0049 -0.3041  0.3450
  203SOD    SOD24903   2.099   5.805  15.631  0.1920  0.5364  0.3636
  204SOD    SOD24904   1.158   5.202   8.228 -0.3865  0.1374 -0.4298
  205SOD    SOD24905   3.824   0.075  15.458  0.2742 -0.4104 -0.7571
  206SOD    SOD24906   1.065   4.020   8.530  0.1790  0.0666 -0.0472
  207SOD    SOD24907   5.454   4.507   8.074  0.0505  0.0010  0.1465
  208SOD    SOD24908   1.923   0.945  15.072  0.2432 -0.2671 -0.3589
  209SOD    SOD24909   5.858   6.161   9.342  0.0317 -0.1993  0.4442
  210SOD    SOD24910   0.545   1.963  16.897  0.1004 -0.6320 -0.0403
  211SOD    SOD24911   1.142   0.342  14.965 -0.0579 -0.1836 -0.3189
  212SOD    SOD24912   3.602   6.049  15.162  0.2416  0.2954  0.2223
  213SOD    SOD24913   0.269   5.750   7.928  0.2231  0.0583  0.4182
  214SOD    SOD24914   6.032   3.998  15.551  0.1786  0.2697  0.3025
  215SOD    SOD24915   2.668   1.323  14.613  0.2400 -0.4837 -0.3234
  216SOD    SOD24916   4.765   3.645  15.919  0.0673  0.1111 -0.0115
  217SOD    SOD24917   4.808   4.983   7.797 -0.3632 -0.0117 -0.1866
  218SOD    SOD24918   2.791   5.409  17.008 -0.0202  0.0217 -0.2357
  219SOD    SOD24919   4.781   5.489  16.355 -0.0111  0.0973 -0.2992
  220SOD    SOD24920   4.869   0.700   7.525 -0.4279 -0.1471  0.0759
  221SOD    SOD24921   3.818   2.905   7.662 -0.2402  0.3932 -0.5619
  222SOD    SOD24922   1.751   1.235  14.591 -0.1266 -0.1594 -0.2041
  223SOD    SOD24923   0.433   0.674   8.102 -0.0711  0.5619  0.1197
  224SOD    SOD24924   3.404   6.462   7.032 -0.2197 -0.2685 -0.1249
  225SOD    SOD24925   5.561   3.509   7.939  0.1126  0.5876 -0.0230
  226SOD    SOD24926   4.361   5.513  17.090 -0.0553  0.5932  0.4291
  227CLA    CLA24927   6.383   3.552   8.700 -0.0443 -0.2604 -0.1644
  228CLA    CLA24928   1.023   6.577   8.742  0.0176 -0.5134  0.2049
  229CLA    CLA24929   4.460   1.982   7.720 -0.1892  0.2657 -0.1110
  230CLA    CLA24930   1.817   5.049  16.183  0.0703  0.1320  0.1388
  231CLA    CLA24931   3.217   2.076  16.563  0.0917  0.2091  0.3863
  232CLA    CLA24932   1.559   0.005  17.208 -0.2996 -0.0865 -0.0380
  233CLA    CLA24933   2.316   1.385  16.664 -0.0407  0.0636 -0.1738
  234CLA    CLA24934   6.017   4.255  16.604  0.0056  0.4418  0.7115
  235CLA    CLA24935   3.355   3.139   8.157  0.1713 -0.1418  0.2252
  236CLA    CLA24936   0.122   6.159  17.307 -0.0883  0.0546 -0.5396
  237CLA    CLA24937   2.889   0.656  15.115 -0.4181  0.5285 -0.0689
  238CLA    CLA24938   3.954   6.113   8.762  0.4076 -0.1289  0.0381
  239CLA    CLA24939   5.375   4.000   7.792 -0.5160 -0.3419  0.0617
  240CLA    CLA24940   0.228   4.331  17.737  0.0008  0.1692 -0.0437
  241CLA    CLA24941   4.258   5.235   7.219  0.1040  0.0448  0.3658
  242CLA    CLA24942   2.636   1.643  16.365 -0.0451  0.1045  0.1956
  243CLA    CLA24943   2.320   3.031   8.934 -0.2167 -0.2843 -0.1086
  244CLA    CLA24944   6.200   3.817   7.398 -0.5813 -0.2167  0.4457
  245CLA    CLA24945   5.349   5.044   7.782 -0.1868  0.3110 -0.1743
  246CLA    CLA24946   5.011   2.854  16.349 -0.2803  0.1778  0.0546
  247CLA    CLA24947   0.639   4.219   7.404 -0.1945 -0.1057  0.1319
  248CLA    CLA24948   5.491   0.508   7.406 -0.1990 -0.2572 -0.3261
  249CLA    CLA24949   4.055   4.991   8.603  0.1205  0.3296  0.1872
  250CLA    CLA24950   2.278   1.013  17.328 -0.5528 -0.1655  0.0375
  251CLA    CLA24951   5.113   1.060  17.700 -0.0548  0.2716 -0.0357
  252CLA    CLA24952   6.702   0.039   7.440  0.2197 -0.1652  0.1316
  253TIP3   OH224953   0.322   0.365  16.683  0.4312  0.5876  0.3253
  253TIP3    H124954   0.387   0.401  16.743  0.7910  1.1481 -0.3818
  253TIP3    H224955   0.372   0.310  16.623  0.0072 -0.3634  0.8301
  254TIP3   OH224956   4.799   3.129  15.764 -0.4317 -0.7549 -0.5637
  254TIP3    H124957   4.867   3.071  15.728 -1.5384 -1.4713 -1.5965
  254TIP3    H224958   4.734   3.070  15.801 -1.7618 -0.2471 -1.9561
  255TIP3   OH224959   4.525   5.495  14.695 -0.0357 -0.6913  0.1247
  255TIP3    H124960   4.494   5.546  14.770 -0.2786  0.0765 -0.4906
  255TIP3    H224961   4.617   5.478  14.715  1.0399  2.8248 -1.1201
  256TIP3   OH224962   1.000   1.580  17.243  0.1593 -0.3116  0.3001
  256TIP3    H124963   1.077   1.549  17.292  0.3929  0.7320  0.6384
  256TIP3    H224964   1.020   1.672  17.224 -0.1872 -0.5373 -1.2769
  257TIP3   OH224965   4.530   0.130  15.902 -0.0691  0.0554 -0.2202
  257TIP3    H124966   4.502   0.131  15.993  1.6952  0.7398  0.3523
  257TIP3    H224967   4.515   0.220  15.872 -1.8241 -0.4629 -1.0297
  258TIP3   OH224968   2.193   3.614  17.794 -0.2849  0.2063 -0.5030
  258TIP3    H124969   2.155   3.636  17.708 -0.1399 -0.5418 -0.7673
  258TIP3    H224970   2.176   3.691  17.848 -1.9233  0.0102 -0.6988
  259TIP3   OH224971   5.435   0.160  15.793 -0.2871  0.2570 -0.0365
  259TIP3    H124972   5.392   0.166  15.879 -0.6680 -0.0293 -0.2052
  259TIP3    H224973   5.515   0.111  15.810 -0.6187 -0.2626  0.0671
  260TIP3   OH224974   4.451   6.127  16.090 -0.1649 -0.3419  0.2340
  260TIP3    H124975   4.376   6.186  16.078  0.0811  0.1342  0.9785
  260TIP3    H224976   4.506   6.142  16.014 -0.3937 -0.0441  0.1282
  261TIP3   OH224977   5.027   5.449  15.028  0.2855 -0.4351 -0.1938
  261TIP3    H124978   5.004   5.391  14.955  0.4759  1.1352 -1.5531
  261TIP3    H224979   5.117   5.424  15.050  0.2525 -0.8775 -0.5327
  262TIP3   OH224980   4.555   4.211  15.453 -0.4425  0.0318  0.0163
  262TIP3    H124981   4.561   4.178  15.364 -0.4513  0.3196 -0.0938
  262TIP3    H224982   4.461   4.217  15.470 -0.4410  0.0089  0.0333
  263TIP3   OH224983   1.584   5.430  15.459  0.3562  0.2454  0.0979
  263TIP3    H124984   1.564   5.342  15.427 -1.6218  0.8117 -0.3600
  263TIP3    H224985   1.605   5.479  15.379 -2.0191  1.0140 -0.1283
  264TIP3   OH224986   1.573   1.420  14.912  0.9354  0.2549 -0.2835
  264TIP3    H124987   1.532   1.506  14.910  2.8189  1.1904 -2.6646
  264TIP3    H224988   1.612   1.414  14.999 -0.9779  0.8408  0.6827
  265TIP3   OH224989   1.628   5.078  16.411  0.1297 -0.1352  0.0353
  265TIP3    H124990   1.545   5.111  16.375 -0.2337 -1.8524 -0.7817
  265TIP3    H224991   1.693   5.101  16.345  0.4094  1.5335  0.8392
  266TIP3   OH224992   2.696   5.194  15.673 -0.5467  0.3453 -0.3550
  266TIP3    H124993   2.754   5.173  15.600  2.1374  1.5604  1.2451
  266TIP3    H224994   2.664   5.110  15.704 -1.6936 -0.1958 -2.7969
  267TIP3   OH224995   6.229   5.570  14.706  0.1104 -0.1971 -0.2336
  267TIP3    H124996   6.214   5.664  14.701  0.2094  0.0091  2.0768
  267TIP3    H224997   6.151   5.536  14.750  0.1501 -1.1834 -0.9002
  268TIP3   OH224998   3.475   1.999  16.773  0.3652 -0.6998 -0.0693
  268TIP3    H124999   3.479   1.998  16.678 -1.6085  1.9723 -0.2849
  268TIP3    H225000   3.381   2.000  16.793  0.7310 -1.6385  1.9331
  269TIP3   OH225001   2.728   0.340  17.651  0.4798 -0.3041  0.2016
  269TIP3    H125002   2.794   0.396  17.692 -0.7511  0.8542  0.6994
  269TIP3    H225003   2.649   0.356  17.702 -1.1538  1.2394 -2.5668
  270TIP3   OH225004   4.275   3.575  16.285  0.6976 -0.2063 -0.0495
  270TIP3    H125005   4.262   3.669  16.274  0.4216 -0.2893 -0.4680
  270TIP3    H225006   4.340   3.568  16.355  0.2785  0.2778  0.3969
  271TIP3   OH225007   5.847   3.087  17.427  0.6239 -0.1982 -0.5665
  271TIP3    H125008   5.771   3.062  17.480  0.8454 -1.5408 -0.8335
  271TIP3    H225009   5.915   3.024  17.452  2.6711  2.6817  1.7866
  272TIP3   OH225010   6.602   2.328  14.624  0.3758  0.0044 -0.0507
  272TIP3    H125011   6.568   2.290  14.705  0.7943 -0.7718 -0.2282
  272TIP3    H225012   6.534   2.388  14.595  0.1833  0.2248  0.8320
  273TIP3   OH225013   3.649   5.329  15.917  0.0211 -0.3531  0.7421
  273TIP3    H125014   3.576   5.279  15.880 -0.4688  0.0666  1.1196
  273TIP3    H225015   3.642   5.415  15.875  1.1191 -0.7156 -0.2302
  274TIP3   OH225016   0.536   3.060  16.389 -0.1782  0.0299 -0.2777
  274TIP3    H125017   0.456   3.017  16.422  0.8625 -1.0827  0.8991
  274TIP3    H225018   0.550   3.133  16.449  0.0796 -0.2080 -0.0480
  275TIP3   OH225019   5.681   5.807  14.867  0.1594 -0.0182 -0.0578
  275TIP3    H125020   5.692   5.896  14.832  0.2661  0.5126  1.2597
  275TIP3    H225021   5.642   5.757  14.795 -3.7750  2.0668  0.3534
  276TIP3   OH225022   2.051   1.422  16.353  0.0413 -0.1759  0.1402
  276TIP3    H125023   1.969   1.433  16.402  0.9841  1.2417  1.4650
  276TIP3    H225024   2.057   1.328  16.339 -1.3524 -0.4038  0.8371
  277TIP3   OH225025   2.411   4.496  14.605 -0.0822 -0.2900 -0.2681
  277TIP3    H125026   2.448   4.471  14.520 -1.9427  0.3815 -1.3253
  277TIP3    H225027   2.463   4.446  14.669  2.0658  0.0029 -1.6852
  278TIP3   OH225028   0.101   1.849  16.306 -0.1146 -0.0838 -0.4005
  278TIP3    H125029   0.042   1.922  16.324 -2.2152 -1.4638 -1.3907
  278TIP3    H225030   0.107   1.803  16.390 -1.6811 -0.7712 -0.6454
  279TIP3   OH225031   2.870   5.962  16.597  0.0860 -0.1221  0.5736
  279TIP3    H125032   2.808   5.925  16.659 -0.5302  1.8194  1.2038
  279TIP3    H225033   2.946   5.985  16.651 -0.6743  2.1057  0.8085
  280TIP3   OH225034   6.101   5.566  15.084 -0.0723  0.0507 -0.1388
  280TIP3    H125035   6.132   5.602  15.167 -0.3471  0.3821 -0.1775
  280TIP3    H225036   6.094   5.472  15.099  0.3913  0.0464  0.0464
  281TIP3   OH225037   3.421   3.610  15.916  0.6193 -0.5147 -0.2337
  281TIP3    H125038   3.470   3.687  15.944  1.5101 -1.5018  1.0325
  281TIP3    H225039   3.362   3.643  15.848  1.0804  1.2426  0.1575
  282TIP3   OH225040   5.444   3.480  16.312 -0.1587 -0.1521  0.5656
  282TIP3    H125041   5.429   3.555  16.255 -0.7590  0.1341  1.0965
  282TIP3    H225042   5.378   3.487  16.381 -1.9519 -2.5366 -0.7248
  283TIP3   OH225043   0.669   2.737  16.434  0.3290  0.2974 -0.0950
  283TIP3    H125044   0.594   2.722  16.376 -0.6222  0.8739  0.9461
  283TIP3    H225045   0.721   2.804  16.390 -0.3583  0.7010 -0.3074
  284TIP3   OH225046   6.189   1.373   7.599  0.5276  0.6522  0.0633
  284TIP3    H125047   6.111   1.341   7.644 -0.0040  2.3739  0.4244
  284TIP3    H225048   6.183   1.468   7.605  2.4015  0.8309 -0.3558
  285TIP3   OH225049   5.653   0.549   8.300 -0.5890 -0.1155  0.0461
  285TIP3    H125050   5.598   0.580   8.372 -0.5725 -1.7086  0.7996
  285TIP3    H225051   5.669   0.457   8.321  0.7400 -0.1957 -1.1851
  286TIP3   OH225052   4.076   4.861   9.049  0.3138 -0.3442  0.6292
  286TIP3    H125053   4.088   4.954   9.070 -1.0198 -0.5149  2.4298
  286TIP3    H225054   4.027   4.861   8.967 -1.0149  0.6067  1.3849
  287TIP3   OH225055   0.841   5.150   9.249 -0.1377  0.2769 -0.1073
  287TIP3    H125056   0.852   5.171   9.341  0.2847 -1.2590  0.2179
  287TIP3    H225057   0.748   5.167   9.232 -0.3580  0.0271  0.7658
  288TIP3   OH225058   2.320   3.077   7.715  0.4563 -0.2554 -0.0038
  288TIP3    H125059   2.258   3.046   7.650  1.0551  0.2958 -0.8549
  288TIP3    H225060   2.406   3.051   7.682  0.7830  0.1737  0.4806
  289TIP3   OH225061   5.018   3.600  10.055 -1.0295  0.4286  0.2290
  289TIP3    H125062   4.922   3.601  10.059 -1.0609 -1.1996  0.2408
  289TIP3    H225063   5.041   3.692  10.040 -2.6049  0.7883 -0.2392
  290TIP3   OH225064   1.767   0.800   8.300  0.0574  0.2743 -0.2709
  290TIP3    H125065   1.715   0.878   8.284  1.5886  1.3067 -0.3986
  290TIP3    H225066   1.807   0.781   8.215 -0.4239 -0.7759 -0.2855
  291TIP3   OH225067   6.466   2.320   9.284 -0.3633  0.0732  0.3247
  291TIP3    H125068   6.559   2.300   9.295  0.2736  0.6465 -2.8940
  291TIP3    H225069   6.426   2.235   9.265 -0.6121 -0.2372  2.1460
  292TIP3   OH225070   3.802   5.314   9.780 -0.0199 -0.2933  0.6075
  292TIP3    H125071   3.862   5.361   9.838 -1.5323  2.2105  0.3234
  292TIP3    H225072   3.821   5.221   9.796  3.4505  0.3212  0.9296
  293TIP3   OH225073   0.513   2.137   9.398  0.2120  0.1929  0.1600
  293TIP3    H125074   0.425   2.154   9.366  1.4081 -0.4160 -4.0563
  293TIP3    H225075   0.559   2.221   9.391  0.5870 -0.0187  0.0384
  294TIP3   OH225076   4.766   1.659   7.052 -0.8482 -0.2449 -0.0802
  294TIP3    H125077   4.735   1.585   6.999 -1.1567  0.4464 -0.8950
  294TIP3    H225078   4.701   1.727   7.036 -0.7647  0.0867  0.9556
  295TIP3   OH225079   6.271   5.297   8.599  0.5547  1.1707  0.2086
  295TIP3    H125080   6.181   5.285   8.568  0.5263  1.5652  0.1376
  295TIP3    H225081   6.277   5.389   8.622  0.3770  0.7741  1.9871
  296TIP3   OH225082   0.116   2.616   9.186  0.0699  0.4727  0.1993
  296TIP3    H125083   0.208   2.610   9.213 -0.3841 -0.2951  1.6602
  296TIP3    H225084   0.092   2.707   9.205  0.0475  0.2108  1.5250
  297TIP3   OH225085   3.163   2.285   8.985  0.7585 -0.4728 -0.1829
  297TIP3    H125086   3.227   2.356   8.987 -0.0139  0.3134 -1.6290
  297TIP3    H225087   3.190   2.230   8.911  1.1408 -1.5130  0.7025
  298TIP3   OH225088   1.845   1.004   6.909  0.2846  0.0662 -0.0508
  298TIP3    H125089   1.860   0.925   6.961  1.4629 -0.3516 -0.9713
  298TIP3    H225090   1.827   0.972   6.821 -2.9681  0.7086  0.2475
  299TIP3   OH225091   3.551   0.630   7.266  0.3777 -0.6102 -0.0854
  299TIP3    H125092   3.507   0.617   7.350 -0.9299 -0.0832 -0.6561
  299TIP3    H225093   3.614   0.700   7.282  0.3662 -0.7396  0.5358
  300TIP3   OH225094   0.088   3.611   9.122 -0.2452  0.3622  0.1567
  300TIP3    H125095   0.058   3.586   9.210 -0.2087  2.1804  0.7289
  300TIP3    H225096   0.019   3.582   9.063 -0.3396 -0.7546  0.7859
  301TIP3   OH225097   3.687   0.065   8.255 -0.4468  0.1464 -0.0141
  301TIP3    H125098   3.727  -0.019   8.277 -0.4523  0.3651  0.8682
  301TIP3    H225099   3.626   0.044   8.184  0.4127 -0.3756 -0.6181
  302TIP3   OH225100   1.477   0.874   7.878  0.1021  0.0814 -0.5675
  302TIP3    H125101   1.423   0.806   7.920  1.6737 -2.8354 -2.9385
  302TIP3    H225102   1.437   0.956   7.906 -3.4596 -1.8156  0.5393
  303TIP3   OH225103   3.731   2.881   9.521 -0.7264  0.3678 -0.0858
  303TIP3    H125104   3.764   2.798   9.553  0.1241  0.3933 -0.8628
  303TIP3    H225105   3.697   2.862   9.433 -1.9570  0.5316  0.3323
  304TIP3   OH225106   4.690   6.437   8.579  0.7925  0.3970 -0.4790
  304TIP3    H125107   4.685   6.364   8.517  0.9041  1.8759 -2.2950
  304TIP3    H225108   4.781   6.466   8.573  0.3393  1.7688 -1.1085
  305TIP3   OH225109   1.447   1.863   8.977  0.7533  0.1126  0.0635
  305TIP3    H125110   1.530   1.823   9.004 -0.3605 -3.6281 -1.3958
  305TIP3    H225111   1.466   1.902   8.892  1.5972  1.7861  0.9766
  306TIP3   OH225112   5.196   0.792   7.227 -0.2848 -0.4888  0.5558
  306TIP3    H125113   5.291   0.797   7.220 -0.3364  0.1348  0.2984
  306TIP3    H225114   5.176   0.701   7.205  0.5388 -1.6834  4.0338
  307TIP3   OH225115   4.825   1.974   8.651 -0.6497 -0.4040  0.1476
  307TIP3    H125116   4.843   1.968   8.558  0.0449  0.4130  0.2252
  307TIP3    H225117   4.771   1.896   8.670 -1.1881 -0.3292 -1.0083
  308TIP3   OH225118   6.418   6.404   8.910 -0.2552  0.5367  0.1823
  308TIP3    H125119   6.447   6.360   8.830  0.7483  0.9873  0.2933
  308TIP3    H225120   6.333   6.441   8.887 -0.0227  0.5745 -0.6421
  309TIP3   OH225121   0.299   4.895   6.840 -0.3275  0.3542  0.9039
  309TIP3    H125122   0.376   4.839   6.851 -0.7408 -0.5377 -0.5106
  309TIP3    H225123   0.242   4.872   6.913  0.4314  0.5094  1.5607
  310TIP3   OH225124   5.238   0.072   8.664 -0.1393  0.0983 -0.5338
  310TIP3    H125125   5.150   0.086   8.629  0.3661 -0.5426 -2.2041
  310TIP3    H225126   5.272  -0.002   8.614  0.9387 -0.4223  0.8953
  311TIP3   OH225127   6.460   1.692   9.514  0.2528  0.0749 -0.2143
  311TIP3    H125128   6.528   1.683   9.447  0.1090  0.0978 -0.3644
  311TIP3    H225129   6.388   1.638   9.481  0.5252 -0.6664  0.3691
  312TIP3   OH225130   1.742   1.192   7.956 -0.6190  0.5998  0.1169
  312TIP3    H125131   1.688   1.267   7.980  0.6664  1.7593 -0.4674
  312TIP3    H225132   1.816   1.230   7.908  0.1869 -1.0195  0.0005
  313TIP3   OH225133   5.917   4.617   7.884  0.4827  0.2956  0.1041
  313TIP3    H125134   5.848   4.569   7.838  1.0122  0.5965 -1.0390
  313TIP3    H225135   5.894   4.610   7.977 -1.4395  0.9491 -0.2843
  314TIP3   OH225136   1.788   1.981   6.404 -0.2380  0.2133  0.1794
  314TIP3    H125137   1.707   2.017   6.441 -0.3201 -1.7249  2.0392
  314TIP3    H225138   1.764   1.954   6.316 -1.8420 -0.9179  0.9137
  315TIP3   OH225139   4.644   1.773   9.010  0.0727 -0.8882  0.6863
  315TIP3    H125140   4.596   1.853   8.991  0.9170 -0.8668 -1.7102
  315TIP3    H225141   4.669   1.782   9.102 -0.1071  1.4716  0.5814
  316TIP3   OH225142   6.336   6.637   7.976  0.3429 -0.0683  0.0293
  316TIP3    H125143   6.419   6.598   7.950  0.1195 -0.4878 -0.0668
  316TIP3    H225144   6.346   6.730   7.956  0.5915 -0.2029 -0.4942
  317TIP3   OH225145   1.486   2.277   8.245 -0.2101 -0.4578  0.0378
  317TIP3    H125146   1.474   2.271   8.150 -2.8882 -1.8366  0.3785
  317TIP3    H225147   1.398   2.290   8.280  0.6509 -0.4693  2.3913
  318TIP3   OH225148   1.705   3.209   6.650 -0.1780  0.6020  0.4728
  318TIP3    H125149   1.649   3.152   6.703  0.8468 -1.0575 -0.1650
  318TIP3    H225150   1.754   3.260   6.715  0.1856 -0.5306  1.1189
  319TIP3   OH225151   6.621   3.552   6.969  0.1165  0.7262  0.5651
  319TIP3    H125152   6.679   3.627   6.977 -1.3204  2.0141 -0.4035
  319TIP3    H225153   6.548   3.584   6.916 -2.0129 -0.4776  2.5778
  320TIP3   OH225154   1.614   6.513   7.486 -0.4570  0.5667 -0.3825
  320TIP3    H125155   1.670   6.457   7.541 -0.5374  2.2348  1.5036
  320TIP3    H225156   1.613   6.469   7.401  0.3817 -1.6866  0.6866
  321TIP3   OH225157   3.329   1.896   7.617 -0.3415  0.1484 -0.0532
  321TIP3    H125158   3.382   1.928   7.690  1.1553 -2.6043  0.2039
  321TIP3    H225159   3.240   1.926   7.637  0.5876  2.3521  1.0767
  322TIP3   OH225160   2.727   2.138   7.559 -0.3438 -0.0385 -0.2189
  322TIP3    H125161   2.663   2.203   7.533 -3.4378 -2.1788  1.4772
  322TIP3    H225162   2.778   2.179   7.628 -0.3200  1.4411 -1.0777
  323TIP3   OH225163   0.621   6.253  16.659  0.0198  0.2042  0.1812
  323TIP3    H125164   0.673   6.308  16.601 -0.1496  0.3134  0.1339
  323TIP3    H225165   0.659   6.268  16.746  0.9571 -0.7505 -0.0341
  324TIP3   OH225166   2.028   5.855  16.797  0.2254 -0.3680 -0.4773
  324TIP3    H125167   1.942   5.832  16.831 -0.1229  0.6168 -0.6674
  324TIP3    H225168   2.041   5.946  16.823  2.0884 -1.0551  1.3533
  325TIP3   OH225169   1.560   1.774  15.271 -0.2814  0.0592  0.1909
  325TIP3    H125170   1.619   1.787  15.346 -2.1165 -0.1650  1.7679
  325TIP3    H225171   1.485   1.727  15.308 -1.0786 -0.4240 -1.9081
  326TIP3   OH225172   1.104   1.465  15.984 -0.1476  0.1244  0.0554
  326TIP3    H125173   1.186   1.425  16.013 -0.4407 -0.9955 -0.6084
  326TIP3    H225174   1.105   1.455  15.889 -1.5237 -0.8437  0.1226
  327TIP3   OH225175   2.918   6.253  17.190 -0.5704  0.2939 -0.5002
  327TIP3    H125176   2.885   6.335  17.152 -1.0329 -0.1932 -1.1661
  327TIP3    H225177   2.855   6.187  17.162  0.8546 -0.6255 -1.6296
  328TIP3   OH225178   4.320   6.353  16.622  0.3638  0.0461  0.2103
  328TIP3    H125179   4.378   6.426  16.600 -0.0791  0.7957  1.4060
  328TIP3    H225180   4.236   6.377  16.583  0.4997 -0.3534 -0.3244
  329TIP3   OH225181   1.894   1.072  16.387 -0.4407 -0.4956  0.2193
  329TIP3    H125182   1.922   1.035  16.303 -0.0793 -0.3600  0.2809
  329TIP3    H225183   1.803   1.098  16.372 -1.0449 -2.3395  0.4599
  330TIP3   OH225184   5.374   1.329  15.784 -0.1653  0.7835  0.0510
  330TIP3    H125185   5.378   1.424  15.795 -0.1563  0.9320 -1.1692
  330TIP3    H225186   5.309   1.300  15.848 -0.1870  1.6098  0.4115
  331TIP3   OH225187   4.269   5.356  15.895 -0.1759 -0.1398 -0.4124
  331TIP3    H125188   4.261   5.262  15.906 -1.3090 -0.1036 -0.7277
  331TIP3    H225189   4.213   5.376  15.820  1.2606  0.5986 -1.3280
  332TIP3   OH225190   3.309   1.252  16.614 -0.1663  0.3957 -0.1925
  332TIP3    H125191   3.224   1.257  16.657 -1.4378 -1.6214 -2.2895
  332TIP3    H225192   3.366   1.208  16.678 -0.3805  2.4977  1.5481
  333TIP3   OH225193   2.236   2.803  17.891 -0.0509  0.4561 -0.1008
  333TIP3    H125194   2.167   2.865  17.869 -0.1238  0.7802  0.9787
  333TIP3    H225195   2.310   2.857  17.915  0.4452  0.1062 -0.8036
  334TIP3   OH225196   4.809   6.117  15.383 -0.3125 -0.3191 -0.3523
  334TIP3    H125197   4.816   6.055  15.311  1.2316  1.2998 -1.7005
  334TIP3    H225198   4.767   6.194  15.345  1.6829  1.0580  0.0415
  335TIP3   OH225199   0.025   2.594  17.738 -0.1631  0.2046  0.0299
  335TIP3    H125200   0.068   2.624  17.818 -2.0691  1.8290  0.5253
  335TIP3    H225201  -0.032   2.523  17.766 -0.6309  0.5950  0.0763
  336TIP3   OH225202   1.403   4.052  16.247  0.0093 -0.0087 -0.1707
  336TIP3    H125203   1.398   3.974  16.302  2.3081 -0.2158 -0.1898
  336TIP3    H225204   1.376   4.022  16.160  2.4852 -1.2771 -0.5811
  337TIP3   OH225205   1.895   3.019  15.786  0.2864  0.1865  0.3607
  337TIP3    H125206   1.911   3.052  15.874  1.6210 -0.3070  0.3250
  337TIP3    H225207   1.809   3.054  15.763  0.5411  1.5041  1.2945
  338TIP3   OH225208   1.360   2.399  16.690  0.1972 -0.8354 -0.1418
  338TIP3    H125209   1.363   2.359  16.777  0.1589  2.0062  1.2719
  338TIP3    H225210   1.268   2.426  16.679  0.7936  1.6879  0.4232
  339TIP3   OH225211   2.034   2.975  17.451 -0.9795  0.1389 -0.4459
  339TIP3    H125212   2.090   2.900  17.469 -1.0117  0.8272  3.3391
  339TIP3    H225213   2.087   3.031  17.394  1.2163 -0.3785  0.9645
  340TIP3   OH225214   5.819   3.507  15.462 -0.0965 -0.0933  0.1764
  340TIP3    H125215   5.880   3.464  15.522 -0.6754  0.1505  0.9520
  340TIP3    H225216   5.865   3.586  15.434  1.1466 -1.3559 -1.5814
  341TIP3   OH225217   5.166   6.508  17.255 -0.1892  0.0200 -0.4861
  341TIP3    H125218   5.193   6.599  17.269  0.0484  0.3308 -2.6715
  341TIP3    H225219   5.071   6.512  17.244 -0.1025  0.1343 -1.2846
  342TIP3   OH225220   2.114   5.167  14.917 -0.4645  0.2466  0.6852
  342TIP3    H125221   2.120   5.118  14.999 -0.3315  0.5352  0.8506
  342TIP3    H225222   2.202   5.165  14.881 -0.6061 -0.2062  0.3544
  343TIP3   OH225223   1.622   1.158  16.413  0.4828  0.8105  0.2014
  343TIP3    H125224   1.613   1.116  16.498  0.9309  0.9484  0.3186
  343TIP3    H225225   1.535   1.152  16.374  0.5200 -0.1644  0.2474
  344TIP3   OH225226   3.003   4.558  16.768 -0.6429  0.5237  0.4652
  344TIP3    H125227   2.917   4.568  16.809 -0.4634 -2.4160  1.8136
  344TIP3    H225228   3.001   4.472  16.728  1.3960  0.7538 -0.2613
  345TIP3   OH225229   2.782   4.994  17.357 -0.3487 -0.5770 -0.1525
  345TIP3    H125230   2.783   4.898  17.366 -1.2627 -0.6263 -0.4455
  345TIP3    H225231   2.689   5.017  17.358 -0.2232  0.1339 -1.7770
  346TIP3   OH225232   6.478   2.965  17.845  0.1146 -0.0800  0.2756
  346TIP3    H125233   6.569   2.975  17.872 -0.1950  2.1020  0.7045
  346TIP3    H225234   6.483   2.923  17.759  1.4300 -1.3027  0.9172
  347TIP3   OH225235   4.567   5.332  15.240 -0.0694 -0.0469 -0.4288
  347TIP3    H125236   4.620   5.409  15.221  1.3116 -1.2979 -1.9284
  347TIP3    H225237   4.516   5.356  15.317 -0.2110  2.5862 -1.2680
  348TIP3   OH225238   3.735   5.817  14.715 -0.3875  0.2421 -0.6029
  348TIP3    H125239   3.829   5.831  14.718 -0.0572 -1.8367  1.1486
  348TIP3    H225240   3.725   5.727  14.685 -1.7654  0.0433  0.3487
  349TIP3   OH225241   6.430   1.059  16.150  0.6925  0.4156  0.0404
  349TIP3    H125242   6.349   1.014  16.131  1.2193  0.0086 -1.3114
  349TIP3    H225243   6.438   1.126  16.082  0.8992  1.2589  0.8692
  350TIP3   OH225244   3.510   5.990  16.980  0.1752 -0.1184  0.4999
  350TIP3    H125245   3.475   5.997  16.891  0.2859  0.6201  0.5087
  350TIP3    H225246   3.601   6.019  16.972  0.1657  0.0110  0.8632
  351TIP3   OH225247   2.958   1.536  14.797 -0.0359  0.1284 -0.2084
  351TIP3    H125248   2.989   1.625  14.818 -2.3824  0.8021  0.8113
  351TIP3    H225249   2.978   1.485  14.875 -1.8149  0.6957  0.6718
  352TIP3   OH225250   1.411   5.900  13.989 -0.3382  0.0023 -0.0257
  352TIP3    H125251   1.351   5.848  13.936 -1.1645  1.1765 -0.2779
  352TIP3    H225252   1.374   5.988  13.988  0.2275  0.2920  1.5897
  353TIP3   OH225253   1.155   2.041  16.702  0.1679  0.8551  0.3686
  353TIP3    H125254   1.104   2.046  16.783 -1.6716  0.3066 -0.6892
  353TIP3    H225255   1.152   2.130  16.666  0.3339  0.9226  0.5205
  354TIP3   OH225256   5.005   1.415  15.720 -0.4929 -0.1365  0.3492
  354TIP3    H125257   4.988   1.497  15.767 -1.3632 -0.2876  0.3232
  354TIP3    H225258   5.000   1.439  15.627 -1.9000 -0.4055  0.3221
  355TIP3   OH225259   1.654   2.295  18.086 -0.0669 -0.0692  0.6048
  355TIP3    H125260   1.665   2.303  18.180 -0.7520  0.8152  0.6188
  355TIP3    H225261   1.732   2.336  18.049  0.4699 -0.9060  0.7785
  356TIP3   OH225262   3.674   0.969  15.860 -0.6778  0.1396 -0.3677
  356TIP3    H125263   3.711   0.942  15.776 -0.7381  0.2275 -0.4234
  356TIP3    H225264   3.639   1.056  15.844 -1.7787 -0.3278 -0.5798
  357TIP3   OH225265   5.057   3.486  16.250 -0.3563 -0.4476  0.3513
  357TIP3    H125266   4.973   3.488  16.296 -1.1024 -0.6406 -0.9460
  357TIP3    H225267   5.076   3.393  16.239  0.8936 -0.4533  2.0834
  358TIP3   OH225268   1.188   1.232  16.882 -0.1482 -0.3446  0.1285
  358TIP3    H125269   1.268   1.194  16.917 -1.1735 -2.2185  0.5860
  358TIP3    H225270   1.118   1.192  16.934 -1.3791  1.2960 -0.2109
  359TIP3   OH225271   2.517   2.730  17.405  0.0496  0.0307 -0.4655
  359TIP3    H125272   2.611   2.746  17.396  0.2504 -0.1277  1.0647
  359TIP3    H225273   2.506   2.637  17.387  0.3503 -0.1629  0.2980
  360TIP3   OH225274   1.661   5.310  16.123 -0.6506  0.2099  0.2335
  360TIP3    H125275   1.718   5.234  16.111  0.2843  1.0721 -0.9768
  360TIP3    H225276   1.679   5.339  16.213 -1.6757 -1.4799  1.0371
  361TIP3   OH225277   4.446   4.491  15.746  0.0216 -0.2753  0.4301
  361TIP3    H125278   4.538   4.472  15.726  0.2420  1.1081  0.0100
  361TIP3    H225279   4.412   4.531  15.666 -1.9154 -3.7429 -0.6651
  362TIP3   OH225280   4.426   3.408  15.721  0.0369 -0.2455  0.0925
  362TIP3    H125281   4.510   3.453  15.713  0.3124 -0.8545 -0.5054
  362TIP3    H225282   4.414   3.397  15.816 -0.9998  2.8351  0.4327
  363TIP3   OH225283   6.122   5.285  15.137 -0.1254  0.6030  0.0841
  363TIP3    H125284   6.070   5.237  15.073  2.4565  0.8287 -2.3691
  363TIP3    H225285   6.186   5.221  15.168  0.7920  1.3939 -0.1516
  364TIP3   OH225286   0.856   4.483  17.509 -0.1460  0.2402  0.1938
  364TIP3    H125287   0.827   4.433  17.432 -0.6120  0.0258  0.5083
  364TIP3    H225288   0.776   4.501  17.558  0.1674  0.2550  0.7051
  365TIP3   OH225289   3.206   1.079  18.093  0.2701 -0.7465 -0.0222
  365TIP3    H125290   3.244   1.113  18.012  0.6923 -1.3148 -0.0686
  365TIP3    H225291   3.152   1.151  18.126 -2.3371 -1.4756 -2.3192
  366TIP3   OH225292   4.833   0.239  13.930  0.4908 -0.5333  0.8465
  366TIP3    H125293   4.928   0.228  13.937  0.5936  0.7565  1.8280
  366TIP3    H225294   4.819   0.333  13.940 -0.9513 -0.7829  1.4190
  367TIP3   OH225295   2.241   3.441  17.088 -0.6439  0.1859 -0.0438
  367TIP3    H125296   2.266   3.532  17.069  0.5040 -0.0041  0.4419
  367TIP3    H225297   2.297   3.389  17.029 -0.6145 -0.2343  0.3495
  368TIP3   OH225298   6.507   0.656  15.523 -0.3440  0.0216  0.1457
  368TIP3    H125299   6.522   0.744  15.487 -1.6337 -0.0098 -0.5235
  368TIP3    H225300   6.587   0.636  15.571 -0.3056  1.8841  0.9610
  369TIP3   OH225301   3.346   5.964  17.723 -0.1038 -0.1146  0.5697
  369TIP3    H125302   3.436   5.994  17.738  0.0650 -0.0634 -0.4642
  369TIP3    H225303   3.313   6.021  17.654  0.3855 -2.4782 -1.7829
  370TIP3   OH225304   2.753   1.665  15.678 -0.0539 -0.2539 -0.7746
  370TIP3    H125305   2.808   1.730  15.721 -2.5406  2.0632 -0.8734
  370TIP3    H225306   2.685   1.644  15.742 -0.9464 -0.5368 -1.7881
  371TIP3   OH225307   0.556   6.095  16.447 -0.3672  0.0975 -0.0057
  371TIP3    H125308   0.530   6.157  16.516  0.2977  0.1100  0.2421
  371TIP3    H225309   0.564   6.149  16.369  0.1933  0.3219  0.2064
  372TIP3   OH225310   5.280   4.701  16.051 -0.5443  0.3311 -0.1324
  372TIP3    H125311   5.266   4.640  15.978 -0.8966 -1.2168  1.1780
  372TIP3    H225312   5.374   4.716  16.052 -0.7680  3.0914 -2.9435
  373TIP3   OH225313   5.478   4.071  17.768 -1.0762 -0.3851  0.3033
  373TIP3    H125314   5.534   4.125  17.713 -1.2136  1.4340  1.8407
  373TIP3    H225315   5.540   4.021  17.822 -0.9417 -2.2032 -1.4180
  374TIP3   OH225316   6.118   0.153  15.906 -0.5827 -0.0414  0.2255
  374TIP3    H125317   6.129   0.194  15.820  3.3426  1.4481  1.2068
  374TIP3    H225318   6.083   0.223  15.962 -1.4470 -0.4868  0.2637
  375TIP3   OH225319   5.302   0.634  16.752  0.7901 -0.4718  0.3945
  375TIP3    H125320   5.253   0.630  16.834 -2.2735 -0.3528 -1.2499
  375TIP3    H225321   5.366   0.563  16.759 -0.2293 -1.2851  2.3739
  376TIP3   OH225322   3.465   0.791  16.624 -0.0779  0.2165 -0.0771
  376TIP3    H125323   3.388   0.836  16.592  0.9883  1.4909 -0.9258
  376TIP3    H225324   3.503   0.749  16.547  0.6754  0.5228  0.1133
  377TIP3   OH225325   3.082   1.962  16.271 -0.9580  0.3073 -0.1248
  377TIP3    H125326   3.135   2.007  16.336  0.3753  0.1808 -1.0783
  377TIP3    H225327   3.034   1.896  16.321 -1.0764  1.1466  0.9192
  378TIP3   OH225328   4.163   0.327  17.407  0.2497 -0.7502 -0.0292
  378TIP3    H125329   4.135   0.400  17.352 -2.3034 -1.9383 -0.4431
  378TIP3    H225330   4.148   0.249  17.354  0.0068 -1.7761  1.4613
  379TIP3   OH225331   3.861   1.606  16.465 -1.2927  0.4367 -0.2705
  379TIP3    H125332   3.792   1.549  16.431 -2.1952  0.6558  1.1579
  379TIP3    H225333   3.829   1.636  16.550  0.7490  0.2010  0.6340
  380TIP3   OH225334   4.766   2.268  16.447  0.2058  0.0625  0.1794
  380TIP3    H125335   4.712   2.189  16.451 -0.7441  0.7466  1.8862
  380TIP3    H225336   4.722   2.330  16.505  1.4097  1.5600 -0.4387
  381TIP3   OH225337   1.198   0.982  15.732 -0.2759  0.1707  0.2039
  381TIP3    H125338   1.256   0.954  15.802  0.9195  2.6073  0.2789
  381TIP3    H225339   1.111   0.985  15.772  0.1034 -0.1443  1.0698
  382TIP3   OH225340   0.113   0.617  14.907  0.2239  0.0510  0.6415
  382TIP3    H125341   0.037   0.638  14.853  1.8300  0.9769 -1.3886
  382TIP3    H225342   0.086   0.637  14.996 -1.7148  0.8853 -0.0912
  383TIP3   OH225343   0.370   1.370  14.653  0.2158  0.1539 -0.0012
  383TIP3    H125344   0.445   1.369  14.593 -1.1289  0.6274 -1.7859
  383TIP3    H225345   0.377   1.288  14.701  0.5558 -0.9954 -1.8919
  384TIP3   OH225346   4.450   4.741  17.993 -0.2979  0.1221  0.4153
  384TIP3    H125347   4.505   4.678  18.039 -1.0046  0.7367  2.1633
  384TIP3    H225348   4.501   4.822  17.993 -0.0228 -0.0411 -0.5026
  385TIP3   OH225349   4.325   1.149  16.308 -0.2943 -0.2397  0.1811
  385TIP3    H125350   4.409   1.168  16.265  1.2902  0.6114  3.3540
  385TIP3    H225351   4.279   1.233  16.309 -2.1305 -1.0086 -3.0138
  386TIP3   OH225352   6.129   4.337  16.883 -0.5940  0.5932 -0.2258
  386TIP3    H125353   6.061   4.395  16.917 -1.5252 -0.2772 -0.5255
  386TIP3    H225354   6.098   4.313  16.795  0.2861  0.4605 -0.5127
  387TIP3   OH225355   2.902   4.065  15.176 -0.3720 -0.3813  0.4795
  387TIP3    H125356   2.938   3.981  15.203  1.1362  0.3087  0.7161
  387TIP3    H225357   2.829   4.043  15.119  0.5782 -1.8711 -0.2197
  388TIP3   OH225358   2.240   3.988  16.946  0.2190 -0.2916 -0.0631
  388TIP3    H125359   2.298   4.056  16.982 -2.1325  1.2320  1.1202
  388TIP3    H225360   2.237   4.007  16.852  1.7785 -0.5720 -0.1962
  389TIP3   OH225361   0.363   4.260  18.114  0.3305 -0.1357 -0.1413
  389TIP3    H125362   0.451   4.297  18.100 -0.0399  0.4735 -0.9243
  389TIP3    H225363   0.306   4.336  18.123 -0.1246 -0.5308  0.4202
  390TIP3   OH225364   1.245   4.718  17.080 -0.1680 -1.1173  0.4198
  390TIP3    H125365   1.307   4.663  17.031 -0.3255 -1.7670  0.9391
  390TIP3    H225366   1.192   4.656  17.130 -2.0972 -0.6795 -0.9576
  391TIP3   OH225367   2.717   2.824  17.965 -0.1837  0.5068  0.8849
  391TIP3    H125368   2.787   2.827  17.900 -0.0894  0.6600  0.9938
  391TIP3    H225369   2.720   2.910  18.008  0.5588 -0.0310  1.9410
  392TIP3   OH225370   0.840   3.674  17.828  0.1152 -0.4231 -0.0114
  392TIP3    H125371   0.928   3.699  17.855  0.3424 -1.6005  0.3929
  392TIP3    H225372   0.838   3.578  17.836 -1.8867 -0.3087  2.2217
  393TIP3   OH225373   6.160   3.102  16.329 -0.3631 -0.5881  0.5318
  393TIP3    H125374   6.143   3.008  16.320 -1.4347 -0.5399  1.7334
  393TIP3    H225375   6.101   3.130  16.399 -0.3671  1.0703 -0.1015
  394TIP3   OH225376   3.163   5.906  16.908  0.0384  0.3938 -0.1791
  394TIP3    H125377   3.193   5.887  16.819  1.2843  0.9267  0.1081
  394TIP3    H225378   3.125   5.994  16.903 -1.3178 -0.1809 -0.4889
  395TIP3   OH225379   5.484   5.436  17.091 -0.0252  0.6594  0.0170
  395TIP3    H125380   5.525   5.515  17.054  0.5065  1.4243  2.0872
  395TIP3    H225381   5.394   5.462  17.109 -0.6591 -0.1075 -1.7903
  396TIP3   OH225382   0.450   2.705  17.661 -0.3587  0.2893  0.5415
  396TIP3    H125383   0.534   2.674  17.693 -0.2853 -0.0981 -0.0253
  396TIP3    H225384   0.459   2.800  17.659  0.0607  0.2497  0.4866
  397TIP3   OH225385   6.039   2.603  17.954 -0.4051 -0.2802 -0.2933
  397TIP3    H125386   6.087   2.630  18.032  1.2469 -1.4187 -0.8782
  397TIP3    H225387   5.947   2.624  17.974  0.2902  1.9415  0.8437
  398TIP3   OH225388   1.259   6.021  16.359  0.2728  0.2173  0.2577
  398TIP3    H125389   1.182   6.009  16.302 -0.7705 -0.2247  1.7065
  398TIP3    H225390   1.249   6.109  16.395  1.5462  0.9499 -1.0752
  399TIP3   OH225391   0.030   0.805  17.353 -0.0404  0.1298 -0.3729
  399TIP3    H125392   0.110   0.843  17.391  0.2726 -0.0566 -0.8289
  399TIP3    H225393  -0.026   0.787  17.428  0.2498  0.4883 -0.0651
  400TIP3   OH225394   3.653   2.039  18.037 -0.5126 -0.1600 -0.2441
  400TIP3    H125395   3.568   2.017  18.075 -0.7137  1.4034  0.2831
  400TIP3    H225396   3.674   2.125  18.072  0.1691  0.5628 -2.2512
  401TIP3   OH225397   5.098   0.257  15.107 -0.1971 -0.1089 -0.4371
  401TIP3    H125398   5.102   0.348  15.136 -0.8091  0.2273 -1.3398
  401TIP3    H225399   5.008   0.230  15.126 -0.4136 -0.0879 -1.3822
  402TIP3   OH225400   2.763   6.201  16.463 -0.0502  0.3623 -0.4615
  402TIP3    H125401   2.675   6.218  16.430  0.0847  0.2934 -0.8632
  402TIP3    H225402   2.753   6.123  16.518 -0.2566  0.4131 -0.4257
  403TIP3   OH225403   4.791   5.559  15.129  0.2779  0.0196  0.0537
  403TIP3    H125404   4.861   5.496  15.109  0.2088 -0.1160  0.2365
  403TIP3    H225405   4.788   5.615  15.052  0.2271 -0.3050 -0.1862
  404TIP3   OH225406   3.218   0.382  16.543  0.1953 -0.5871  0.0235
  404TIP3    H125407   3.187   0.382  16.633 -0.6727  0.7996 -0.2572
  404TIP3    H225408   3.174   0.456  16.502  1.6984 -0.2952 -1.1579
  405TIP3   OH225409   0.391   6.650  15.227 -0.0267 -0.2251  0.4466
  405TIP3    H125410   0.398   6.737  15.265  0.6611  0.1987 -0.6200
  405TIP3    H225411   0.430   6.592  15.293  0.1368  0.3526  0.8663
  406TIP3   OH225412   2.784   6.549  14.396  0.2631 -0.2812  0.4813
  406TIP3    H125413   2.712   6.611  14.411  0.7071  0.4690 -0.3925
  406TIP3    H225414   2.762   6.506  14.314  0.2570 -0.8709  0.7852
  407TIP3   OH225415   2.810   2.031  15.410  0.2320 -0.0356 -0.2005
  407TIP3    H125416   2.767   2.036  15.324  0.1353 -0.6857 -0.1903
  407TIP3    H225417   2.794   1.942  15.440  1.8944 -0.4215 -0.3517
  408TIP3   OH225418   3.923   4.904  17.100  0.9863 -0.0068 -0.3763
  408TIP3    H125419   3.939   4.822  17.053  1.4458  0.3941 -0.9430
  408TIP3    H225420   3.899   4.966  17.031 -1.2971 -0.1199  0.2376
  409TIP3   OH225421   0.237   0.410  15.633  0.3951  0.7401 -0.5641
  409TIP3    H125422   0.177   0.480  15.659 -0.0496  0.1752 -0.0225
  409TIP3    H225423   0.318   0.430  15.680 -0.1031  0.2577  0.5477
  410TIP3   OH225424   2.582   6.433  16.897 -0.5878 -0.0397  0.4322
  410TIP3    H125425   2.573   6.461  16.988 -1.8410 -1.5652  0.8071
  410TIP3    H225426   2.513   6.481  16.851 -0.9789 -0.4383  0.5907
  411TIP3   OH225427   1.130   3.728  17.017  0.0503 -0.1288  0.7696
  411TIP3    H125428   1.131   3.819  17.044  0.4413 -0.1009  0.6703
  411TIP3    H225429   1.168   3.681  17.092  1.1280 -0.0529  0.2949
  412TIP3   OH225430   5.388   6.598  15.058 -0.1955 -0.2328  0.5376
  412TIP3    H125431   5.433   6.529  15.107  0.6328 -2.3035 -2.8624
  412TIP3    H225432   5.451   6.671  15.057  1.6341 -1.7268 -0.9302
  413TIP3   OH225433   6.311   2.010  17.596 -0.5688 -0.4745  0.7602
  413TIP3    H125434   6.253   1.992  17.670 -0.9665 -1.2067  0.2807
  413TIP3    H225435   6.280   2.093  17.561 -1.7146 -1.1256  0.1628
  414TIP3   OH225436   3.004   6.575  16.385 -0.1244  0.4125 -0.3823
  414TIP3    H125437   2.968   6.519  16.317  1.1411  2.6148 -3.1037
  414TIP3    H225438   2.933   6.636  16.406 -0.7312 -0.6709  0.8419
  415TIP3   OH225439   5.329   5.742  15.946  0.0453  0.2616 -0.0779
  415TIP3    H125440   5.372   5.709  15.867  1.1257  0.5834  0.3485
  415TIP3    H225441   5.377   5.822  15.967 -1.4481  1.2095 -0.1494
  416TIP3   OH225442   2.549   0.922  17.207 -0.2150  0.1065 -0.0283
  416TIP3    H125443   2.613   0.968  17.262 -0.7853  0.9992 -0.0813
  416TIP3    H225444   2.464   0.952  17.240 -0.6595 -1.8289  0.7080
  417TIP3   OH225445   3.669   3.188  14.753 -0.6921  0.2499  0.5414
  417TIP3    H125446   3.654   3.117  14.816 -3.1032 -0.1099 -0.3114
  417TIP3    H225447   3.592   3.245  14.763 -0.2746  1.1137 -0.8946
  418TIP3   OH225448   4.426   4.334  14.963 -0.0561  0.1606  0.7543
  418TIP3    H125449   4.521   4.329  14.959 -0.0143  1.0959  0.1943
  418TIP3    H225450   4.398   4.247  14.990  0.9073 -0.4225 -0.0450
  419TIP3   OH225451   2.534   0.861  15.378 -0.3068 -0.1183 -0.0619
  419TIP3    H125452   2.552   0.808  15.455 -0.8592 -0.5254 -0.2077
  419TIP3    H225453   2.442   0.886  15.386 -0.1951  0.3815 -0.2633
  420TIP3   OH225454   3.247   4.305  14.485 -0.2685  0.5992  0.0322
  420TIP3    H125455   3.156   4.315  14.455 -0.4464 -2.0292 -0.5822
  420TIP3    H225456   3.242   4.239  14.554  1.3017 -0.6307 -0.9589
  421TIP3   OH225457   1.662   5.534  15.197  0.0336 -0.4917 -0.3137
  421TIP3    H125458   1.658   5.613  15.143 -0.4518 -0.3574 -0.0892
  421TIP3    H225459   1.602   5.473  15.155  0.7609 -0.9153 -0.7509
  422TIP3   OH225460   4.160   0.578  15.935 -0.3725  0.9292  0.0603
  422TIP3    H125461   4.172   0.652  15.875  1.1945  0.4506 -0.2447
  422TIP3    H225462   4.090   0.526  15.894 -0.4271  1.4398 -0.5156
  423TIP3   OH225463   5.082   2.414  17.555 -0.3087 -0.1994 -0.4524
  423TIP3    H125464   5.087   2.329  17.511  0.6393  0.1530 -1.0574
  423TIP3    H225465   5.023   2.466  17.501 -1.2498 -0.5932  0.1629
  424TIP3   OH225466   5.558   2.927  18.103  0.2224 -0.1301 -0.0604
  424TIP3    H125467   5.618   2.870  18.152 -0.1429 -1.4884 -1.1494
  424TIP3    H225468   5.471   2.896  18.127 -0.0043  0.3870 -0.2056
  425TIP3   OH225469   1.651   0.616  14.776 -0.5967  0.1572 -0.2811
  425TIP3    H125470   1.652   0.709  14.754  1.4803 -0.0552 -1.3447
  425TIP3    H225471   1.584   0.578  14.719 -0.1331  0.7104 -1.2130
  426TIP3   OH225472   5.529   3.454  15.514 -0.0205  0.0898 -0.2520
  426TIP3    H125473   5.607   3.472  15.461  1.0910 -0.7204  1.0279
  426TIP3    H225474   5.548   3.494  15.599  0.4608 -2.7817  1.1145
  427TIP3   OH225475   2.168   6.160  18.025 -0.5463 -0.2472 -0.4513
  427TIP3    H125476   2.211   6.079  18.053 -1.6928 -0.9846 -0.7732
  427TIP3    H225477   2.187   6.165  17.931  0.0780  0.2063 -0.3020
  428TIP3   OH225478   6.536   5.069  14.729  0.2631 -0.2646  0.2822
  428TIP3    H125479   6.626   5.103  14.730  0.1680  0.0260 -0.7259
  428TIP3    H225480   6.486   5.134  14.779 -0.3648  2.4674 -3.5043
  429TIP3   OH225481   2.544   6.692  16.326  0.1482 -0.0767  0.4653
  429TIP3    H125482   2.451   6.691  16.347  0.1597 -0.9796  0.4980
  429TIP3    H225483   2.549   6.657  16.237  0.1275  3.3671 -1.0816
  430TIP3   OH225484   2.530   5.650  17.288  0.2234 -0.1782  0.0170
  430TIP3    H125485   2.585   5.679  17.361  0.3133  0.3363 -0.2473
  430TIP3    H225486   2.449   5.619  17.329 -0.8566  2.6340  0.2175
  431TIP3   OH225487   4.970   3.543  15.273 -0.2503 -0.3066 -0.2128
  431TIP3    H125488   4.901   3.480  15.252 -1.6442  0.8299  0.7828
  431TIP3    H225489   5.044   3.489  15.301 -0.8107 -1.5418 -1.0388
  432TIP3   OH225490   1.388   6.574  14.536  0.2987 -0.0253  0.2120
  432TIP3    H125491   1.425   6.565  14.624  0.2282  1.0327  0.3531
  432TIP3    H225492   1.400   6.487  14.497  0.9571 -0.3147  1.0188
  433TIP3   OH225493   0.067   1.375  17.276  0.9964  0.0053  0.2501
  433TIP3    H125494   0.017   1.381  17.195  3.5596 -1.7537 -1.5908
  433TIP3    H225495   0.076   1.466  17.305 -1.3951  0.5449 -0.4292
  434TIP3   OH225496   1.702   3.460  17.168  0.4401  0.1430 -0.1720
  434TIP3    H125497   1.639   3.529  17.149  0.8555  0.1921 -1.4725
  434TIP3    H225498   1.684   3.392  17.103  0.0251 -1.0041  1.0951
  435TIP3   OH225499   5.949   1.441  17.675  0.0697 -0.0770  0.8234
  435TIP3    H125500   5.863   1.478  17.659  0.2788  0.8858  1.7793
  435TIP3    H225501   6.006   1.517  17.686  1.0998 -0.6999 -0.0408
  436TIP3   OH225502   0.237   2.827  17.066  0.5784  0.1759 -0.2235
  436TIP3    H125503   0.315   2.786  17.104 -0.1775 -0.7527  0.3607
  436TIP3    H225504   0.164   2.774  17.097 -0.5004  2.1800  0.8832
  437TIP3   OH225505   1.290   6.255  16.086  0.4743  0.0313  0.3084
  437TIP3    H125506   1.303   6.350  16.078 -1.3886  0.6203  2.7771
  437TIP3    H225507   1.203   6.240  16.050  0.9841 -0.8681 -0.5826
  438TIP3   OH225508   5.558   0.449  17.025  0.5898 -0.6099 -0.8302
  438TIP3    H125509   5.553   0.360  17.062  3.4702 -0.1577  1.0505
  438TIP3    H225510   5.545   0.507  17.100  0.1525  0.5453 -1.7663
  439TIP3   OH225511   6.316   1.764  16.894 -0.4118 -0.0865  0.2782
  439TIP3    H125512   6.238   1.755  16.839 -0.3571 -0.9343  0.3389
  439TIP3    H225513   6.321   1.858  16.911 -0.9041  0.0876 -0.4747
  440TIP3   OH225514   1.687   3.597  16.106 -0.4350 -0.1124 -0.1363
  440TIP3    H125515   1.675   3.691  16.096 -0.9102 -0.0348  1.0033
  440TIP3    H225516   1.780   3.582  16.090 -0.3043  0.5909 -0.0467
  441TIP3   OH225517   3.525   4.521  15.714 -0.0087  0.1378  1.1454
  441TIP3    H125518   3.617   4.518  15.688  0.2863 -1.2095  2.2484
  441TIP3    H225519   3.521   4.591  15.779 -0.1328  1.3633 -0.1287
  442TIP3   OH225520   6.495   5.872  15.903 -0.1062 -0.0687 -0.1655
  442TIP3    H125521   6.463   5.932  15.971  0.9075 -0.0644  0.3199
  442TIP3    H225522   6.452   5.903  15.823 -0.5808  0.5150  0.2995
  443TIP3   OH225523   5.522   0.270  14.350 -0.1131  0.0078 -0.1524
  443TIP3    H125524   5.487   0.353  14.318  1.0699 -0.0829 -1.7634
  443TIP3    H225525   5.612   0.290  14.376  0.9370 -1.1600 -2.6012
  444TIP3   OH225526   0.670   5.392  18.093  0.2965 -0.8604  0.3263
  444TIP3    H125527   0.585   5.409  18.135 -1.2979 -3.2329 -1.6917
  444TIP3    H225528   0.700   5.310  18.131  0.8203 -0.9432 -0.2479
  445TIP3   OH225529   3.433   2.224  16.069 -0.1258 -0.1446  0.2699
  445TIP3    H125530   3.420   2.255  16.158  1.9179 -1.5599  1.1285
  445TIP3    H225531   3.525   2.199  16.065 -0.2434 -0.4830 -2.1425
  446TIP3   OH225532   5.625   5.710  17.869  0.5171  0.4757 -0.5708
  446TIP3    H125533   5.590   5.626  17.838  0.0352 -0.1494  1.5345
  446TIP3    H225534   5.720   5.697  17.869  0.4521 -0.0481 -0.3491
  447TIP3   OH225535   5.093   3.599  17.572  0.3114  0.2537  0.0498
  447TIP3    H125536   5.092   3.562  17.484  0.3134 -2.9892  1.2839
  447TIP3    H225537   5.006   3.584  17.607  0.8848 -0.3840  1.2915
  448TIP3   OH225538   5.135   3.191  14.822  0.6688  0.3540 -0.3553
  448TIP3    H125539   5.076   3.187  14.898  0.0038 -1.0002 -0.9058
  448TIP3    H225540   5.115   3.275  14.781  0.7879  0.9508  0.7562
  449TIP3   OH225541   5.670   2.332  16.036  0.0310 -0.6128 -0.0951
  449TIP3    H125542   5.689   2.303  16.125  0.1815 -1.0762 -0.2754
  449TIP3    H225543   5.580   2.303  16.020 -0.0881 -0.3013 -0.0043
  450TIP3   OH225544   6.661   0.195  16.706  0.1914  0.7185  0.4690
  450TIP3    H125545   6.685   0.105  16.727 -1.1282  0.2193 -0.0254
  450TIP3    H225546   6.565   0.194  16.703  0.1130  2.3560  1.3600
  451TIP3   OH225547   4.747   5.282  17.140  0.8669 -0.2640  0.4647
  451TIP3    H125548   4.838   5.275  17.113  0.8228  0.2137  0.1809
  451TIP3    H225549   4.750   5.280  17.236  1.1613 -0.4135  0.4525
  452TIP3   OH225550   4.189   4.170  16.100  0.0626  0.0756 -0.5274
  452TIP3    H125551   4.121   4.236  16.113  0.1417  0.2436 -0.9531
  452TIP3    H225552   4.213   4.178  16.008  0.7502  0.1081 -0.3502
  453TIP3   OH225553   4.293   5.030  16.097 -0.1200 -0.2042 -0.5152
  453TIP3    H125554   4.306   5.104  16.038  0.3162  0.0521 -0.1029
  453TIP3    H225555   4.227   5.060  16.160 -0.0723 -0.2304 -0.4536
  454TIP3   OH225556   5.889   2.515  17.623 -0.4685 -0.1314  0.3431
  454TIP3    H125557   5.803   2.493  17.586  0.1474 -1.8238 -0.1652
  454TIP3    H225558   5.869   2.571  17.698 -1.8488  1.9893 -1.4864
  455TIP3   OH225559   3.996   1.536  15.062  0.1071  0.1130 -0.5772
  455TIP3    H125560   4.019   1.444  15.053 -0.2393 -0.1596  1.0680
  455TIP3    H225561   4.071   1.583  15.027  0.5034 -0.7848 -0.9608
  456TIP3   OH225562   6.408   1.630  14.913  0.0219  0.0843 -0.0301
  456TIP3    H125563   6.331   1.573  14.913 -0.8020  1.1506  1.2661
  456TIP3    H225564   6.442   1.624  14.823 -2.3749  0.6787 -1.0354
  457TIP3   OH225565   3.833   1.796  16.875 -0.3322  0.1181 -0.1937
  457TIP3    H125566   3.777   1.796  16.798 -1.0110  0.3918  0.2914
  457TIP3    H225567   3.922   1.807  16.840 -0.6988  0.9460 -0.8956
  458TIP3   OH225568   3.365   3.897  17.535 -0.3834 -0.0485 -0.0393
  458TIP3    H125569   3.292   3.945  17.496  0.4124 -0.0355 -1.6350
  458TIP3    H225570   3.440   3.956  17.522 -0.1354  0.1457  1.9754
  459TIP3   OH225571   0.332   4.116  17.084  0.6087 -0.6420  0.3732
  459TIP3    H125572   0.396   4.122  17.013 -0.5631 -0.6621 -0.7122
  459TIP3    H225573   0.299   4.027  17.079 -0.9828 -0.0392 -0.4179
  460TIP3   OH225574   1.509   5.405  14.020  0.1775  0.4418 -0.1759
  460TIP3    H125575   1.433   5.446  14.062 -0.6689 -0.5160 -0.7111
  460TIP3    H225576   1.512   5.317  14.055  2.0523  0.9392  1.0495
  461TIP3   OH225577   5.364   1.627  17.463 -0.2895  0.3214 -0.2464
  461TIP3    H125578   5.313   1.592  17.536 -0.1518  1.3551  0.3650
  461TIP3    H225579   5.403   1.550  17.423 -1.6362 -0.4116 -0.2096
  462TIP3   OH225580   2.716   1.175  14.448 -0.3841  0.1419 -0.4820
  462TIP3    H125581   2.812   1.180  14.438 -0.3577  3.9501  0.1155
  462TIP3    H225582   2.684   1.149  14.362  1.1286 -1.1784 -0.7013
  463TIP3   OH225583   3.485   0.173  15.102 -0.6559 -0.3767 -0.0539
  463TIP3    H125584   3.426   0.213  15.038 -0.9570 -1.7232 -0.6592
  463TIP3    H225585   3.446   0.087  15.120  1.5861 -1.7328 -1.2004
  464TIP3   OH225586   0.151   3.518  15.769  0.0569 -0.6394 -0.4680
  464TIP3    H125587   0.095   3.440  15.767  1.1392 -1.5018  0.8920
  464TIP3    H225588   0.174   3.528  15.862 -1.1959  2.1686 -0.3379
  465TIP3   OH225589   4.410   6.175  17.238 -0.2061 -0.0874 -0.4398
  465TIP3    H125590   4.388   6.206  17.326  0.5664  0.6775 -0.5048
  465TIP3    H225591   4.384   6.083  17.239 -0.7112  0.0454  0.4107
  466TIP3   OH225592   1.230   1.765  17.375  0.4315 -0.3415  0.1041
  466TIP3    H125593   1.249   1.813  17.455  0.3817  0.0298 -0.1073
  466TIP3    H225594   1.316   1.739  17.341  0.4779 -0.0552  0.0042
  467TIP3   OH225595   1.972   3.545  16.109 -0.5730 -0.2312 -0.6308
  467TIP3    H125596   1.980   3.450  16.119 -2.3857 -1.1168 -5.2885
  467TIP3    H225597   2.040   3.568  16.045 -0.3261  1.6423  0.2332
  468TIP3   OH225598   0.649   5.537  17.218  0.3939  0.4697 -0.4633
  468TIP3    H125599   0.651   5.461  17.276 -0.5287  0.8777  0.1180
  468TIP3    H225600   0.574   5.522  17.160 -1.0247  1.8270  0.9324
  469TIP3   OH225601   6.422   6.525  16.612  0.8324  0.0331 -0.2220
  469TIP3    H125602   6.495   6.582  16.588  0.9544  0.2857  0.6939
  469TIP3    H225603   6.464   6.441  16.634  0.7563 -0.0980 -0.5784
  470TIP3   OH225604   4.615   3.766  16.266 -0.3981 -0.0350 -0.0581
  470TIP3    H125605   4.547   3.805  16.320  0.2304  0.6505  0.2625
  470TIP3    H225606   4.686   3.747  16.328  0.1870  0.4136 -0.5822
  471TIP3   OH225607   2.120   3.527  16.796  0.2083 -0.1597  0.6296
  471TIP3    H125608   2.147   3.584  16.868 -1.3034  0.1586  0.9803
  471TIP3    H225609   2.067   3.459  16.838 -1.5671  0.6109 -0.2582
  472TIP3   OH225610   3.315   1.867  17.610 -0.3391 -0.7033  0.3645
  472TIP3    H125611   3.385   1.834  17.553 -1.0064 -1.0070 -0.2876
  472TIP3    H225612   3.357   1.875  17.696  0.7549 -0.0028 -0.1989
  473TIP3   OH225613   4.020   6.158  16.638  0.4681  0.2389  0.6178
  473TIP3    H125614   3.932   6.148  16.601  0.4135  0.2445  0.7461
  473TIP3    H225615   4.064   6.219  16.579  1.2763 -1.7858 -0.9918
  474TIP3   OH225616   0.375   6.593  16.538  0.1365 -0.2713 -0.0180
  474TIP3    H125617   0.340   6.664  16.483  1.7210  0.5293 -0.0273
  474TIP3    H225618   0.360   6.623  16.627  1.0865  0.2438 -0.0199
  475TIP3   OH225619   1.764   4.482  16.770  0.0904 -0.4384 -0.1025
  475TIP3    H125620   1.789   4.449  16.684 -0.7123 -0.2539 -0.4168
  475TIP3    H225621   1.737   4.573  16.754  0.6901 -0.1529  0.4741
  476TIP3   OH225622   6.197   1.998  16.138  0.3289 -0.5337 -0.2036
  476TIP3    H125623   6.203   1.959  16.051 -0.4905 -0.1343 -0.4541
  476TIP3    H225624   6.287   2.002  16.169  0.5698 -1.2515 -0.7765
  477TIP3   OH225625   3.772   0.158  15.825 -0.3719 -0.2842  0.1819
  477TIP3    H125626   3.829   0.096  15.780  0.3328 -0.1540  0.8985
  477TIP3    H225627   3.684   0.136  15.792 -0.3411 -2.5492  1.3993
  478TIP3   OH225628   1.371   5.186  15.716 -0.5298  0.3280 -0.3691
  478TIP3    H125629   1.343   5.265  15.671 -1.8664 -0.1985 -0.5209
  478TIP3    H225630   1.347   5.200  15.807 -0.6386  0.1664 -0.3714
  479TIP3   OH225631   2.710   2.407  16.762 -0.7862 -0.3226  0.1845
  479TIP3    H125632   2.696   2.417  16.667 -0.0044 -1.7446 -0.0980
  479TIP3    H225633   2.751   2.322  16.772  3.5345  1.6319  1.3533
  480TIP3   OH225634   1.417   2.983  16.647  0.6124  0.3242  0.0971
  480TIP3    H125635   1.385   2.897  16.620  0.6071  0.0025  1.0607
  480TIP3    H225636   1.512   2.978  16.633  0.7507 -0.2207  1.0584
  481TIP3   OH225637   3.581   1.019  17.797  0.1213 -0.4829  0.4259
  481TIP3    H125638   3.498   1.023  17.749  0.7440  1.0756 -0.5942
  481TIP3    H225639   3.555   0.998  17.887 -1.9333  3.9260  1.1345
  482TIP3   OH225640   0.851   0.860  17.317  0.3636 -0.2579 -0.2727
  482TIP3    H125641   0.834   0.928  17.383 -0.8119  1.0715 -1.8628
  482TIP3    H225642   0.945   0.862  17.304  0.1753  3.5691 -2.6603
  483TIP3   OH225643   5.783   2.263  15.314 -0.4660 -0.0002  0.2184
  483TIP3    H125644   5.732   2.315  15.252  0.0789  1.0939  0.6739
  483TIP3    H225645   5.747   2.286  15.399 -0.5410 -0.7491  0.3987
  484TIP3   OH225646   0.973   6.194  17.534  0.2877 -0.2108 -0.0296
  484TIP3    H125647   0.927   6.202  17.451 -0.9834  0.8799  0.7231
  484TIP3    H225648   1.011   6.281  17.549 -0.2763 -0.1084  0.9324
  485TIP3   OH225649   4.652   0.444  14.680  0.4725 -0.2349 -0.4380
  485TIP3    H125650   4.657   0.533  14.715  1.7718 -0.8864  1.1540
  485TIP3    H225651   4.625   0.456  14.589 -2.6876  1.5733  0.5944
  486TIP3   OH225652   4.786   4.786  18.052 -0.2747 -0.4763 -0.1613
  486TIP3    H125653   4.874   4.760  18.080 -0.1930 -0.5303 -0.4686
  486TIP3    H225654   4.734   4.705  18.056 -1.2340  0.1323  3.4144
  487TIP3   OH225655   0.356   5.554  15.566 -0.4142 -0.5946 -0.4818
  487TIP3    H125656   0.441   5.526  15.601 -0.1803  0.0984 -0.4797
  487TIP3    H225657   0.367   5.553  15.471  0.2803  1.4786 -0.4680
  488TIP3   OH225658   3.646   0.775  14.382 -0.3989 -0.2140  0.0175
  488TIP3    H125659   3.680   0.855  14.341 -0.1713  1.1437  2.6198
  488TIP3    H225660   3.720   0.714  14.382  0.5902  0.9270  1.2153
  489TIP3   OH225661   4.942   2.467  15.691 -0.4560  0.1240 -0.2139
  489TIP3    H125662   4.860   2.437  15.730 -0.2984 -0.2579 -0.1732
  489TIP3    H225663   5.004   2.395  15.706 -0.5782 -0.3526 -1.7840
  490TIP3   OH225664   2.456   1.168  13.650  0.4163  0.5696 -0.2930
  490TIP3    H125665   2.435   1.253  13.688 -1.2605 -0.2800  0.8115
  490TIP3    H225666   2.398   1.107  13.695  1.0814 -1.0640 -1.5574
  491TIP3   OH225667   3.227   6.135  17.509  0.1746 -0.1593  0.1667
  491TIP3    H125668   3.183   6.184  17.579 -0.1496  3.2622 -2.2139
  491TIP3    H225669   3.301   6.191  17.484 -0.3050 -0.7419 -2.8628
  492TIP3   OH225670   4.070   6.666  17.508  0.7374  0.0804 -0.6317
  492TIP3    H125671   4.015   6.706  17.441  1.0570  0.6489 -0.5594
  492TIP3    H225672   4.137   6.732  17.527  0.7173 -0.1165  0.1632
  493TIP3   OH225673   1.615   6.057  16.375 -0.5109  0.0508 -0.3402
  493TIP3    H125674   1.590   6.149  16.367 -2.4571 -0.4028  0.1419
  493TIP3    H225675   1.679   6.043  16.305  2.1265  2.4714  1.3713
  494TIP3   OH225676   3.094   1.990  17.488  0.3205  0.3607  0.0297
  494TIP3    H125677   3.037   1.982  17.564 -1.7454 -0.5226 -1.5117
  494TIP3    H225678   3.158   1.920  17.498 -1.2993 -1.2078 -0.0811
  495TIP3   OH225679   0.838   1.089  14.840 -0.3687 -0.1570 -0.0614
  495TIP3    H125680   0.867   1.085  14.749  1.5946 -1.0002  0.5413
  495TIP3    H225681   0.812   1.180  14.853 -1.3949 -0.1877 -1.6391
  496TIP3   OH225682   4.490   0.110  16.185  0.0608  0.4278 -0.4601
  496TIP3    H125683   4.455   0.099  16.274  3.5638 -1.6830  0.8988
  496TIP3    H225684   4.508   0.203  16.178 -0.1828  0.6275  1.1021
  497TIP3   OH225685   1.506   2.407  17.781 -0.0570 -0.3601 -0.5718
  497TIP3    H125686   1.596   2.440  17.774  0.3566 -1.6539 -1.7522
  497TIP3    H225687   1.490   2.403  17.875  1.3322 -0.6197 -0.3124
  498TIP3   OH225688   0.741   1.511  15.939 -0.3243  0.0857  0.1881
  498TIP3    H125689   0.677   1.529  16.007  0.1373  0.0138  0.6448
  498TIP3    H225690   0.742   1.415  15.933 -0.1655  0.0839  0.2651
  499TIP3   OH225691   0.651   3.809  16.249  0.1822 -0.2131  0.3629
  499TIP3    H125692   0.601   3.833  16.327 -0.8309  1.9745 -0.8554
  499TIP3    H225693   0.742   3.833  16.270  0.2981 -1.5932  1.5736
  500TIP3   OH225694   1.523   4.366  16.040  0.3240 -0.0480  0.2128
  500TIP3    H125695   1.572   4.344  16.119  1.2006  0.4827 -0.1725
  500TIP3    H225696   1.546   4.298  15.977 -0.6358 -0.6626  0.5019
  501TIP3   OH225697   2.632   4.543  17.894  0.6148  0.0618  0.8636
  501TIP3    H125698   2.714   4.505  17.926  0.1256 -0.2212  1.8250
  501TIP3    H225699   2.657   4.591  17.815  1.2198 -2.4581 -0.5708
  502TIP3   OH225700   2.216   4.690  15.152  0.1507  0.3201  0.0913
  502TIP3    H125701   2.240   4.710  15.242  2.5433  1.6157 -0.7413
  502TIP3    H225702   2.206   4.595  15.151 -2.9416  0.4841  2.3045
  503TIP3   OH225703   2.439   4.917  15.180  0.2647  0.1444  0.6357
  503TIP3    H125704   2.481   4.970  15.249  4.0063  0.1439 -1.3547
  503TIP3    H225705   2.467   4.828  15.199 -2.5789 -0.6173  1.6193
  504TIP3   OH225706   4.304   1.106  17.231 -0.1388  0.7625  0.2826
  504TIP3    H125707   4.220   1.080  17.267 -0.1964  1.2170  0.4814
  504TIP3    H225708   4.331   1.031  17.177 -0.6960  0.6423  0.1636
  505TIP3   OH225709   4.288   2.109  15.771 -0.1702 -0.4199 -0.3046
  505TIP3    H125710   4.270   2.166  15.697  2.5032 -0.6734 -1.2801
  505TIP3    H225711   4.227   2.035  15.760 -1.7420  0.8752 -0.6006
  506TIP3   OH225712   4.211   6.285  16.095  0.4029  0.1054 -0.2386
  506TIP3    H125713   4.166   6.329  16.023  0.6926 -0.3231 -0.6845
  506TIP3    H225714   4.254   6.356  16.143 -1.9398  0.7249  1.0959
  507TIP3   OH225715   6.649   6.168  15.282  0.1408  0.7396 -0.5566
  507TIP3    H125716   6.610   6.255  15.291 -0.7592  0.1786  1.6238
  507TIP3    H225717   6.576   6.112  15.258  0.4535  0.3785 -0.6635
  508TIP3   OH225718   5.009   1.038  14.714 -0.1338 -0.2970 -0.0648
  508TIP3    H125719   4.932   1.077  14.672 -0.1625  0.0863  0.3292
  508TIP3    H225720   5.084   1.080  14.671 -0.0696 -1.9292 -1.6772
  509TIP3   OH225721   5.718   2.110  15.715 -0.3037  0.0321 -0.5108
  509TIP3    H125722   5.653   2.050  15.751  1.6834 -2.1974 -0.3102
  509TIP3    H225723   5.777   2.128  15.788  0.3469  0.4685 -1.1240
  510TIP3   OH225724   2.617   2.139  16.500  0.3689  0.1559 -0.4299
  510TIP3    H125725   2.711   2.150  16.487  0.7101 -0.3060  1.3478
  510TIP3    H225726   2.606   2.046  16.521 -0.2871  0.4877  0.7732
  511TIP3   OH225727   0.449   5.621  15.295 -0.0252  0.1811  0.1953
  511TIP3    H125728   0.457   5.669  15.213  0.1854 -2.2888 -1.3463
  511TIP3    H225729   0.540   5.603  15.321 -0.0620 -1.4525 -0.6369
  512TIP3   OH225730   6.638   0.822  17.095  0.1204  0.5018 -0.7152
  512TIP3    H125731   6.665   0.794  17.183  0.8787  1.6605 -0.5498
  512TIP3    H225732   6.703   0.783  17.037 -0.2628 -0.0945 -0.7575
  513TIP3   OH225733   2.573   1.472  16.080 -0.0702 -0.0937  0.3058
  513TIP3    H125734   2.553   1.551  16.030  0.9333 -0.1542 -0.2264
  513TIP3    H225735   2.604   1.504  16.164 -3.4717 -0.0122  1.6589
  514TIP3   OH225736   6.183   1.231  16.463 -0.3841 -0.0573 -0.1142
  514TIP3    H125737   6.175   1.285  16.541 -2.6700 -0.6925  0.1674
  514TIP3    H225738   6.114   1.263  16.404  0.3393 -0.5600 -1.2741
  515TIP3   OH225739   1.888   3.281  17.232  0.4957 -0.2900 -0.3985
  515TIP3    H125740   1.832   3.357  17.216  0.8569  0.2314  0.7204
  515TIP3    H225741   1.832   3.205  17.212 -0.2272  0.2435 -0.4406
  516TIP3   OH225742   4.051   0.327  16.468  0.2851  0.0970 -0.4135
  516TIP3    H125743   4.083   0.417  16.462 -0.9446  0.5513 -0.4486
  516TIP3    H225744   4.107   0.286  16.533  0.4166  1.0918  0.1276
  517TIP3   OH225745   0.604   4.643  17.185 -0.4653 -0.2590  0.2399
  517TIP3    H125746   0.540   4.688  17.240  0.4908  0.7459  0.5660
  517TIP3    H225747   0.689   4.674  17.216  0.1408 -0.5722 -1.0348
  518TIP3   OH225748   5.707   2.292  16.662 -0.0540 -0.0326  0.1521
  518TIP3    H125749   5.762   2.217  16.638 -0.3183 -0.2401  0.1929
  518TIP3    H225750   5.628   2.253  16.700  1.0726  0.2600  3.0562
  519TIP3   OH225751   6.321   5.745  14.975  0.6664  0.2803  0.1418
  519TIP3    H125752   6.273   5.772  14.896  0.9930 -1.6247 -0.7696
  519TIP3    H225753   6.278   5.665  15.003  1.3713  0.2465  1.1768
  520TIP3   OH225754   3.188   4.753  16.433 -0.1189  1.0235  0.2103
  520TIP3    H125755   3.199   4.752  16.528 -2.0107  2.9716  0.5256
  520TIP3    H225756   3.110   4.700  16.418  1.1187 -0.7131 -0.5088
  521TIP3   OH225757   1.276   1.864  15.476 -0.0667 -0.0903  0.2940
  521TIP3    H125758   1.203   1.914  15.512  0.3078  0.6309  0.0851
  521TIP3    H225759   1.353   1.919  15.493  0.3164 -0.4626 -0.2053
  522TIP3   OH225760   5.280   1.316  15.342  0.2921 -0.3879  0.1547
  522TIP3    H125761   5.332   1.236  15.331 -0.0054 -0.6027  0.3006
  522TIP3    H225762   5.314   1.376  15.275  0.2977 -0.7473 -0.1700
  523TIP3   OH225763   2.316   5.136  14.281  0.0628 -0.3711 -0.0762
  523TIP3    H125764   2.310   5.208  14.218  1.2720  1.3175  1.5860
  523TIP3    H225765   2.262   5.165  14.355 -0.6636 -1.9115  0.0234
  524TIP3   OH225766   5.125   6.632  15.014 -0.1580 -0.3773  0.4241
  524TIP3    H125767   5.102   6.724  15.016 -2.6562 -0.9536  1.5289
  524TIP3    H225768   5.218   6.630  15.039 -0.2737  1.7692  1.2319
  525TIP3   OH225769   4.975   3.779  16.866  0.0308 -0.2381  0.1584
  525TIP3    H125770   4.974   3.831  16.947 -0.1913  1.1669 -0.7083
  525TIP3    H225771   4.917   3.826  16.807  2.6196  0.5960 -1.9087
  526TIP3   OH225772   5.154   6.614  16.207  0.1361 -0.1261  0.2157
  526TIP3    H125773   5.120   6.624  16.118 -0.5509  0.2049  0.5072
  526TIP3    H225774   5.249   6.610  16.196  0.1257  0.9946 -0.4485
  527TIP3   OH225775   1.873   1.244  17.506 -0.3496 -0.6421 -0.3327
  527TIP3    H125776   1.958   1.287  17.515 -0.4417 -0.0571 -1.9625
  527TIP3    H225777   1.884   1.184  17.433 -1.4456 -0.2512 -0.8439
  528TIP3   OH225778   3.225   4.439  15.819 -0.4520 -0.6692 -0.0591
  528TIP3    H125779   3.149   4.477  15.774 -0.1172 -3.2864 -3.1144
  528TIP3    H225780   3.300   4.472  15.770  0.3055  0.0811  1.5444
  529TIP3   OH225781   3.538   0.486  15.725  0.1092  0.3166 -0.1111
  529TIP3    H125782   3.496   0.540  15.792 -1.1284 -1.1842  0.3743
  529TIP3    H225783   3.503   0.398  15.739  0.5426 -0.2322 -2.1367
  530TIP3   OH225784   0.351   6.337  16.644  0.2270  0.1829 -0.3363
  530TIP3    H125785   0.433   6.289  16.652 -0.4371 -0.8112  0.8942
  530TIP3    H225786   0.372   6.412  16.589  1.7172 -0.5784 -0.8559
  531TIP3   OH225787   4.948   4.169  15.027  0.7867  0.0512  0.1017
  531TIP3    H125788   5.041   4.184  15.012  0.0609  2.3628 -2.8630
  531TIP3    H225789   4.918   4.121  14.950 -0.5142 -0.6420  1.0016
  532TIP3   OH225790   4.363   5.784  17.786  0.3825  0.0511 -0.5371
  532TIP3    H125791   4.382   5.747  17.872 -0.4620  0.3672 -0.2081
  532TIP3    H225792   4.450   5.799  17.747  0.7995  0.6377  0.5619
  533TIP3   OH225793   3.578   0.003  14.815 -0.3070 -0.3366  0.3518
  533TIP3    H125794   3.587  -0.008  14.720  0.0857  0.2263  0.3195
  533TIP3    H225795   3.497   0.053  14.825 -0.8427 -1.1833  0.3724
  534TIP3   OH225796   1.732   1.823  16.494  0.4592 -0.0047  0.1159
  534TIP3    H125797   1.672   1.749  16.488  0.7654 -0.2634  0.2306
  534TIP3    H225798   1.677   1.896  16.523  0.0255 -0.0248 -0.6197
  535TIP3   OH225799   2.752   0.795  18.105 -0.0133  0.6010  0.6873
  535TIP3    H125800   2.839   0.781  18.143  0.2946  1.3621  0.2614
  535TIP3    H225801   2.692   0.750  18.166  0.7797 -1.1156  0.2646
  536TIP3   OH225802   3.461   3.161  15.566 -0.0198  0.0707  0.2797
  536TIP3    H125803   3.368   3.151  15.545  0.2086 -0.6006 -0.4524
  536TIP3    H225804   3.502   3.184  15.482  0.4939  0.2663  0.5765
  537TIP3   OH225805   2.466   6.178  15.712 -0.4396 -0.0157 -0.3672
  537TIP3    H125806   2.526   6.127  15.766 -1.9834 -2.9971 -1.2507
  537TIP3    H225807   2.519   6.250  15.678  1.3092  0.3309  2.7185
  538TIP3   OH225808   3.727   3.871  16.340 -0.6119  0.2349 -0.2260
  538TIP3    H125809   3.678   3.939  16.295 -0.6689 -0.1472 -0.7562
  538TIP3    H225810   3.762   3.913  16.418 -2.5555  0.2934  0.6691
  539TIP3   OH225811   3.724   5.445  14.257 -0.4285  0.8376 -0.6060
  539TIP3    H125812   3.693   5.413  14.172 -1.1582 -1.7002  0.5229
  539TIP3    H225813   3.791   5.382  14.283  0.4143  2.0787  0.3305
  540TIP3   OH225814   0.916   0.594  17.268 -0.6266 -0.0368  0.3403
  540TIP3    H125815   0.967   0.591  17.349  2.3765 -0.2018 -1.4136
  540TIP3    H225816   0.857   0.668  17.279  2.0362  2.0518  1.4289
  541TIP3   OH225817   2.802   1.430  15.559  0.0245  0.2574 -0.0690
  541TIP3    H125818   2.804   1.369  15.633 -0.1350  2.3649  1.7922
  541TIP3    H225819   2.762   1.510  15.595 -1.3804  0.9391 -2.8172
  542TIP3   OH225820   2.710   4.006  14.959 -0.1863  0.0183  0.0808
  542TIP3    H125821   2.638   4.051  14.915 -0.4675  0.0953  0.6208
  542TIP3    H225822   2.762   3.969  14.887  0.1501  1.3364 -0.3806
  543TIP3   OH225823   5.419   5.731  14.736 -0.2693 -0.2316  0.2173
  543TIP3    H125824   5.420   5.682  14.653  0.7655 -0.4794  0.3664
  543TIP3    H225825   5.462   5.814  14.716 -0.0042 -0.2968  0.5126
  544TIP3   OH225826   1.946   3.464  17.615  0.4344  0.1044 -0.1459
  544TIP3    H125827   1.968   3.487  17.525 -1.0422 -0.9339 -0.8021
  544TIP3    H225828   2.027   3.428  17.651  1.2689  1.2767 -0.7669
  545TIP3   OH225829   0.138   4.253  16.966 -0.2855  0.5318 -0.3083
  545TIP3    H125830   0.200   4.190  17.002 -1.1173 -0.7670 -1.0423
  545TIP3    H225831   0.084   4.279  17.041  2.0020  2.8369  0.6652
  546TIP3   OH225832   3.742   1.198  17.648 -0.1126 -0.3143  0.7763
  546TIP3    H125833   3.819   1.212  17.703 -0.2061 -1.5104  1.2332
  546TIP3    H225834   3.698   1.123  17.687 -1.0665 -0.1580  0.0262
  547TIP3   OH225835   4.821   3.733  16.435  0.2397 -0.1015 -0.1781
  547TIP3    H125836   4.858   3.675  16.502  1.3021  0.3562 -0.3519
  547TIP3    H225837   4.843   3.821  16.464  0.7317  0.1045 -1.1294
  548TIP3   OH225838   5.629   1.423  15.364 -0.8638 -0.6153  0.6103
  548TIP3    H125839   5.704   1.481  15.351 -1.5615  0.6310  1.8777
  548TIP3    H225840   5.555   1.471  15.325 -1.2027 -1.3447  0.3286
  549TIP3   OH225841   6.073   2.195  16.303 -0.0026 -0.3526 -0.3582
  549TIP3    H125842   6.133   2.209  16.376 -1.6318  0.0565  0.9660
  549TIP3    H225843   6.116   2.128  16.249  1.9048  0.3700  0.1775
  550TIP3   OH225844   0.665   3.449  15.462 -0.4696  0.2241 -0.3641
  550TIP3    H125845   0.655   3.358  15.435 -0.0602  0.1242 -0.1711
  550TIP3    H225846   0.715   3.446  15.543 -2.7244  0.4335  1.1276
  551TIP3   OH225847   4.256   1.389  15.526 -0.1046  0.0141 -0.0103
  551TIP3    H125848   4.220   1.361  15.442 -2.5228  0.3013  0.8788
  551TIP3    H225849   4.350   1.370  15.518 -0.3171 -0.3799 -2.5824
  552TIP3   OH225850   6.530   1.246  17.762 -0.5822 -0.2888 -0.2711
  552TIP3    H125851   6.589   1.274  17.691 -1.7319 -0.5089 -1.3491
  552TIP3    H225852   6.503   1.328  17.803 -0.9813 -0.0433 -0.9934
  553TIP3   OH225853   5.966   5.182  16.900 -0.6036  0.0817  0.5455
  553TIP3    H125854   6.021   5.221  16.968 -2.6826  0.6962  1.9920
  553TIP3    H225855   5.955   5.251  16.835  0.6394 -0.2025 -0.0067
  554TIP3   OH225856   1.905   6.150  17.580 -0.3765 -0.0207 -0.1099
  554TIP3    H125857   1.987   6.182  17.616  0.2583 -0.8517 -0.7739
  554TIP3    H225858   1.888   6.206  17.504 -0.2430 -0.0715 -0.1766
  555TIP3   OH225859   3.691   0.324  16.622  0.0504 -0.0007  0.9306
  555TIP3    H125860   3.735   0.306  16.539 -0.7967 -0.6227  0.6083
  555TIP3    H225861   3.598   0.317  16.602 -0.2628  2.2282  1.3944
  556TIP3   OH225862   4.098   3.559  15.801 -0.5395 -0.7357 -0.2324
  556TIP3    H125863   4.156   3.622  15.844 -0.2260  0.0535 -1.7448
  556TIP3    H225864   4.076   3.497  15.870 -2.8010  2.2798  2.0356
  557TIP3   OH225865   3.387   4.851  15.688  0.5161  0.9923  0.6999
  557TIP3    H125866   3.327   4.920  15.717 -0.1743 -0.2004  2.2725
  557TIP3    H225867   3.473   4.881  15.716 -0.0892 -0.0553  4.2682
  558TIP3   OH225868   2.015   0.270  13.811  0.3898  0.2028 -0.0329
  558TIP3    H125869   2.028   0.365  13.817  1.5465  0.0453  0.2350
  558TIP3    H225870   1.922   0.259  13.790 -0.4874  1.2732  2.9095
  559TIP3   OH225871   1.960   5.935  15.895  0.2959  0.3475  0.3184
  559TIP3    H125872   2.020   5.933  15.970  0.9482 -1.5870 -0.1924
  559TIP3    H225873   1.923   5.847  15.891 -1.2143  0.9789 -0.4896
  560TIP3   OH225874   1.684   6.232  17.238 -0.3971  0.6739  0.5806
  560TIP3    H125875   1.643   6.314  17.265  1.1595  1.8059 -0.3359
  560TIP3    H225876   1.641   6.165  17.291 -0.2716  2.3051  2.8959
  561TIP3   OH225877   4.804   5.482  16.701 -0.3400 -0.1981  0.3531
  561TIP3    H125878   4.743   5.554  16.720 -0.9384  0.0548 -2.2160
  561TIP3    H225879   4.854   5.512  16.625  0.1810 -2.0459 -0.0792
  562TIP3   OH225880   3.139   5.549  15.034 -0.3630  0.5549  0.3941
  562TIP3    H125881   3.148   5.504  14.950  1.6739  1.2118  0.2064
  562TIP3    H225882   3.077   5.620  15.017 -1.7227 -0.6675  0.0714
  563TIP3   OH225883   1.945   6.520  16.902 -0.5295 -0.2369  0.0162
  563TIP3    H125884   1.900   6.539  16.985 -0.8129  0.1794 -0.2307
  563TIP3    H225885   2.030   6.484  16.929  0.2206  1.7614  0.5270
  564TIP3   OH225886   6.257   1.799  17.404 -0.0943  0.0363  0.2199
  564TIP3    H125887   6.291   1.886  17.426 -0.5671 -0.0349  1.2844
  564TIP3    H225888   6.216   1.811  17.318  1.5381  0.3937 -0.5451
  565TIP3   OH225889   2.198   3.469  14.985  0.0160  0.5126  0.1854
  565TIP3    H125890   2.113   3.479  14.941  0.2331 -0.3500 -0.4616
  565TIP3    H225891   2.252   3.421  14.922  2.2477  4.2596 -1.0876
  566TIP3   OH225892   2.966   6.211  14.657 -0.1310 -0.0591 -0.0096
  566TIP3    H125893   3.026   6.160  14.603 -0.2186  0.6985 -0.8517
  566TIP3    H225894   2.880   6.196  14.618  0.0654  2.2371 -1.5620
  567TIP3   OH225895   5.241   2.149  16.582  0.1617  0.0687  0.3473
  567TIP3    H125896   5.231   2.094  16.505 -0.3783  1.7672 -0.8507
  567TIP3    H225897   5.154   2.150  16.622  0.1791  0.0408  0.3864
  568TIP3   OH225898   1.555   1.059  16.657  0.2482  0.5595  0.0224
  568TIP3    H125899   1.481   1.018  16.702  0.9570 -0.0496  0.6530
  568TIP3    H225900   1.579   1.133  16.713  1.9847 -0.9782  1.4216
  569TIP3   OH225901   2.121   1.352  17.434  0.5945 -0.0472 -0.2280
  569TIP3    H125902   2.203   1.313  17.467  0.0019 -2.3595 -1.2445
  569TIP3    H225903   2.142   1.380  17.345  0.5259  0.2610 -0.1471
  570TIP3   OH225904   4.589   5.321  16.772  0.2268  0.4822  0.4760
  570TIP3    H125905   4.668   5.375  16.766  0.9775 -0.6419 -0.1410
  570TIP3    H225906   4.601   5.269  16.851  1.5357 -1.7607 -1.0564
  571TIP3   OH225907   2.327   5.121  15.816 -0.4411  0.1305  0.2228
  571TIP3    H125908   2.243   5.157  15.847 -0.4863  1.2924 -1.1366
  571TIP3    H225909   2.386   5.132  15.890 -0.6554  2.3910  0.1368
  572TIP3   OH225910   1.607   4.796  17.133  0.1824 -0.1342  0.0680
  572TIP3    H125911   1.688   4.752  17.160  0.1999 -0.0920  0.0835
  572TIP3    H225912   1.551   4.793  17.210 -0.9974 -2.8277 -0.7672
  573TIP3   OH225913   0.997   2.602  16.291 -0.3460 -0.0912  0.1379
  573TIP3    H125914   0.982   2.599  16.385 -1.2881  0.0646  0.0094
  573TIP3    H225915   0.917   2.564  16.253  0.3642 -0.9108 -0.5758
  574TIP3   OH225916   6.351   3.196  16.925  0.0173  0.0670  0.4963
  574TIP3    H125917   6.422   3.257  16.945 -0.5460  0.7092  0.5572
  574TIP3    H225918   6.303   3.238  16.853 -0.0966 -0.5253  0.2230
  575TIP3   OH225919   0.022   3.685  15.485  0.0386  0.0916 -0.6846
  575TIP3    H125920   0.026   3.780  15.482 -0.9782  0.1603 -0.0193
  575TIP3    H225921  -0.005   3.659  15.397 -1.2680  0.5251 -0.4356
  576TIP3   OH225922   6.171   2.755  18.147  0.2661  0.2243 -0.3666
  576TIP3    H125923   6.266   2.758  18.159  0.3270  0.7473 -0.9687
  576TIP3    H225924   6.150   2.835  18.099 -0.1332 -1.1806 -2.6663
  577TIP3   OH225925   6.122   3.292  17.233 -0.5836  0.4471  0.1618
  577TIP3    H125926   6.040   3.300  17.282  0.6592  1.1312  2.2328
  577TIP3    H225927   6.142   3.198  17.235 -0.9747  0.3640  0.2368
  578TIP3   OH225928   0.982   4.634  16.553  0.5350  0.0934  0.1140
  578TIP3    H125929   0.919   4.697  16.517 -0.4856 -0.4121  0.9633
  578TIP3    H225930   0.982   4.561  16.491 -0.6284 -0.4307  0.7069
  579TIP3   OH225931   3.241   1.822  15.902  0.0186 -0.0560 -0.4057
  579TIP3    H125932   3.275   1.859  15.984 -1.4687 -1.0241  0.7115
  579TIP3    H225933   3.236   1.728  15.919  0.7042 -0.4131 -2.0279
  580TIP3   OH225934   6.507   1.068  15.041 -0.1376 -0.1534 -0.2066
  580TIP3    H125935   6.569   1.058  14.969 -0.1496 -0.6511 -0.1496
  580TIP3    H225936   6.421   1.071  14.999 -0.2506 -1.7627 -0.1323
  581TIP3   OH225937   1.758   2.966  17.513  0.0946  0.4270  0.4108
  581TIP3    H125938   1.847   2.981  17.481  0.4959 -1.2162  0.6824
  581TIP3    H225939   1.753   3.016  17.595  1.0977 -0.2472  0.8989
  582TIP3   OH225940   1.936   5.809  14.670  0.7245 -0.2737  0.4280
  582TIP3    H125941   1.915   5.894  14.631 -0.4455 -0.9524 -0.4957
  582TIP3    H225942   2.018   5.784  14.629 -0.0181 -0.5458 -0.9719
  583TIP3   OH225943   5.442   3.486  17.025  0.2743  0.7947 -0.5949
  583TIP3    H125944   5.451   3.512  17.117 -2.0314  0.6408 -0.2650
  583TIP3    H225945   5.517   3.429  17.009  0.6361  0.6863  1.2653
  584TIP3   OH225946   2.752   0.173  16.881  0.3340 -0.3143  0.0309
  584TIP3    H125947   2.749   0.157  16.975  0.4859  1.4430  0.3814
  584TIP3    H225948   2.692   0.247  16.868 -0.2494 -1.0041 -1.3746
  585TIP3   OH225949   4.664   3.801  17.155 -0.4809 -0.4318  0.3078
  585TIP3    H125950   4.648   3.895  17.155  1.2260 -0.1109  1.4793
  585TIP3    H225951   4.685   3.781  17.064  1.5479  0.7943  0.4562
  586TIP3   OH225952   6.212   1.209  17.135 -0.0099 -0.2519 -0.3780
  586TIP3    H125953   6.125   1.189  17.101  0.4994 -1.9967 -0.7807
  586TIP3    H225954   6.270   1.202  17.059  0.7779 -1.4905  0.2897
  587TIP3   OH225955   2.441   5.542  16.431 -0.5719 -0.0481 -0.5262
  587TIP3    H125956   2.444   5.626  16.478 -1.1070 -0.5075  0.3562
  587TIP3    H225957   2.349   5.517  16.433 -0.0515 -2.2451  2.1604
  588TIP3   OH225958   1.120   2.060  17.274 -0.1266 -0.5101  0.0477
  588TIP3    H125959   1.211   2.057  17.243  0.2582 -0.9313  1.1725
  588TIP3    H225960   1.125   2.107  17.357 -1.1710  0.7859 -0.5882
  589TIP3   OH225961   5.863   6.264  17.813  0.2783 -0.3188  0.1392
  589TIP3    H125962   5.840   6.216  17.893  2.5209 -1.3932  0.2434
  589TIP3    H225963   5.951   6.231  17.791  1.8170  3.4460 -0.0560
  590TIP3   OH225964   3.536   3.063  17.370  0.1170  0.4160  0.3030
  590TIP3    H125965   3.493   3.077  17.454  0.4874 -0.8658  0.7263
  590TIP3    H225966   3.574   2.975  17.376  1.6988  0.9857 -0.5214
  591TIP3   OH225967   5.946   4.448  14.993  0.1126 -0.1242 -0.2847
  591TIP3    H125968   6.009   4.404  14.936  1.6217 -0.5588  1.6227
  591TIP3    H225969   5.993   4.460  15.076 -2.1946 -0.1432  1.1025
  592TIP3   OH225970   5.702   0.908  17.559  0.5128 -0.0449 -0.0822
  592TIP3    H125971   5.721   0.815  17.553  0.6576 -0.0410  0.2971
  592TIP3    H225972   5.786   0.951  17.538  1.1783 -0.0338  2.3186
  593TIP3   OH225973   6.020   6.224  17.127 -0.2504  0.0302  0.1174
  593TIP3    H125974   6.020   6.284  17.052  0.7146 -0.2885 -0.1425
  593TIP3    H225975   6.112   6.202  17.140 -0.1789  1.3457  2.4065
  594TIP3   OH225976   4.766   5.382  15.488 -0.0808 -0.2642 -0.3754
  594TIP3    H125977   4.763   5.466  15.535 -1.5404 -1.8816  2.6919
  594TIP3    H225978   4.850   5.384  15.442 -0.4794  3.2228 -1.2557
  595TIP3   OH225979   2.256   5.470  15.862 -0.5296  0.6820 -0.1562
  595TIP3    H125980   2.193   5.403  15.838 -1.5883  1.5384  0.1589
  595TIP3    H225981   2.258   5.468  15.958  2.9306 -2.0408 -0.0828
  596TIP3   OH225982   0.621   1.603  17.062 -0.5940 -0.2730  0.0478
  596TIP3    H125983   0.647   1.519  17.024 -1.3849  0.5195 -2.4544
  596TIP3    H225984   0.660   1.603  17.150  2.7787 -1.6016 -1.2751
  597TIP3   OH225985   3.839   1.265  15.178  0.1405 -0.1040 -0.0761
  597TIP3    H125986   3.926   1.286  15.147 -0.1914 -1.1985 -1.8518
  597TIP3    H225987   3.805   1.202  15.115 -1.1063 -1.3936  1.7866
  598TIP3   OH225988   5.203   1.874  16.744 -0.1557 -0.1785  0.3996
  598TIP3    H125989   5.163   1.795  16.780  0.7647 -1.2139 -0.7786
  598TIP3    H225990   5.129   1.932  16.726 -0.8375 -0.7262  1.3250
  599TIP3   OH225991   2.644   1.216  15.483  0.2218 -0.0612 -0.3446
  599TIP3    H125992   2.667   1.309  15.479 -0.5066  0.0957 -1.3953
  599TIP3    H225993   2.548   1.215  15.482  0.2008 -0.7912  0.8968
  600TIP3   OH225994   2.858   0.182  15.010  0.1581  0.1169  0.0471
  600TIP3    H125995   2.944   0.214  14.981  0.1783 -1.6696 -2.1741
  600TIP3    H225996   2.798   0.254  14.992  0.8143  0.4943 -0.6842
  601TIP3   OH225997   0.415   3.011  17.570  0.1955 -0.2844  0.1449
  601TIP3    H125998   0.501   3.033  17.533 -0.4365  1.2029 -0.4809
  601TIP3    H225999   0.378   3.095  17.597 -1.5225 -0.7779 -0.5962
  602TIP3   OH226000   0.687   6.497  14.551  0.4369  0.2501 -0.2375
  602TIP3    H126001   0.687   6.591  14.570  0.6056  0.3022 -0.4817
  602TIP3    H226002   0.743   6.489  14.474 -0.4947  0.0906 -0.9133
  603TIP3   OH226003   3.799   3.173  17.585  0.1252  0.0648  0.2652
  603TIP3    H126004   3.714   3.184  17.628  0.2609 -0.7481  0.7523
  603TIP3    H226005   3.800   3.081  17.558  0.2985  0.4067 -0.9479
  604TIP3   OH226006   0.225   0.497  15.281  0.1618  0.0115 -0.4796
  604TIP3    H126007   0.202   0.568  15.340  1.0515  0.8104 -1.0539
  604TIP3    H226008   0.151   0.489  15.222 -0.7723 -0.8532  0.7606
  605TIP3   OH226009   5.258   3.846  16.687  0.2263  0.0828 -0.1541
  605TIP3    H126010   5.218   3.791  16.754  1.0536 -2.0084 -1.2833
  605TIP3    H226011   5.186   3.894  16.648 -0.7656 -1.2590 -0.0397
  606TIP3   OH226012   3.744   3.739  16.935 -0.0383  0.2429  0.2951
  606TIP3    H126013   3.820   3.712  16.986 -0.7595  1.0851  1.8845
  606TIP3    H226014   3.717   3.822  16.974 -1.3370  0.3187 -0.6948
  607TIP3   OH226015   2.681   1.756  16.855  0.1982  0.3689 -0.3322
  607TIP3    H126016   2.618   1.707  16.802 -0.2213  0.9317 -0.3581
  607TIP3    H226017   2.708   1.829  16.800  1.3999 -0.2409 -0.5822
  608TIP3   OH226018   6.382   3.692  15.680 -0.2908  0.2205 -0.5479
  608TIP3    H126019   6.421   3.695  15.768  0.0904 -3.4455 -0.4410
  608TIP3    H226020   6.288   3.693  15.696 -0.2297  0.0680 -0.1588
  609TIP3   OH226021   5.117   2.567  14.667 -0.0524  0.2309  0.5572
  609TIP3    H126022   5.094   2.500  14.602  0.0753  0.1232  0.6241
  609TIP3    H226023   5.039   2.623  14.672 -0.3506 -0.2133  0.8846
  610TIP3   OH226024   1.286   0.892  15.972  0.1359  0.5443  0.1299
  610TIP3    H126025   1.279   0.838  16.050  0.7433  2.2609  1.4337
  610TIP3    H226026   1.331   0.971  16.001  0.3540  1.2595 -1.9598
  611TIP3   OH226027   5.048   3.217  16.138  0.3691  0.2442 -0.0449
  611TIP3    H126028   4.971   3.221  16.196  0.4532  0.8092  0.0327
  611TIP3    H226029   5.014   3.240  16.052  0.5905  1.3325  0.1392
  612TIP3   OH226030   4.833   1.056  17.535 -0.0155  0.2358 -0.7441
  612TIP3    H126031   4.911   1.082  17.583 -0.8424  1.1892  0.1071
  612TIP3    H226032   4.760   1.076  17.593 -0.9422 -0.1112 -1.7455
  613TIP3   OH226033   5.968   5.936  16.330 -0.6386  0.2607  0.0978
  613TIP3    H126034   6.003   6.015  16.371 -0.3203  0.8029 -1.1923
  613TIP3    H226035   6.032   5.868  16.349 -0.0342  0.7193 -0.2925
  614TIP3   OH226036   2.102   0.618  17.545  0.3887 -0.1023  0.5383
  614TIP3    H126037   2.146   0.589  17.465 -1.0054  0.8627 -0.6432
  614TIP3    H226038   2.141   0.704  17.564 -0.3767  0.3984 -0.0624
  615TIP3   OH226039   5.516   0.948  17.355 -0.5009  0.2431  0.7496
  615TIP3    H126040   5.570   0.948  17.434  1.5495 -1.2213 -0.5685
  615TIP3    H226041   5.427   0.962  17.387  0.1229 -1.2518  3.4285
  616TIP3   OH226042   1.510   4.996  14.693  0.2231  0.6641  0.4577
  616TIP3    H126043   1.440   5.054  14.720 -0.6569 -0.5352  0.8266
  616TIP3    H226044   1.466   4.916  14.666  1.3944  0.2143 -0.1938
  617TIP3   OH226045   1.759   6.249  16.020 -0.0924 -0.1110  0.2190
  617TIP3    H126046   1.819   6.236  15.947  0.1534  0.8480  0.2336
  617TIP3    H226047   1.802   6.315  16.075 -0.7250 -0.1014  0.7168
  618TIP3   OH226048   5.095   1.211  17.001 -0.2072 -0.1386  0.4469
  618TIP3    H126049   5.148   1.131  17.007 -0.3719 -0.3339 -0.6086
  618TIP3    H226050   5.117   1.260  17.080  1.7566 -0.1022 -0.0766
  619TIP3   OH226051   3.866   6.047  17.606  0.0222 -0.0681 -0.2007
  619TIP3    H126052   3.905   6.044  17.694  2.7681 -0.2012 -1.3169
  619TIP3    H226053   3.852   6.140  17.590 -0.6536 -0.0530  0.4288
  620TIP3   OH226054   6.051   2.494  16.185  0.1947 -0.4355  0.2007
  620TIP3    H126055   6.070   2.560  16.253 -0.3028  0.7986 -0.8198
  620TIP3    H226056   5.956   2.492  16.180  0.2382  0.1309 -1.0560
  621TIP3   OH226057   1.606   5.974  17.364  0.6704 -0.1825  0.3858
  621TIP3    H126058   1.552   5.902  17.332  0.4750  0.1078  0.0555
  621TIP3    H226059   1.657   5.936  17.436 -0.0766 -0.4181  0.7998
  622TIP3   OH226060   3.300   1.020  14.423  0.4134 -0.5748 -0.1641
  622TIP3    H126061   3.288   1.062  14.337 -0.7182  0.4258  0.4592
  622TIP3    H226062   3.375   1.065  14.461  0.0903 -0.0989 -0.0858
  623TIP3   OH226063   1.286   2.733  16.930 -0.4018 -0.1321  0.1231
  623TIP3    H126064   1.323   2.817  16.903  0.1563 -0.6698 -0.8610
  623TIP3    H226065   1.345   2.701  16.998  1.0631 -0.9957 -1.4514
  624TIP3   OH226066   4.952   1.629  15.908  0.2531  0.1487  0.3652
  624TIP3    H126067   4.916   1.716  15.928  1.1486  0.2886  1.4828
  624TIP3    H226068   4.915   1.572  15.974  1.2191  0.0939  0.8882
  625TIP3   OH226069   5.239   0.203  16.295  0.2084  0.7258  0.0478
  625TIP3    H126070   5.230   0.251  16.377 -0.3623 -0.6998  0.8615
  625TIP3    H226071   5.283   0.122  16.319 -0.6445 -0.0524 -0.9051
  626TIP3   OH226072   1.488   6.286  15.212  0.0316 -0.3121  0.5051
  626TIP3    H126073   1.580   6.284  15.185  0.0216 -2.0426  0.4685
  626TIP3    H226074   1.483   6.357  15.276  0.9450  1.1273 -0.9674
  627TIP3   OH226075   0.147   5.429  17.003  0.3717  0.2866  0.5431
  627TIP3    H126076   0.173   5.502  17.060  0.0889  0.5414  0.3479
  627TIP3    H226077   0.177   5.351  17.050 -0.4819  0.4512  1.3899
  628TIP3   OH226078   0.345   5.388  16.187  0.3758  0.2034  0.2115
  628TIP3    H126079   0.304   5.391  16.274 -0.8446 -0.1711 -0.3322
  628TIP3    H226080   0.429   5.343  16.202  0.6095  0.9713  1.3438
  629TIP3   OH226081   0.486   0.524  15.711 -0.0532 -0.0088  0.6213
  629TIP3    H126082   0.573   0.529  15.673  0.4054 -1.9328  1.3075
  629TIP3    H226083   0.477   0.603  15.763  0.0125  1.7908 -1.9513
  630TIP3   OH226084   4.661   1.865  15.464 -0.2695  0.3478 -0.4409
  630TIP3    H126085   4.639   1.909  15.382  0.9076  1.1051 -0.3924
  630TIP3    H226086   4.614   1.914  15.531 -2.2644 -1.0611 -0.7360
  631TIP3   OH226087   2.635   1.017  16.396  0.5743 -0.6966 -0.3315
  631TIP3    H126088   2.650   1.093  16.340  1.1070  0.5591  1.4300
  631TIP3    H226089   2.563   1.044  16.454  0.9308 -1.4361  0.4737
  632TIP3   OH226090   5.724   6.700  14.663  0.0837 -0.4996  0.2022
  632TIP3    H126091   5.646   6.755  14.651 -0.0461 -0.6782  0.2181
  632TIP3    H226092   5.704   6.648  14.741  1.2451  1.2244  1.7468
  633TIP3   OH226093   0.954   3.899  15.947 -0.4440 -0.5317 -0.1785
  633TIP3    H126094   0.999   3.868  16.025 -0.3235 -0.0593 -0.0574
  633TIP3    H226095   0.948   3.994  15.959 -1.4122 -0.5766 -0.2184
  634TIP3   OH226096   4.696   1.702  17.079 -0.4051  0.0959 -0.0252
  634TIP3    H126097   4.601   1.702  17.081 -0.5785  2.3310 -2.5456
  634TIP3    H226098   4.722   1.748  17.159 -1.4648  0.1502  0.2989
  635TIP3   OH226099   2.957   0.205  16.726  0.6100  0.8886 -0.1857
  635TIP3    H126100   3.002   0.266  16.785  1.6967 -1.5075  1.6307
  635TIP3    H226101   2.876   0.183  16.770  0.2457  0.9753 -0.7986
  636TIP3   OH226102   0.165   5.682  15.295 -0.2988  0.4231  0.2632
  636TIP3    H126103   0.258   5.678  15.314 -0.1751 -2.0159 -0.5323
  636TIP3    H226104   0.156   5.643  15.208 -2.1986 -1.1000  1.0513
  637TIP3   OH226105   2.121   4.077  15.615  0.1690  0.0776  0.2106
  637TIP3    H126106   2.168   4.084  15.698  0.0709  2.5899  0.1194
  637TIP3    H226107   2.184   4.104  15.549 -0.1335 -0.7056 -0.4155
  638TIP3   OH226108   2.681   5.212  14.656 -0.6138  0.0908  0.0657
  638TIP3    H126109   2.612   5.270  14.623  0.8644  1.0682 -1.4357
  638TIP3    H226110   2.731   5.188  14.578 -0.3938 -2.1903  0.8525
  639TIP3   OH226111   1.952   0.150  15.269 -0.4397 -0.2382 -0.2375
  639TIP3    H126112   1.866   0.190  15.278 -0.0100  0.6700 -0.0589
  639TIP3    H226113   2.000   0.209  15.211 -0.5478 -1.7497 -1.9560
  640TIP3   OH226114   6.490   5.064  15.359 -0.2225 -0.0222 -0.0506
  640TIP3    H126115   6.524   4.983  15.322 -0.5320 -0.9273  1.5078
  640TIP3    H226116   6.395   5.051  15.361 -0.3376  0.7156 -0.5093
  641TIP3   OH226117   0.265   3.795  17.728  0.1308  0.1699 -0.2315
  641TIP3    H126118   0.360   3.792  17.715  0.4399 -0.4237  1.7841
  641TIP3    H226119   0.253   3.850  17.805 -1.2019  0.3972 -0.5690
  642TIP3   OH226120   5.927   3.811  16.088  0.0878  0.1765  0.3700
  642TIP3    H126121   5.968   3.808  16.174  0.2141  0.1830  0.3107
  642TIP3    H226122   5.997   3.838  16.029 -0.4085  1.8718  0.5138
  643TIP3   OH226123   2.309   0.594  15.139  0.1689  0.2350  0.1485
  643TIP3    H126124   2.331   0.607  15.046  1.4324 -1.3039  0.1950
  643TIP3    H226125   2.393   0.575  15.181 -0.4491  0.4911  1.5432
  644TIP3   OH226126   1.292   0.548  15.648  0.2862 -0.1148  0.0704
  644TIP3    H126127   1.261   0.482  15.710  0.1408 -0.5902 -0.4993
  644TIP3    H226128   1.290   0.630  15.697  0.8627 -0.5924  0.9186
  645TIP3   OH226129   5.817   5.826  15.728 -0.3422 -0.0463  0.7952
  645TIP3    H126130   5.804   5.808  15.821  1.3632 -1.5245  0.8060
  645TIP3    H226131   5.852   5.744  15.692 -0.0102  0.8042 -0.9418
  646TIP3   OH226132   4.691   0.742  17.894 -0.3258  0.0445 -0.8397
  646TIP3    H126133   4.783   0.749  17.868 -0.4895 -0.6793 -1.6916
  646TIP3    H226134   4.680   0.808  17.962  0.3707  1.4196 -1.9989
  647TIP3   OH226135   0.914   0.494  14.388  0.3209  0.3185 -0.1812
  647TIP3    H126136   0.956   0.579  14.380 -2.0767  1.5963 -0.1858
  647TIP3    H226137   0.830   0.504  14.343 -0.8173 -1.4798  1.3564
  648TIP3   OH226138   6.476   5.450  14.688  0.2328 -0.0441 -0.1255
  648TIP3    H126139   6.458   5.369  14.736  0.3479 -0.7746 -1.2727
  648TIP3    H226140   6.397   5.503  14.699 -0.9332 -1.4081 -1.4947
  649TIP3   OH226141   1.306   3.824  16.659 -0.4208 -0.4367 -0.1382
  649TIP3    H126142   1.253   3.903  16.657  1.5361  0.9126 -1.6455
  649TIP3    H226143   1.259   3.765  16.719 -2.0845  1.7063  0.7776
  650TIP3   OH226144   4.511   2.264  16.940  0.1921  0.0541  0.3264
  650TIP3    H126145   4.446   2.199  16.968 -0.0115  0.0443 -0.1615
  650TIP3    H226146   4.594   2.216  16.941  0.4183  0.3973  2.1762
  651TIP3   OH226147   0.492   3.441  17.809 -0.5460  0.0397 -0.3056
  651TIP3    H126148   0.515   3.438  17.902  1.8492  0.8799 -0.8089
  651TIP3    H226149   0.494   3.534  17.787 -1.6063 -0.1079 -1.1024
  652TIP3   OH226150   2.451   5.184  16.917  0.1468 -0.2935 -0.0981
  652TIP3    H126151   2.396   5.262  16.914  1.4452  0.6809  0.6744
  652TIP3    H226152   2.455   5.153  16.826  0.7949  1.3956 -0.6783
  653TIP3   OH226153   4.643   2.604  15.910 -0.1944  0.0839 -0.2377
  653TIP3    H126154   4.580   2.675  15.903  0.7667  1.0873  0.7683
  653TIP3    H226155   4.645   2.564  15.824 -1.0051  1.0758 -0.7322
  654TIP3   OH226156   4.888   5.996  14.656 -0.6895 -0.0511  0.5223
  654TIP3    H126157   4.983   5.994  14.643 -0.7973 -0.7615 -0.2377
  654TIP3    H226158   4.870   6.086  14.681  0.2346 -0.0065  1.0728
  655TIP3   OH226159   0.230   0.141  16.508  0.0341  0.0085  0.3751
  655TIP3    H126160   0.231   0.234  16.483 -0.6362  0.0432  0.4563
  655TIP3    H226161   0.191   0.141  16.595  2.2780 -0.1163  1.4650
  656TIP3   OH226162   4.123   2.476  16.962 -0.0100 -0.4671  0.3694
  656TIP3    H126163   4.058   2.539  16.991  0.0726 -0.2425  0.0692
  656TIP3    H226164   4.207   2.513  16.988  0.0268 -0.5396  0.3554
  657TIP3   OH226165   5.373   2.692  15.435 -0.2379 -0.1409 -0.7619
  657TIP3    H126166   5.339   2.686  15.346 -3.0160  0.8999  0.1387
  657TIP3    H226167   5.330   2.621  15.483  2.0112 -1.3564 -0.3904
  658TIP3   OH226168   5.671   1.547  16.259  0.2418 -0.2447 -0.0933
  658TIP3    H126169   5.666   1.514  16.348 -0.9351  0.0737 -0.0340
  658TIP3    H226170   5.618   1.627  16.259  0.6304  0.0344 -0.9624
  659TIP3   OH226171   2.294   0.870  16.798 -0.0999  0.2287  0.1630
  659TIP3    H126172   2.225   0.933  16.776 -0.6563 -0.8135 -1.2352
  659TIP3    H226173   2.359   0.921  16.847 -0.8780  1.7060 -0.2910
  660TIP3   OH226174   2.532   0.913  13.878 -0.8243 -0.1939  0.2912
  660TIP3    H126175   2.482   0.918  13.796 -1.0678 -0.5637  0.4134
  660TIP3    H226176   2.479   0.963  13.941 -0.5411  0.2530  0.1785
  661TIP3   OH226177   2.987   0.794  17.565  0.4833 -0.0863 -0.1997
  661TIP3    H126178   2.945   0.819  17.647  0.0646 -0.7856 -0.1904
  661TIP3    H226179   2.922   0.812  17.497  1.1974  1.4470 -0.5073
  662TIP3   OH226180   4.096   4.144  17.225 -0.3907  0.0414 -0.2141
  662TIP3    H126181   4.053   4.128  17.309  0.0806 -0.8626 -0.1352
  662TIP3    H226182   4.094   4.060  17.180  2.2251 -0.3447  0.2481
  663TIP3   OH226183   4.465   0.631  15.700 -0.1285 -0.4542 -0.4887
  663TIP3    H126184   4.387   0.578  15.681 -0.0436 -1.0321  0.7076
  663TIP3    H226185   4.513   0.581  15.765 -0.2095  1.2430  0.9430
  664TIP3   OH226186   3.703   5.732  15.995 -0.3721 -0.2188  0.2691
  664TIP3    H126187   3.731   5.823  16.005  0.3486 -0.4173  0.1338
  664TIP3    H226188   3.759   5.683  16.056  0.9476 -0.8708 -1.4088
  665TIP3   OH226189   2.764   1.173  18.081 -0.4516 -0.0769  0.3275
  665TIP3    H126190   2.730   1.204  17.997 -1.3653  0.7836  1.0053
  665TIP3    H226191   2.761   1.077  18.074 -2.2860 -0.0304  0.0694
  666TIP3   OH226192   4.018   5.830  16.279  0.9126  0.1467 -0.0910
  666TIP3    H126193   3.980   5.779  16.351 -0.0910 -0.3200 -0.9159
  666TIP3    H226194   4.110   5.840  16.302  1.3083 -2.5981 -0.1580
  667TIP3   OH226195   2.660   2.942  15.499 -0.2994 -0.8546 -0.2540
  667TIP3    H126196   2.712   2.900  15.568 -0.6476 -1.9016 -0.6043
  667TIP3    H226197   2.709   3.020  15.476  0.6318 -1.3258  0.0853
  668TIP3   OH226198   3.465   5.705  14.887 -0.2413 -0.6758  0.1448
  668TIP3    H126199   3.557   5.732  14.882  0.2346 -1.8815  1.7638
  668TIP3    H226200   3.460   5.626  14.833 -0.2020 -0.9044  0.4729
  669TIP3   OH226201   3.989   3.846  17.319  0.3867  0.2179 -0.5752
  669TIP3    H126202   3.899   3.816  17.306  0.2887  0.9455 -1.6808
  669TIP3    H226203   4.043   3.780  17.275  0.3819 -0.0505 -0.1855
  670TIP3   OH226204   5.726   1.736  15.077  0.5895 -0.2771  0.1865
  670TIP3    H126205   5.653   1.717  15.019  1.8974  0.9822 -2.0085
  670TIP3    H226206   5.690   1.727  15.165 -2.0909 -0.0919 -0.8072
  671TIP3   OH226207   2.321   4.882  16.790  0.0306 -0.4007 -0.0489
  671TIP3    H126208   2.249   4.941  16.770  0.4538  0.0189 -0.3334
  671TIP3    H226209   2.395   4.914  16.739 -0.1793 -2.2077 -1.6233
  672TIP3   OH226210   6.393   3.721  17.539 -0.1618 -0.5581  0.0376
  672TIP3    H126211   6.368   3.696  17.450  1.4127  0.8651 -0.8673
  672TIP3    H226212   6.481   3.684  17.551  0.1690  0.3394  0.4992
  673TIP3   OH226213   3.519   6.122  16.625  0.3578  0.2063  0.2251
  673TIP3    H126214   3.455   6.174  16.673  1.2212  0.8752  0.6660
  673TIP3    H226215   3.548   6.179  16.554  2.2518  0.8683  1.4537
  674TIP3   OH226216   3.935   0.903  16.864 -0.2249  0.2484  0.3731
  674TIP3    H126217   3.964   0.819  16.831 -1.4908  0.0056 -0.1902
  674TIP3    H226218   3.843   0.909  16.838 -0.2162  1.7178  0.5726
  675TIP3   OH226219   2.022   4.050  17.092  0.0349  0.4557  0.1662
  675TIP3    H126220   1.955   4.074  17.029  0.3539 -0.0470 -0.3722
  675TIP3    H226221   2.098   4.025  17.039  0.4340  0.4000  0.7506
  676TIP3   OH226222   6.047   4.924  15.442 -0.5827  0.5292  0.1607
  676TIP3    H126223   6.051   4.830  15.458  1.7184  0.5510  0.0303
  676TIP3    H226224   5.955   4.946  15.450 -1.6348 -2.2013 -2.4226
  677TIP3   OH226225   3.442   5.422  17.612 -0.3022 -0.6065  0.5526
  677TIP3    H126226   3.484   5.426  17.698  1.5034 -1.7279 -0.2194
  677TIP3    H226227   3.459   5.507  17.573  0.4612 -0.7191  0.6234
  678TIP3   OH226228   4.633   6.416  14.020 -0.4009 -0.7256  0.7803
  678TIP3    H126229   4.661   6.508  14.025  0.3991 -0.8455 -0.9384
  678TIP3    H226230   4.557   6.418  13.962 -1.5537 -0.9460  2.2149
  679TIP3   OH226231   5.430   4.100  17.411 -0.0198  0.2804 -0.0368
  679TIP3    H126232   5.499   4.128  17.470  0.0164  0.5259 -0.1955
  679TIP3    H226233   5.358   4.074  17.468 -0.2108  1.0951  0.1047
  680TIP3   OH226234   5.084   2.546  15.977 -0.6162  0.2148  0.5415
  680TIP3    H126235   5.145   2.605  15.933  2.0519 -1.0393  2.3160
  680TIP3    H226236   5.089   2.465  15.927 -1.6671  0.4029  0.1053
  681TIP3   OH226237   4.016   4.772  17.527  0.0255 -0.5943  0.1501
  681TIP3    H126238   3.946   4.776  17.593  0.1253  1.4869  0.2019
  681TIP3    H226239   4.047   4.863  17.520  0.5104 -0.8877 -2.2497
  682TIP3   OH226240   4.598   5.957  16.923  0.4444 -0.7147 -0.4243
  682TIP3    H126241   4.505   5.934  16.915  0.2685 -0.7597  1.3338
  682TIP3    H226242   4.598   6.053  16.923  0.3786 -0.7147 -0.2156
  683TIP3   OH226243   6.714   1.642  17.424  0.0370 -0.1147  0.5606
  683TIP3    H126244   6.731   1.647  17.518 -0.1555 -0.0149  0.5923
  683TIP3    H226245   6.681   1.729  17.402  2.0768  0.5635 -0.0032
  684TIP3   OH226246   2.839   3.586  17.690  0.1908 -0.5140 -0.1549
  684TIP3    H126247   2.817   3.582  17.597 -0.9727 -0.0974  0.0891
  684TIP3    H226248   2.832   3.496  17.720 -0.1227 -0.5425 -0.3165
  685TIP3   OH226249   5.628   5.919  18.079  0.2605  0.7404  0.6131
  685TIP3    H126250   5.611   5.826  18.062  0.7503  0.7857 -0.2139
  685TIP3    H226251   5.547   5.952  18.117 -0.5241  0.3402 -0.6426
  686TIP3   OH226252   0.350   1.377  17.263 -0.0097 -0.1874 -0.3242
  686TIP3    H126253   0.403   1.312  17.310  0.7926  1.4845  1.1763
  686TIP3    H226254   0.260   1.353  17.284  0.2495 -1.0503 -0.1275
  687TIP3   OH226255   2.923   3.028  14.603  0.3754  0.3286 -0.4507
  687TIP3    H126256   3.008   3.030  14.559  1.0479  1.8801  0.8227
  687TIP3    H226257   2.911   3.117  14.637 -1.6825  0.0946 -0.4301
  688TIP3   OH226258   0.733   5.413  14.685 -0.3223  0.3658  0.0363
  688TIP3    H126259   0.691   5.350  14.743 -1.3330  2.2334  1.4233
  688TIP3    H226260   0.789   5.465  14.742  0.3081  0.9061 -1.0374
  689TIP3   OH226261   4.064   0.247  16.134 -0.1971  0.6596 -0.5097
  689TIP3    H126262   4.086   0.308  16.204  0.5206 -2.4385  2.1847
  689TIP3    H226263   4.135   0.257  16.071  0.5904  1.7091  0.5108
  690TIP3   OH226264   6.352   2.292  17.201 -0.4198 -0.1066  0.5204
  690TIP3    H126265   6.265   2.307  17.165  0.0374 -0.1013 -0.6578
  690TIP3    H226266   6.411   2.320  17.131  0.5377  0.2282  1.4285
  691TIP3   OH226267   4.730   2.078  18.114  0.4064  0.3089  0.1082
  691TIP3    H126268   4.716   2.166  18.149  1.1449 -0.2798  1.9908
  691TIP3    H226269   4.652   2.029  18.141 -0.1168  0.3979 -1.1357
  692TIP3   OH226270   6.217   2.434  17.747  0.2619  0.1861  0.0907
  692TIP3    H126271   6.245   2.370  17.812  0.5582  0.8979  0.6775
  692TIP3    H226272   6.174   2.503  17.798  2.4879  1.8787 -0.1644
  693TIP3   OH226273   1.611   2.408  16.495  0.1675  0.0896  0.2230
  693TIP3    H126274   1.665   2.344  16.540  2.7463  2.3267  0.5655
  693TIP3    H226275   1.521   2.377  16.508  1.1872 -2.7095  1.3984
  694TIP3   OH226276   2.839   3.749  16.508  0.1601  0.7231 -0.1176
  694TIP3    H126277   2.914   3.690  16.500 -0.6553 -0.3256 -0.1421
  694TIP3    H226278   2.825   3.757  16.603 -0.3346  0.0758 -0.1274
  695TIP3   OH226279   1.865   5.835  14.230 -0.4204  0.1408 -0.0666
  695TIP3    H126280   1.935   5.792  14.182 -0.9121  0.6282 -1.2617
  695TIP3    H226281   1.784   5.798  14.193 -0.8738 -1.9622  2.6850
  696TIP3   OH226282   2.333   6.310  17.365 -0.5969  0.3487  0.5283
  696TIP3    H126283   2.250   6.272  17.336 -0.8651  0.6517  0.8853
  696TIP3    H226284   2.395   6.287  17.296 -0.8075 -0.5213  0.6147
  697TIP3   OH226285   5.394   5.261  17.758 -0.1330  0.2353  0.0072
  697TIP3    H126286   5.454   5.187  17.748 -0.3226  0.0724  0.0637
  697TIP3    H226287   5.379   5.267  17.853 -0.2511  0.2397 -0.0120
  698TIP3   OH226288   5.154   6.574  15.926  0.4795 -0.2226  0.2127
  698TIP3    H126289   5.231   6.548  15.874 -0.2908 -1.7417 -0.2567
  698TIP3    H226290   5.114   6.490  15.951 -1.6921  0.5073 -0.5966
  699TIP3   OH226291   4.373   2.293  16.701 -0.1041  0.2756  0.5830
  699TIP3    H126292   4.411   2.302  16.788  2.2687 -0.0938 -0.3356
  699TIP3    H226293   4.374   2.198  16.684  1.0475  0.4317 -0.4342
  700TIP3   OH226294   1.393   3.335  17.442 -0.1648 -0.2005 -0.2327
  700TIP3    H126295   1.453   3.409  17.430  1.7979 -1.5429  0.7466
  700TIP3    H226296   1.430   3.286  17.515  0.1307 -3.5695 -2.4037
  701TIP3   OH226297   3.466   2.372  16.579  0.1271 -0.0207  0.2276
  701TIP3    H126298   3.397   2.381  16.645  0.5637 -1.1106  0.8746
  701TIP3    H226299   3.530   2.313  16.620  1.6400  1.2790 -0.1986
  702TIP3   OH226300   4.740   4.499  16.308 -0.0431 -0.0400 -0.1356
  702TIP3    H126301   4.650   4.465  16.305  0.9715 -3.0905  0.8962
  702TIP3    H226302   4.776   4.477  16.222  0.0819  0.1120 -0.1229
  703TIP3   OH226303   0.567   0.863  17.410  0.0196 -0.2698 -0.0699
  703TIP3    H126304   0.642   0.807  17.431 -0.4757 -0.7048  0.5862
  703TIP3    H226305   0.584   0.893  17.320  0.4135 -1.2793 -0.3455
  704TIP3   OH226306   3.776   0.164  14.969  0.0548 -0.1941 -0.2991
  704TIP3    H126307   3.685   0.134  14.970  0.7394 -2.5448  1.2055
  704TIP3    H226308   3.818   0.113  15.038  1.7432  3.4773  1.6849
  705TIP3   OH226309   0.583   3.465  15.827  0.4163 -0.0042  0.1723
  705TIP3    H126310   0.639   3.399  15.786  0.8485 -0.3213  1.2435
  705TIP3    H226311   0.640   3.510  15.888 -0.5483 -0.5590  1.5371
  706TIP3   OH226312   6.012   6.694  17.535  0.2986  0.5572 -0.3126
  706TIP3    H126313   5.937   6.734  17.580  1.0120  1.7798 -0.1783
  706TIP3    H226314   5.984   6.688  17.443  0.5502  2.3587 -0.5377
  707TIP3   OH226315   0.467   5.788  15.674  0.0446 -0.0065  1.0286
  707TIP3    H126316   0.407   5.734  15.623  0.9058  0.4111 -0.4736
  707TIP3    H226317   0.477   5.740  15.757 -0.5052 -1.2819  0.3932
  708TIP3   OH226318   5.726   3.884  17.768 -0.5775 -0.0769 -0.3630
  708TIP3    H126319   5.792   3.830  17.813 -0.2367  1.1551  0.6883
  708TIP3    H226320   5.755   3.887  17.677  0.6113  0.1165  0.0041
  709TIP3   OH226321   3.954   0.051  15.638 -0.1158  0.5030 -0.4931
  709TIP3    H126322   4.011  -0.018  15.601  0.2239  0.0565  0.8280
  709TIP3    H226323   4.015   0.115  15.674 -0.4414  1.3281 -1.3789
  710TIP3   OH226324   0.387   1.095  14.509  0.0135  0.0570  0.1644
  710TIP3    H126325   0.471   1.058  14.482  0.4287  0.5844  0.7057
  710TIP3    H226326   0.330   1.081  14.433  0.7118  0.0799 -0.3831
  711TIP3   OH226327   3.217   3.378  17.496  0.0395 -0.3578 -0.3322
  711TIP3    H126328   3.174   3.444  17.551 -0.1841 -0.1927 -0.7021
  711TIP3    H226329   3.284   3.427  17.447 -0.9604 -0.1575 -1.5388
  712TIP3   OH226330   5.621   3.302  16.941  0.4170  0.4265 -0.1259
  712TIP3    H126331   5.710   3.271  16.924  0.6515 -0.8328  2.7574
  712TIP3    H226332   5.565   3.227  16.922  0.3893  0.0419  1.3147
  713TIP3   OH226333   0.085   6.493  16.483  0.0407  0.4552  0.1608
  713TIP3    H126334   0.047   6.503  16.395  0.3981  0.0318 -0.0425
  713TIP3    H226335   0.174   6.462  16.468  0.3174  0.9881  0.6534
  714TIP3   OH226336   0.186   1.942  16.018  0.3608  0.4851  0.2092
  714TIP3    H126337   0.180   2.037  16.033 -0.6834  0.7584 -1.6775
  714TIP3    H226338   0.098   1.909  16.034  0.5862 -0.0994  0.2790
  715TIP3   OH226339   1.701   0.877  14.722  0.1048  0.7093 -0.5091
  715TIP3    H126340   1.729   0.943  14.659  0.7711 -0.2463 -1.2510
  715TIP3    H226341   1.655   0.926  14.790  1.4120  2.0501 -0.5402
  716TIP3   OH226342   2.535   2.714  15.822 -0.2260 -0.0415 -0.0543
  716TIP3    H126343   2.586   2.662  15.759  1.9636  1.2636  0.5415
  716TIP3    H226344   2.599   2.773  15.862 -1.5946 -0.5285  3.1441
  717TIP3   OH226345   2.961   0.773  15.412 -0.1038 -0.3196 -0.1200
  717TIP3    H126346   2.961   0.766  15.316  0.9574 -1.1177 -0.0678
  717TIP3    H226347   2.892   0.713  15.440  0.3316 -0.9247 -0.3309
  718TIP3   OH226348   4.657   6.355  17.191 -0.0423  0.8863  0.6382
  718TIP3    H126349   4.678   6.262  17.196 -0.1807  0.8737  1.0126
  718TIP3    H226350   4.589   6.361  17.124  0.0905  0.7404  0.4904
  719TIP3   OH226351   6.169   4.413  17.203  0.3501  0.2019 -0.3069
  719TIP3    H126352   6.124   4.469  17.139  0.2428 -0.7494 -1.0821
  719TIP3    H226353   6.261   4.440  17.198  0.1882  0.7907 -0.1598
  720TIP3   OH226354   0.709   0.668  16.586 -0.3608  0.0142  0.5280
  720TIP3    H126355   0.784   0.684  16.644 -0.8231  0.1758  1.0880
  720TIP3    H226356   0.716   0.576  16.562  0.9768  0.4248 -0.8032
  721TIP3   OH226357   5.887   6.449  15.684  0.6348 -0.3410 -0.4295
  721TIP3    H126358   5.826   6.512  15.722  2.0440  1.8651 -1.6429
  721TIP3    H226359   5.865   6.449  15.590 -0.2402 -2.7727 -0.3013
  722TIP3   OH226360   2.588   2.399  17.597  0.2126  0.0188 -0.0296
  722TIP3    H126361   2.506   2.354  17.576  0.5642 -1.1441  0.9564
  722TIP3    H226362   2.566   2.458  17.669  0.1247  0.1322 -0.1493
  723TIP3   OH226363   5.919   2.436  16.806  0.5221  0.5828 -0.4920
  723TIP3    H126364   5.940   2.521  16.768 -0.4514  1.3348  0.5743
  723TIP3    H226365   5.861   2.394  16.742  0.5973  0.9364 -0.7898
  724TIP3   OH226366   3.995   5.503  16.049 -0.6827  0.2984  0.7104
  724TIP3    H126367   3.948   5.425  16.019  0.7458 -0.2039 -0.3232
  724TIP3    H226368   4.074   5.506  15.995 -0.9590  2.7908  0.3265
  725TIP3   OH226369   1.730   3.780  17.497  0.0384 -0.2433  0.1159
  725TIP3    H126370   1.821   3.784  17.525 -0.2642  0.4082  1.0552
  725TIP3    H226371   1.728   3.831  17.416  0.8823 -1.9704 -1.0581
  726TIP3   OH226372   6.504   1.715  15.157 -0.0200 -0.0985 -0.2815
  726TIP3    H126373   6.472   1.676  15.076  0.2233 -1.2885  0.1756
  726TIP3    H226374   6.443   1.787  15.175  0.1376  0.4193 -1.6967
  727TIP3   OH226375   4.050   1.919  16.748 -0.4854  0.1814  0.4223
  727TIP3    H126376   4.023   2.007  16.773 -0.0834  0.6731 -0.7786
  727TIP3    H226377   4.136   1.907  16.789 -0.7564  0.1505  0.9878
  728TIP3   OH226378   6.001   3.892  17.831 -0.1966 -0.2932 -0.0468
  728TIP3    H126379   6.018   3.868  17.922 -0.1195 -1.0951 -0.2682
  728TIP3    H226380   6.074   3.853  17.782 -0.1285  0.3047 -0.4291
  729TIP3   OH226381   0.248   5.775  16.409 -0.8708  0.0912  0.0276
  729TIP3    H126382   0.218   5.715  16.477  0.1184 -0.2767  0.1603
  729TIP3    H226383   0.328   5.814  16.446 -1.6995  1.7962  0.1171
  730TIP3   OH226384   0.614   4.723  18.258  0.2077 -0.5684  0.0693
  730TIP3    H126385   0.562   4.646  18.280  0.4881 -0.6283  0.5414
  730TIP3    H226386   0.681   4.690  18.198 -0.4996 -0.4230 -0.8256
  731TIP3   OH226387   3.230   3.097  14.990 -0.7885 -0.3341 -0.0049
  731TIP3    H126388   3.155   3.150  14.962 -1.2652 -1.3185 -0.6195
  731TIP3    H226389   3.220   3.014  14.943 -0.0557 -0.9782  0.9501
  732TIP3   OH226390   2.811   3.731  14.711  0.3884  0.5496 -0.2537
  732TIP3    H126391   2.786   3.701  14.623 -0.2848  0.3276  0.0117
  732TIP3    H226392   2.815   3.826  14.703  0.5096  0.5190 -0.5736
  733TIP3   OH226393   4.833   6.518  15.190 -0.3051 -0.0616 -0.8362
  733TIP3    H126394   4.915   6.511  15.141  0.9364  0.3436  1.0694
  733TIP3    H226395   4.844   6.596  15.243 -1.6617 -0.3814 -0.0457
  734TIP3   OH226396   6.452   0.850  17.408 -0.5288 -0.0751  0.4816
  734TIP3    H126397   6.456   0.892  17.323  2.2725  1.1857  1.1272
  734TIP3    H226398   6.468   0.757  17.390 -1.0080  0.0136 -0.4328
  735TIP3   OH226399   4.380   1.139  18.091 -0.2976 -0.2334  0.4757
  735TIP3    H126400   4.375   1.044  18.098  0.1282 -0.4847 -1.7644
  735TIP3    H226401   4.460   1.155  18.040 -0.7338  1.2732  0.2007
  736TIP3   OH226402   5.691   0.702  16.783  0.0336  0.7431  0.2573
  736TIP3    H126403   5.738   0.713  16.865 -0.9321 -0.5006  1.0199
  736TIP3    H226404   5.636   0.625  16.797  0.0277  0.3556 -1.6502
  737TIP3   OH226405   1.122   5.812  15.307  0.0915  0.0700  0.5944
  737TIP3    H126406   1.156   5.854  15.385  0.8666 -1.9237  1.3987
  737TIP3    H226407   1.199   5.796  15.253 -0.0870 -0.8343  0.5907
  738TIP3   OH226408   3.188   0.072  15.159  0.1071  0.0917  0.5915
  738TIP3    H126409   3.152   0.151  15.117 -1.0595 -1.9060 -2.5745
  738TIP3    H226410   3.112   0.031  15.201 -0.2182 -1.2384 -1.1754
  739TIP3   OH226411   0.235   0.922  15.635 -0.9378  1.2125  0.3455
  739TIP3    H126412   0.158   0.975  15.658 -0.8524  0.7997  1.7123
  739TIP3    H226413   0.254   0.873  15.715  0.3120  0.7609 -0.2103
  740TIP3   OH226414   6.569   0.664  16.161  0.3422 -0.4357 -0.4103
  740TIP3    H126415   6.511   0.692  16.232 -0.4717 -0.4142 -1.0661
  740TIP3    H226416   6.600   0.577  16.188 -2.4714 -1.8805 -1.4218
  741TIP3   OH226417   0.363   5.734  14.847  0.5569 -0.4028 -0.4858
  741TIP3    H126418   0.382   5.820  14.809  1.0568  0.1885  1.0160
  741TIP3    H226419   0.374   5.673  14.775  0.2597  0.7820 -1.5730
  742TIP3   OH226420   5.027   0.848  15.462  0.2090  0.2095 -0.1636
  742TIP3    H126421   4.957   0.902  15.496 -0.0889 -0.3509  0.1293
  742TIP3    H226422   5.028   0.771  15.519  0.1855 -0.4022 -0.9696
  743TIP3   OH226423   0.245   1.206  15.483  0.1663  0.1520 -0.2474
  743TIP3    H126424   0.220   1.139  15.548 -0.6433  0.9169  0.2498
  743TIP3    H226425   0.212   1.171  15.400 -1.0444  0.3241  0.1405
  744TIP3   OH226426   5.957   2.116  16.548  0.7771 -0.5605 -0.3250
  744TIP3    H126427   6.018   2.047  16.569  1.7497  0.2012 -0.5771
  744TIP3    H226428   5.988   2.152  16.465  1.1537  1.0936  0.4747
  745TIP3   OH226429   6.223   3.277  14.809 -0.5507  0.0058 -0.2272
  745TIP3    H126430   6.257   3.357  14.769  0.1987 -0.2525 -0.1215
  745TIP3    H226431   6.246   3.208  14.748  0.2704 -0.3409  0.4515
  746TIP3   OH226432   0.140   4.419  18.026 -0.0365  0.2267  0.3801
  746TIP3    H126433   0.164   4.372  17.946  0.3020  1.5776 -0.3499
  746TIP3    H226434   0.046   4.435  18.018 -0.2622 -0.7806  0.8948
  747TIP3   OH226435   0.370   0.966  16.398  0.1074  0.4819 -0.3102
  747TIP3    H126436   0.403   0.999  16.314  1.4560 -1.4956 -0.6152
  747TIP3    H226437   0.448   0.955  16.452 -0.6417  0.7218  0.8473
  748TIP3   OH226438   3.124   5.448  16.692  0.1953 -0.7793  0.1243
  748TIP3    H126439   3.184   5.431  16.764  2.0909 -0.7043 -1.3745
  748TIP3    H226440   3.105   5.361  16.655  0.1969 -0.7139 -0.0318
  749TIP3   OH226441   3.841   3.871  17.865  0.6013  0.5510  0.2959
  749TIP3    H126442   3.897   3.890  17.789  0.6750 -0.0797  0.1805
  749TIP3    H226443   3.847   3.776  17.875 -0.0669  0.5337  0.5838
  750TIP3   OH226444   5.056   6.254  15.341  0.1686  0.4871  0.4100
  750TIP3    H126445   5.084   6.205  15.264  0.7965 -0.3878  1.1623
  750TIP3    H226446   4.985   6.202  15.379  0.9480  0.0306  1.3057
  751TIP3   OH226447   0.897   1.172  14.147  0.2497 -0.4680 -0.3228
  751TIP3    H126448   0.963   1.106  14.170  1.1287 -0.0611 -1.5832
  751TIP3    H226449   0.936   1.220  14.073 -0.9719  0.5433 -0.3344
  752TIP3   OH226450   0.615   3.988  14.867 -0.4355  0.1064 -0.8813
  752TIP3    H126451   0.575   4.012  14.783 -1.7447  0.2480 -0.2426
  752TIP3    H226452   0.585   3.898  14.882 -0.3391  0.1394 -0.4877
  753TIP3   OH226453   4.115   0.815  15.733 -0.4134  0.0344  0.1232
  753TIP3    H126454   4.155   0.893  15.695 -1.4913  0.0860 -0.9562
  753TIP3    H226455   4.132   0.746  15.669  1.7803 -1.0133  1.7136
  754TIP3   OH226456   4.994   2.488  16.472 -0.3421  0.5619 -0.2570
  754TIP3    H126457   5.001   2.401  16.513  0.6909 -0.1062 -1.7312
  754TIP3    H226458   5.011   2.471  16.379 -2.1543  2.0802 -0.9050
  755TIP3   OH226459   0.657   6.133  15.399  0.2332 -0.2153 -0.3198
  755TIP3    H126460   0.576   6.100  15.358 -1.8581  3.0266  0.7811
  755TIP3    H226461   0.638   6.130  15.493  1.2135  0.9493 -0.0674
  756TIP3   OH226462   3.735   5.602  17.572 -0.0062 -0.2553  0.2885
  756TIP3    H126463   3.645   5.629  17.585  0.1720  0.0707  0.8778
  756TIP3    H226464   3.737   5.565  17.484 -1.1251 -1.9616  0.9304
  757TIP3   OH226465   5.116   3.643  15.703  0.9888 -0.0723  0.7817
  757TIP3    H126466   5.190   3.624  15.645  0.2062  2.1800 -1.1117
  757TIP3    H226467   5.053   3.574  15.684  0.8677  0.4656 -0.9021
  758TIP3   OH226468   3.040   2.178  17.789 -0.2779 -0.1569  0.1956
  758TIP3    H126469   2.960   2.174  17.738  0.1981 -0.5038 -0.5408
  758TIP3    H226470   3.052   2.088  17.822 -0.5161  0.0357  0.8158
  759TIP3   OH226471   2.778   4.109  16.109  0.1754  0.1276 -0.3402
  759TIP3    H126472   2.707   4.163  16.143 -0.9108 -1.1122 -0.5796
  759TIP3    H226473   2.739   4.060  16.037  1.0740 -1.0988 -0.0255
  760TIP3   OH226474   6.377   1.015  17.688 -0.5319  0.1803 -0.3425
  760TIP3    H126475   6.361   1.039  17.596 -0.4442  0.9477 -0.1639
  760TIP3    H226476   6.407   1.096  17.729 -3.7814  0.7806  1.1759
  761TIP3   OH226477   3.091   0.229  14.895 -0.0024  0.2181  0.6034
  761TIP3    H126478   3.174   0.275  14.911  0.4583 -0.4137  0.0910
  761TIP3    H226479   3.037   0.293  14.848  0.5962  0.2838 -0.0205
  762TIP3   OH226480   1.782   6.514  17.541  0.1662  0.0555 -0.2380
  762TIP3    H126481   1.846   6.573  17.581 -0.7977  0.1038  1.3378
  762TIP3    H226482   1.776   6.441  17.603 -1.1530 -0.0327 -0.4435
  763TIP3   OH226483   1.054   0.867  16.295 -0.4907  0.3619  0.0279
  763TIP3    H126484   0.980   0.810  16.317  0.4439 -0.9879 -0.2437
  763TIP3    H226485   1.027   0.954  16.325 -2.1822 -0.1026 -0.0663
  764TIP3   OH226486   4.425   0.826  16.713 -0.0057 -0.4469 -0.0567
  764TIP3    H126487   4.373   0.886  16.659 -0.2940 -0.2349  0.4515
  764TIP3    H226488   4.442   0.874  16.794  0.3087 -0.8138  0.0995
  765TIP3   OH226489   3.495   4.262  15.666 -0.3744  0.5162 -0.1049
  765TIP3    H126490   3.425   4.296  15.610 -0.0411 -0.0304 -0.8646
  765TIP3    H226491   3.525   4.339  15.715 -1.4312  0.7771  0.1603
  766TIP3   OH226492   0.941   5.956  17.227  0.0051 -0.0298 -0.5445
  766TIP3    H126493   0.959   5.901  17.302 -2.4315 -0.0388  0.1100
  766TIP3    H226494   1.024   6.001  17.210  1.5150 -2.3745  0.1083
  767TIP3   OH226495   5.584   5.685  17.011  0.1948 -1.1665  0.3099
  767TIP3    H126496   5.671   5.720  16.990  0.0211 -1.4347 -0.9480
  767TIP3    H226497   5.555   5.736  17.087  0.9290 -0.2272 -0.0202
  768TIP3   OH226498   5.166   0.513  16.972  0.1770 -0.2592  0.5044
  768TIP3    H126499   5.222   0.449  17.018  2.6151 -0.2011 -2.0845
  768TIP3    H226500   5.120   0.461  16.906 -1.5178  0.0076  1.4160
  769TIP3   OH226501   0.196   0.878  16.182 -0.3725 -0.1575  0.7097
  769TIP3    H126502   0.133   0.948  16.168  0.7993  0.7958  0.0206
  769TIP3    H226503   0.261   0.915  16.241  1.6024  0.2667 -1.5682
  770TIP3   OH226504   1.245   4.624  16.608 -0.0991  0.2271  0.0848
  770TIP3    H126505   1.150   4.624  16.597 -0.2186  0.3797  0.9966
  770TIP3    H226506   1.265   4.712  16.641  0.1967 -0.1971  1.0735
  771TIP3   OH226507   4.618   5.275  15.817  0.3688 -0.6081 -0.5018
  771TIP3    H126508   4.592   5.297  15.906 -0.5887 -1.0172 -0.6729
  771TIP3    H226509   4.713   5.261  15.822  0.6527  1.2481  0.0671
  772TIP3   OH226510   5.290   5.064  17.058 -1.0414 -0.2285  0.0140
  772TIP3    H126511   5.236   5.101  16.988 -1.7979 -0.1480  0.6198
  772TIP3    H226512   5.241   4.987  17.088  0.1145 -1.2811 -0.6787
  773TIP3   OH226513   1.731   0.655  16.739  0.4709  0.1108  1.0851
  773TIP3    H126514   1.814   0.642  16.785  1.0150  3.4597  1.2887
  773TIP3    H226515   1.751   0.719  16.671 -1.7094  0.0843  0.3474
  774TIP3   OH226516   1.298   5.537  14.234  0.1295  0.2999 -0.1196
  774TIP3    H126517   1.227   5.594  14.264  0.4249  0.7634 -0.2892
  774TIP3    H226518   1.288   5.457  14.285 -0.9459  0.0832 -0.6346
  775TIP3   OH226519   4.340   4.804  15.958 -0.2173 -0.7438  0.1155
  775TIP3    H126520   4.312   4.868  16.024  1.5484 -0.9585  1.1623
  775TIP3    H226521   4.308   4.720  15.990  0.4215 -0.8129  0.6042
  776TIP3   OH226522   5.610   5.510  14.743  0.3813  0.1193 -0.1900
  776TIP3    H126523   5.548   5.529  14.672  0.1758  0.3402  0.0488
  776TIP3    H226524   5.687   5.474  14.698  0.6625  1.2142 -0.6372
  777TIP3   OH226525   5.401   0.382  16.521  0.5519  0.0508  0.0592
  777TIP3    H126526   5.397   0.407  16.613 -1.9518  0.5148 -0.1208
  777TIP3    H226527   5.493   0.393  16.498  1.6307 -1.6762  2.9045
  778TIP3   OH226528   4.928   1.525  16.557  0.5803 -0.3768  0.1899
  778TIP3    H126529   4.893   1.478  16.633 -0.5735 -0.6332 -0.4696
  778TIP3    H226530   4.851   1.560  16.513  1.3008  0.6179 -0.3337
  779TIP3   OH226531   4.564   6.461  16.594  0.1552  0.4054  0.3694
  779TIP3    H126532   4.544   6.553  16.582  2.0046  0.8455  0.3293
  779TIP3    H226533   4.600   6.455  16.682  1.2014 -0.0370 -0.0645
  780TIP3   OH226534   0.290   1.773  14.492  0.1187  0.2453 -0.4162
  780TIP3    H126535   0.221   1.831  14.524  0.7482  1.0515 -0.5026
  780TIP3    H226536   0.283   1.777  14.397 -0.2102 -0.2965 -0.4256
  781TIP3   OH226537   2.902   0.604  15.699 -0.2122  0.0725  0.2984
  781TIP3    H126538   2.848   0.625  15.776 -1.5180  0.0546 -0.5922
  781TIP3    H226539   2.885   0.675  15.638 -2.0903 -1.7012 -1.4239
  782TIP3   OH226540   1.311   6.512  15.975  0.3786 -0.6658 -0.3132
  782TIP3    H126541   1.232   6.537  16.022 -0.0859  0.8571 -1.8244
  782TIP3    H226542   1.382   6.528  16.038 -0.2783  0.5330  0.1539
  783TIP3   OH226543   3.581   3.876  16.565  0.6227 -0.0758 -0.2251
  783TIP3    H126544   3.568   3.827  16.647  1.5548  0.2310  0.1278
  783TIP3    H226545   3.495   3.877  16.523 -0.2089  0.8548  1.3724
  784TIP3   OH226546   2.803   2.539  17.537  0.1762  0.1804 -0.3495
  784TIP3    H126547   2.730   2.479  17.551 -0.5240  0.9442 -0.6202
  784TIP3    H226548   2.863   2.522  17.609 -0.2179 -0.5307 -0.1842
  785TIP3   OH226549   4.915   2.204  17.383 -0.3508  0.3520 -0.0621
  785TIP3    H126550   4.987   2.142  17.371  0.7490  1.8197 -1.5879
  785TIP3    H226551   4.838   2.149  17.398  0.7414 -1.3394 -0.3442
  786TIP3   OH226552   0.549   2.588  17.086  0.0919  0.0441 -0.0060
  786TIP3    H126553   0.546   2.574  17.180  0.1375  0.1685  0.0157
  786TIP3    H226554   0.559   2.683  17.076 -0.2136  0.0619 -0.1408
  787TIP3   OH226555   4.688   5.196  17.843  0.2108 -0.0311 -0.2789
  787TIP3    H126556   4.634   5.274  17.833  0.0782 -0.0967 -0.0908
  787TIP3    H226557   4.776   5.225  17.819  0.2739  0.3366  0.3637
  788TIP3   OH226558   5.795   5.340  14.636 -0.1010  0.5728  0.2859
  788TIP3    H126559   5.789   5.255  14.591  0.1963  1.0654 -0.6928
  788TIP3    H226560   5.870   5.384  14.595  1.5617  0.2103  2.6766
  789TIP3   OH226561   4.373   5.584  17.321  0.3979 -0.1982  0.1125
  789TIP3    H126562   4.345   5.675  17.321  0.5617 -0.1419 -0.5937
  789TIP3    H226563   4.349   5.551  17.407  1.5200  0.8725  0.8599
  790TIP3   OH226564   2.802   4.930  17.056 -0.0065 -0.4645 -0.0013
  790TIP3    H126565   2.871   4.915  16.992  0.1280 -2.4971  0.5347
  790TIP3    H226566   2.846   4.928  17.141 -0.5765 -0.9138  0.2987
  791TIP3   OH226567   5.599   2.383  16.330 -0.0199 -0.1793 -0.8195
  791TIP3    H126568   5.579   2.455  16.271 -1.9456 -1.0122 -1.2597
  791TIP3    H226569   5.514   2.357  16.366  0.7570 -1.5761  0.1041
  792TIP3   OH226570   0.669   4.259  17.341 -0.6850 -0.2679 -0.3274
  792TIP3    H126571   0.716   4.182  17.373 -3.3629 -1.8320  0.0730
  792TIP3    H226572   0.623   4.293  17.418 -0.4036  1.1031 -0.7393
  793TIP3   OH226573   6.682   6.615  16.193 -0.2851  0.1564  0.0040
  793TIP3    H126574   6.638   6.687  16.240  1.7666  1.1525  0.5293
  793TIP3    H226575   6.749   6.659  16.141  2.0874 -1.4342  1.5463
  794TIP3   OH226576   3.294   5.139  18.063 -0.4487 -0.5722  0.6953
  794TIP3    H126577   3.344   5.216  18.034 -0.4055 -1.3195 -1.3129
  794TIP3    H226578   3.203   5.161  18.045 -0.6717 -0.1782  2.1311
  795TIP3   OH226579   1.207   1.001  17.536 -0.1918 -0.3030 -0.4337
  795TIP3    H126580   1.203   0.967  17.625 -3.5949  1.7732  0.4168
  795TIP3    H226581   1.238   1.091  17.547  1.0017 -0.5441 -1.6088
  796TIP3   OH226582   0.560   4.471  16.527  0.6585 -0.1200  0.2369
  796TIP3    H126583   0.604   4.401  16.479 -0.3885 -1.7686  1.5543
  796TIP3    H226584   0.581   4.454  16.618  0.6551  1.5241  0.5651
  797TIP3   OH226585   4.466   1.062  15.553 -0.1112  0.4217 -0.3961
  797TIP3    H126586   4.515   0.987  15.519  2.0210  0.1230  2.9313
  797TIP3    H226587   4.505   1.138  15.509 -0.5948 -0.1900 -1.9493
  798TIP3   OH226588   5.808   0.877  15.741  0.0803  0.1264 -0.8208
  798TIP3    H126589   5.800   0.889  15.835 -1.1607  2.4598 -1.1718
  798TIP3    H226590   5.784   0.785  15.727  0.0873 -0.2097  1.0871
  799TIP3   OH226591   6.092   6.717  15.008  0.0764  0.1167 -0.5871
  799TIP3    H126592   6.171   6.713  14.954  1.4040  2.2386  1.0560
  799TIP3    H226593   6.106   6.650  15.075  1.0272  1.1992  0.3281
  800TIP3   OH226594   2.291   2.230  15.197  0.4002 -0.1984  0.1078
  800TIP3    H126595   2.202   2.218  15.165  0.2028  0.4608  0.3835
  800TIP3    H226596   2.306   2.325  15.190  1.3890 -0.4037 -0.7420
  801TIP3   OH226597   4.095   0.138  14.568  0.0891  0.1276  0.1105
  801TIP3    H126598   4.087   0.159  14.661 -0.3582  0.5290 -0.0171
  801TIP3    H226599   4.089   0.043  14.564  0.5881  0.0764  0.5410
  802TIP3   OH226600   6.587   0.479  17.154 -0.0795 -0.5240  0.7329
  802TIP3    H126601   6.575   0.407  17.091  0.0606 -0.9631  1.2011
  802TIP3    H226602   6.665   0.525  17.123 -1.7533  1.1846 -1.2313
  803TIP3   OH226603   1.591   6.444  17.374  0.4773  0.0663  0.2006
  803TIP3    H126604   1.555   6.523  17.335 -0.5266  1.0603  2.8924
  803TIP3    H226605   1.664   6.474  17.427  1.7436 -1.2052 -0.7462
  804TIP3   OH226606   1.867   1.084  15.946 -0.8930 -0.4609 -0.1950
  804TIP3    H126607   1.903   1.161  15.903 -1.6986 -0.1454 -0.3273
  804TIP3    H226608   1.792   1.117  15.995 -1.3041 -1.1684 -0.3263
  805TIP3   OH226609   2.710   3.630  16.761  0.0354  0.0100  0.0458
  805TIP3    H126610   2.662   3.573  16.701 -0.5529 -1.2370  1.6376
  805TIP3    H226611   2.644   3.691  16.793  0.6150  1.5103 -1.4760
  806TIP3   OH226612   3.624   2.592  14.824  0.5107 -0.4134 -0.5319
  806TIP3    H126613   3.577   2.676  14.818  0.5537 -0.4837 -3.8068
  806TIP3    H226614   3.576   2.543  14.890 -1.0513  1.3063 -0.2923
  807TIP3   OH226615   1.086   6.474  15.550 -0.5151 -0.0779  0.4901
  807TIP3    H126616   1.054   6.390  15.516  0.0524 -0.1904  0.2161
  807TIP3    H226617   1.076   6.467  15.645 -1.8216  0.1175  0.3773
  808TIP3   OH226618   1.579   3.798  17.729  0.5893 -1.4003 -0.3470
  808TIP3    H126619   1.624   3.791  17.644  0.6223  1.2270 -0.6239
  808TIP3    H226620   1.525   3.876  17.721  1.0101 -0.7553  2.2443
  809TIP3   OH226621   1.931   6.653  14.833 -0.3231 -0.5348  0.8444
  809TIP3    H126622   1.958   6.576  14.883  0.6872 -0.1274  0.9475
  809TIP3    H226623   2.013   6.695  14.807 -0.7948 -0.9677 -1.5609
  810TIP3   OH226624   0.661   5.228  16.009 -1.0719  1.3873  0.6471
  810TIP3    H126625   0.622   5.215  16.096 -1.7144  1.7505  0.4208
  810TIP3    H226626   0.684   5.140  15.979  1.4020  1.3947  2.1730
  811TIP3   OH226627   6.358   3.584  16.825  0.1880 -0.5513 -0.2910
  811TIP3    H126628   6.360   3.675  16.797 -0.0779 -0.3605  0.2965
  811TIP3    H226629   6.437   3.573  16.877 -0.8060 -0.0666  1.3928
  812TIP3   OH226630   4.323   1.545  17.195 -0.6114 -0.2157 -0.1343
  812TIP3    H126631   4.300   1.621  17.248 -2.2447  0.3135 -1.4856
  812TIP3    H226632   4.305   1.469  17.251 -2.0781  0.3234  0.1680
  813TIP3   OH226633   1.158   0.609  15.887 -0.1356 -0.0508  0.1342
  813TIP3    H126634   1.122   0.697  15.896 -0.3482 -0.2077  0.9076
  813TIP3    H226635   1.082   0.551  15.899 -0.2121 -0.3356 -1.4477
  814TIP3   OH226636   2.156   3.262  17.290 -0.6390 -0.0931  0.3640
  814TIP3    H126637   2.060   3.268  17.294 -0.6061  1.1467 -0.2692
  814TIP3    H226638   2.182   3.335  17.233  0.7012 -0.2350  0.7718
  815TIP3   OH226639   1.685   0.895  15.530 -0.4283 -0.3620  0.4423
  815TIP3    H126640   1.662   0.803  15.521 -0.3829 -0.2307 -1.4681
  815TIP3    H226641   1.733   0.901  15.613 -0.8895 -1.9396  0.8471
  816TIP3   OH226642   1.750   5.235  16.637  0.6615  0.0985  0.1832
  816TIP3    H126643   1.714   5.211  16.722  2.2876 -0.7949  0.6769
  816TIP3    H226644   1.696   5.187  16.574  0.1871 -0.1862  0.7956
  817TIP3   OH226645   5.181   0.135  14.789  0.4777 -0.0196 -0.3883
  817TIP3    H126646   5.197   0.188  14.711  2.6810  2.9073  1.8327
  817TIP3    H226647   5.115   0.184  14.838  0.4920 -0.8265  0.4758
  818TIP3   OH226648   2.182   6.008  16.511  0.7463  0.0448  0.1305
  818TIP3    H126649   2.093   5.973  16.501  0.5347  0.1674  1.3691
  818TIP3    H226650   2.178   6.059  16.592  1.4895  1.5615 -0.7514
  819TIP3   OH226651   4.039   6.077  15.359  0.2902  0.1071  0.4340
  819TIP3    H126652   4.035   6.019  15.435 -1.5734 -0.8623 -0.3631
  819TIP3    H226653   4.117   6.049  15.311 -0.0130 -1.0432  0.6030
  820TIP3   OH226654   5.515   3.839  17.336 -0.5713  0.3943 -0.0828
  820TIP3    H126655   5.479   3.772  17.394  4.0568 -1.0098  1.6727
  820TIP3    H226656   5.481   3.922  17.370 -0.8624 -0.6474  2.3545
  821TIP3   OH226657   4.977   0.622  16.642 -0.2054  0.1046  0.5013
  821TIP3    H126658   5.054   0.629  16.698 -0.8089  2.7945  1.1364
  821TIP3    H226659   5.003   0.662  16.559 -1.2547  2.4725  1.2218
  822TIP3   OH226660   6.434   4.207  15.099 -0.5563  0.0694 -0.3358
  822TIP3    H126661   6.433   4.136  15.034 -0.8861 -1.4574  1.2440
  822TIP3    H226662   6.512   4.258  15.078  1.5614 -2.6353  0.3111
  823TIP3   OH226663   3.089   3.315  17.922  0.0887  1.1031 -0.0944
  823TIP3    H126664   3.006   3.319  17.873 -0.6719  1.4820  1.1792
  823TIP3    H226665   3.142   3.385  17.886  0.5848 -0.2472 -2.1581
  824TIP3   OH226666   1.429   5.684  15.892  0.2549  0.3104  0.2288
  824TIP3    H126667   1.451   5.594  15.869 -2.2389 -0.5371  0.8889
  824TIP3    H226668   1.380   5.677  15.974 -0.9832  2.1435 -0.2934
  825TIP3   OH226669   5.530   0.190  14.624  0.2895 -0.2175 -0.0906
  825TIP3    H126670   5.497   0.241  14.549  0.8189  1.4723  0.7694
  825TIP3    H226671   5.480   0.224  14.699 -0.5550 -2.1955  0.3058
  826TIP3   OH226672   2.356   4.444  17.758 -0.1214  0.0328  0.6698
  826TIP3    H126673   2.438   4.480  17.793  0.7123 -2.0877  1.0661
  826TIP3    H226674   2.320   4.392  17.830 -0.3843 -1.2646 -0.3616
  827TIP3   OH226675   1.119   3.724  16.117  0.9322  0.2592 -0.1836
  827TIP3    H126676   1.178   3.679  16.178  0.4980  0.8590  0.7007
  827TIP3    H226677   1.155   3.704  16.030  1.6117 -0.5465  0.2640
  828TIP3   OH226678   6.537   1.470  17.124 -0.3443  0.0313  0.0056
  828TIP3    H126679   6.609   1.454  17.063 -0.1474 -0.2615  0.3093
  828TIP3    H226680   6.515   1.562  17.113  0.0799  0.1225 -0.0860
  829TIP3   OH226681   0.166   4.976  17.435 -0.3060 -0.3004  0.4666
  829TIP3    H126682   0.098   4.921  17.473  0.4131 -0.3454  1.7473
  829TIP3    H226683   0.234   4.980  17.502  1.1535 -0.6100 -0.9323
  830TIP3   OH226684   4.884   0.508  14.259  1.3326  0.2204  0.6903
  830TIP3    H126685   4.869   0.600  14.280 -0.8626 -0.3042  1.7468
  830TIP3    H226686   4.862   0.501  14.166  0.2921  0.5687  0.8948
  831TIP3   OH226687   6.421   3.204  16.223 -0.1074  0.4956  0.0415
  831TIP3    H126688   6.345   3.147  16.232 -0.4784  0.4822 -2.4018
  831TIP3    H226689   6.388   3.291  16.243 -0.2611  0.2420  0.9232
  832TIP3   OH226690   4.190   4.219  16.375 -0.1611 -0.2398  0.5904
  832TIP3    H126691   4.172   4.202  16.283 -2.9077  0.0481  0.9813
  832TIP3    H226692   4.193   4.314  16.382  0.5800 -0.2717  0.7160
  833TIP3   OH226693   1.983   6.206  14.760  0.3002 -0.6805  0.2495
  833TIP3    H126694   2.013   6.277  14.816  1.1577 -0.6733 -0.2000
  833TIP3    H226695   2.063   6.172  14.720 -0.2425 -1.0173 -0.5752
  834TIP3   OH226696   2.577   5.348  16.550  0.1138  0.0405 -0.1550
  834TIP3    H126697   2.637   5.319  16.481 -0.2752  0.4760 -0.6788
  834TIP3    H226698   2.525   5.416  16.509 -0.4017  0.0159  0.4552
  835TIP3   OH226699   3.506   5.042  17.090  0.3935  0.0675  0.2063
  835TIP3    H126700   3.512   4.946  17.087  1.0865  0.1066  0.1954
  835TIP3    H226701   3.512   5.064  17.183  0.5236  0.1203  0.1852
  836TIP3   OH226702   2.560   0.660  17.150  0.2495  0.0474 -0.1394
  836TIP3    H126703   2.564   0.750  17.183 -1.4067 -0.3572  1.2736
  836TIP3    H226704   2.487   0.661  17.088 -0.3813 -0.5342  0.5891
  837TIP3   OH226705   3.607   1.166  16.471  0.1693 -0.1688  0.2569
  837TIP3    H126706   3.685   1.113  16.456 -0.2946 -0.7908  0.0173
  837TIP3    H226707   3.564   1.126  16.546 -0.3036 -0.2785 -0.0666
  838TIP3   OH226708   3.103   0.990  14.706  0.4084  0.1726 -0.3472
  838TIP3    H126709   3.162   0.951  14.641  2.0728 -0.7273  1.5813
  838TIP3    H226710   3.083   0.917  14.765 -2.2922  0.5991 -0.6360
  839TIP3   OH226711   4.202   5.809  14.920 -0.5670  0.3072 -0.2146
  839TIP3    H126712   4.235   5.890  14.882  1.0505 -0.4257 -0.4662
  839TIP3    H226713   4.274   5.746  14.909 -1.0503 -0.6573  1.6496
  840TIP3   OH226714   0.307   0.028  16.231  0.5171  0.7097  0.0094
  840TIP3    H126715   0.255   0.028  16.312 -0.9666 -2.0324 -0.8231
  840TIP3    H226716   0.387   0.075  16.254 -0.6837  1.7384  2.4762
  841TIP3   OH226717   4.655   6.544  14.995  0.1496  0.1057  0.2471
  841TIP3    H126718   4.736   6.527  15.042  0.1242  0.9753  0.6282
  841TIP3    H226719   4.629   6.459  14.959  0.9059 -0.2924  0.6273
  842TIP3   OH226720   1.132   0.837  17.307 -0.1087 -0.0947  0.0256
  842TIP3    H126721   1.199   0.769  17.303  0.2657 -0.1471  3.7685
  842TIP3    H226722   1.159   0.893  17.380 -2.0874  2.2397 -0.9030
  843TIP3   OH226723   3.380   0.583  13.658  1.0572  0.2861 -0.8602
  843TIP3    H126724   3.461   0.625  13.629  1.7574 -0.0036  0.5693
  843TIP3    H226725   3.353   0.634  13.734  0.5652 -0.3585 -0.5994
  844TIP3   OH226726   0.597   3.304  16.512  0.3144 -0.5354  0.1618
  844TIP3    H126727   0.573   3.349  16.431 -0.3692 -0.0522  0.6166
  844TIP3    H226728   0.683   3.340  16.535  1.1031 -1.5799 -0.9741
  845TIP3   OH226729   4.079   3.076  18.005 -0.2648  0.1543 -0.4598
  845TIP3    H126730   4.127   2.994  18.020 -1.2089 -0.1974  0.8006
  845TIP3    H226731   3.987   3.050  18.003 -0.5517  1.1254 -0.4863
  846TIP3   OH226732   3.706   5.041  17.727  0.4300  1.1125  0.0323
  846TIP3    H126733   3.721   4.947  17.718 -0.6424  0.7659  1.4258
  846TIP3    H226734   3.793   5.080  17.718  1.4984 -0.3244  2.7218
  847TIP3   OH226735   2.408   4.182  15.427 -0.2463 -0.0957  0.1573
  847TIP3    H126736   2.346   4.244  15.466 -0.3871 -1.0407  1.4975
  847TIP3    H226737   2.426   4.218  15.340  0.0359  2.0598  1.0580
  848TIP3   OH226738   4.110   0.762  16.181  0.3406 -0.2358  0.3934
  848TIP3    H126739   4.115   0.851  16.148 -1.1371  0.2381  1.3623
  848TIP3    H226740   4.097   0.708  16.103 -0.5451  0.5921 -0.0412
  849TIP3   OH226741   4.173   3.536  17.630 -0.4894  0.0024  0.2802
  849TIP3    H126742   4.093   3.492  17.658 -2.3367  2.4871 -0.7927
  849TIP3    H226743   4.150   3.628  17.625  1.8131  0.5869 -2.1336
  850TIP3   OH226744   0.837   4.573  16.963  0.2512 -0.5898 -0.1937
  850TIP3    H126745   0.826   4.589  17.057  2.4720 -0.3710  0.0768
  850TIP3    H226746   0.850   4.659  16.925  0.7975 -0.7831 -0.4662
  851TIP3   OH226747   4.563   5.477  17.774  0.9905 -0.5356 -0.0026
  851TIP3    H126748   4.595   5.502  17.687  1.0682 -0.0458  0.1665
  851TIP3    H226749   4.596   5.544  17.833 -0.3805  0.0396  0.1686
  852TIP3   OH226750   4.449   2.676  18.040  0.0840 -0.0687  0.0989
  852TIP3    H126751   4.526   2.705  17.991  0.8164 -1.6252  0.2775
  852TIP3    H226752   4.484   2.623  18.112 -1.1136 -0.1431  0.6548
  853TIP3   OH226753   2.322   5.318  14.047  0.1084  0.7384 -1.2151
  853TIP3    H126754   2.252   5.286  13.990 -0.1934  1.2456 -1.1352
  853TIP3    H226755   2.307   5.412  14.052  0.8495  0.8625 -1.2613
  854TIP3   OH226756   2.650   3.778  17.795  0.2132  0.4467  0.3048
  854TIP3    H126757   2.576   3.729  17.830 -2.8413  3.1718 -1.7656
  854TIP3    H226758   2.710   3.710  17.762 -0.9708 -1.8931  2.5763
  855TIP3   OH226759   0.494   1.522  16.069 -0.4258 -0.0131  0.3359
  855TIP3    H126760   0.432   1.594  16.059  0.1406  0.7525  1.9304
  855TIP3    H226761   0.448   1.445  16.034 -1.0872  1.0774 -1.2916
  856TIP3   OH226762   5.834   2.235  18.011  0.2392 -0.1489  0.1769
  856TIP3    H126763   5.854   2.285  18.090 -0.6312 -0.5362  0.6647
  856TIP3    H226764   5.739   2.241  18.003  0.1364 -1.5332  0.1251
  857TIP3   OH226765   2.229   4.119  16.664  0.0931 -0.2622 -0.0409
  857TIP3    H126766   2.137   4.147  16.660 -0.3082 -1.3229  0.8365
  857TIP3    H226767   2.251   4.096  16.574 -0.2621  0.7199 -0.3882
  858TIP3   OH226768   1.937   0.806  17.707  0.0550  0.2511 -0.1641
  858TIP3    H126769   1.990   0.726  17.716 -2.3286 -1.4947 -0.5948
  858TIP3    H226770   1.925   0.816  17.613  1.0671  1.6884 -0.1665
  859TIP3   OH226771   3.837   2.374  17.692 -0.5523 -0.5261 -0.3359
  859TIP3    H126772   3.876   2.331  17.616 -1.9477 -0.0231 -1.3672
  859TIP3    H226773   3.753   2.409  17.661 -0.6514  0.6833  1.1398
  860TIP3   OH226774   3.936   1.932  15.945 -0.1888  0.0507  0.4943
  860TIP3    H126775   3.866   1.868  15.959  0.3934 -1.1294 -1.4632
  860TIP3    H226776   3.897   1.999  15.889  0.5062 -1.3186 -1.7658
  861TIP3   OH226777   6.432   1.401  14.713 -0.3464  0.4113 -0.1284
  861TIP3    H126778   6.447   1.475  14.654  0.3283  0.2316 -0.1920
  861TIP3    H226779   6.370   1.434  14.778 -0.7075  0.7688 -0.6422
  862TIP3   OH226780   5.522   3.272  17.347  0.2993  0.1749  0.0654
  862TIP3    H126781   5.480   3.296  17.429  0.5513  1.2273 -0.0945
  862TIP3    H226782   5.451   3.239  17.292  0.3101 -1.6123  1.0799
  863TIP3   OH226783   3.877   4.651  16.829  0.2498 -0.3528 -0.7199
  863TIP3    H126784   3.925   4.647  16.746 -1.5292  0.2151 -1.8286
  863TIP3    H226785   3.929   4.597  16.889  0.2930 -2.9068 -2.8538
  864TIP3   OH226786   1.715   4.751  14.492 -0.4384 -0.4234  0.0905
  864TIP3    H126787   1.629   4.762  14.451 -0.9735 -1.1157  1.0031
  864TIP3    H226788   1.765   4.828  14.463 -0.7510 -0.9202 -1.9220
  865TIP3   OH226789   4.319   5.295  14.662  0.1362  0.3257  0.0614
  865TIP3    H126790   4.379   5.249  14.720  1.4313 -0.6482 -1.9345
  865TIP3    H226791   4.352   5.385  14.659  0.0354  0.3905  0.8300
  866TIP3   OH226792   2.259   2.216  17.193 -0.3199  0.1990  0.4423
  866TIP3    H126793   2.207   2.296  17.183  0.6555  1.3059  3.2130
  866TIP3    H226794   2.350   2.247  17.196  0.0623 -0.9405  1.7041
  867TIP3   OH226795   2.182   6.590  14.460 -0.8042  0.3559  0.1949
  867TIP3    H126796   2.146   6.535  14.391 -1.0705 -0.0907  0.6822
  867TIP3    H226797   2.233   6.657  14.414  1.8507 -1.8428 -0.3783
  868TIP3   OH226798   4.900   1.112  15.549 -0.0277  0.2278  0.2809
  868TIP3    H126799   4.859   1.195  15.572 -0.0735  0.1350  0.5323
  868TIP3    H226800   4.933   1.077  15.632  1.9344  1.0329 -0.0988
  869TIP3   OH226801   2.882   6.411  15.416 -0.5933  0.5439  0.4735
  869TIP3    H126802   2.790   6.385  15.423 -0.3132 -0.5128  0.3359
  869TIP3    H226803   2.924   6.368  15.490  0.8823 -3.9718 -2.5819
  870TIP3   OH226804   4.729   0.965  14.409  0.2005  0.2777  0.1351
  870TIP3    H126805   4.775   1.013  14.478  2.4697 -0.2305 -0.9223
  870TIP3    H226806   4.640   1.001  14.410  0.2057  0.4661  3.1027
  871TIP3   OH226807   5.879   6.325  16.586 -0.3173 -0.1881 -0.3855
  871TIP3    H126808   5.964   6.368  16.570  0.6524 -2.2471 -1.0900
  871TIP3    H226809   5.833   6.332  16.503 -0.2065 -0.3894 -0.4656
  872TIP3   OH226810   3.130   0.999  15.434 -0.0288  0.0021 -0.1106
  872TIP3    H126811   3.096   0.911  15.451  0.0607 -0.3393 -1.6033
  872TIP3    H226812   3.055   1.048  15.402 -0.4732  0.9768  2.1614
  873TIP3   OH226813   0.938   6.340  15.738 -0.0422  0.1794  0.2555
  873TIP3    H126814   0.870   6.407  15.741 -1.9265 -1.4959 -1.8267
  873TIP3    H226815   0.929   6.292  15.820 -1.2414  0.1327  0.1025
  874TIP3   OH226816   5.217   2.903  15.595 -0.2957  0.0522  0.4287
  874TIP3    H126817   5.216   2.884  15.501 -0.8003 -0.0006  0.4390
  874TIP3    H226818   5.146   2.849  15.630  0.3904 -0.5130  0.9620
  875TIP3   OH226819   1.686   3.895  16.447  0.3436 -0.4253 -0.4448
  875TIP3    H126820   1.679   3.990  16.453  0.2078 -0.4284 -0.5638
  875TIP3    H226821   1.597   3.865  16.426 -0.2261 -0.7711  2.0906
  876TIP3   OH226822   4.037   5.428  16.737 -0.3083 -0.2904  0.3822
  876TIP3    H126823   4.038   5.359  16.803 -0.4535 -1.3364 -0.6588
  876TIP3    H226824   4.075   5.386  16.659  0.5284  1.1158  0.0073
  877TIP3   OH226825   5.149   2.851  17.514  0.0561  0.6084 -0.7080
  877TIP3    H126826   5.212   2.920  17.493 -0.7953  1.2424 -1.2599
  877TIP3    H226827   5.097   2.840  17.434  0.0426 -0.5428 -0.5644
  878TIP3   OH226828   4.500   1.705  16.714  0.2155 -0.5976  0.2078
  878TIP3    H126829   4.488   1.648  16.789 -0.3304 -0.0971  0.5097
  878TIP3    H226830   4.419   1.755  16.708  0.9725  0.7180  0.4482
  879TIP3   OH226831   4.922   6.425  15.524  0.1502  0.2782  0.4785
  879TIP3    H126832   4.968   6.506  15.500 -0.5031  0.0070 -2.0014
  879TIP3    H226833   4.974   6.356  15.483 -1.9140 -0.1020 -1.7087
  880TIP3   OH226834   1.938   2.490  15.862  0.3792  0.0957  0.0999
  880TIP3    H126835   2.033   2.500  15.857  0.5643 -0.1993  1.9924
  880TIP3    H226836   1.903   2.565  15.814  1.5627  0.1338 -0.7305
  881TIP3   OH226837   1.652   6.429  15.817 -0.0387 -0.0258  0.6788
  881TIP3    H126838   1.665   6.377  15.738 -0.7141  1.5487 -0.5377
  881TIP3    H226839   1.583   6.383  15.865 -0.7317 -0.1983 -0.4352
  882TIP3   OH226840   3.991   3.336  17.693 -0.0118  0.6716  0.3019
  882TIP3    H126841   3.939   3.257  17.679  0.2751  0.3247  1.1588
  882TIP3    H226842   3.930   3.399  17.732  0.4313 -0.0866  2.3187
  883TIP3   OH226843   0.480   5.808  16.561  0.2509 -0.3405 -0.2618
  883TIP3    H126844   0.538   5.882  16.544 -0.6120  0.3371 -0.3635
  883TIP3    H226845   0.475   5.803  16.656 -1.0559  0.8728 -0.2326
  884TIP3   OH226846   3.645   6.681  17.042 -0.2398 -0.2947 -0.1420
  884TIP3    H126847   3.603   6.597  17.023 -0.1020 -0.4741  0.3130
  884TIP3    H226848   3.660   6.721  16.957 -1.0869 -0.3475 -0.3220
  885TIP3   OH226849   0.529   1.525  17.568 -0.0892 -0.2492 -0.1668
  885TIP3    H126850   0.601   1.465  17.550  0.7207  0.7838 -0.4635
  885TIP3    H226851   0.556   1.608  17.529 -0.6521  0.6345  1.2268
  886TIP3   OH226852   3.124   1.047  16.796  0.0607  0.2591 -0.4016
  886TIP3    H126853   3.153   1.026  16.707 -0.1079 -1.3547 -0.1000
  886TIP3    H226854   3.029   1.054  16.789 -0.1407 -1.6515 -0.0472
  887TIP3   OH226855   5.862   2.026  17.357  0.1007 -0.6705  0.5203
  887TIP3    H126856   5.865   2.092  17.427  1.2854  0.2350 -0.3356
  887TIP3    H226857   5.880   1.943  17.401 -0.2966 -0.2693  1.4537
  888TIP3   OH226858   4.447   0.366  16.235 -0.1764  0.3580  0.0149
  888TIP3    H126859   4.442   0.386  16.329 -2.1716  1.3073 -0.2521
  888TIP3    H226860   4.445   0.452  16.192 -0.8009 -0.1198 -0.9354
  889TIP3   OH226861   5.073   6.650  15.449 -0.4355 -0.1891  0.4799
  889TIP3    H126862   5.048   6.735  15.412  2.4172  0.5359 -0.0256
  889TIP3    H226863   5.129   6.671  15.523 -1.4308 -1.6769  1.7085
  890TIP3   OH226864   5.164   6.196  16.642 -0.6185  0.0201 -0.0548
  890TIP3    H126865   5.176   6.108  16.607 -0.6281 -0.4586  1.0973
  890TIP3    H226866   5.070   6.212  16.636 -0.8149 -0.6144  0.9768
  891TIP3   OH226867   0.889   3.635  17.144 -0.6551 -0.3831  0.0439
  891TIP3    H126868   0.811   3.657  17.094 -2.0536  0.3821  2.4121
  891TIP3    H226869   0.962   3.657  17.086 -2.1503  1.3366 -1.2834
  892TIP3   OH226870   2.329   2.860  16.079 -0.2674  0.3490  0.1033
  892TIP3    H126871   2.394   2.929  16.063  0.3872 -0.4517 -0.8609
  892TIP3    H226872   2.283   2.851  15.996 -1.1166  0.3955  0.5658
  893TIP3   OH226873   0.220   0.242  14.137 -0.0263 -0.3516 -0.0038
  893TIP3    H126874   0.297   0.210  14.184 -0.3122  0.1154  0.8025
  893TIP3    H226875   0.256   0.298  14.068  0.3831 -0.7644 -0.1341
  894TIP3   OH226876   2.965   1.766  16.417  0.0202 -0.2126  0.3503
  894TIP3    H126877   3.004   1.720  16.491  1.7011  0.3723 -0.1338
  894TIP3    H226878   2.897   1.706  16.385  0.5990 -1.3279  1.1560
  895TIP3   OH226879   6.656   3.682  16.739  0.7795  0.2435  0.2681
  895TIP3    H126880   6.688   3.759  16.785 -0.8093  0.6279  0.7714
  895TIP3    H226881   6.631   3.621  16.809  1.0841 -0.3474 -0.1234
  896TIP3   OH226882   1.708   0.219  15.315  0.0783  0.0026  0.0976
  896TIP3    H126883   1.642   0.283  15.289 -0.0635 -1.0855 -2.5408
  896TIP3    H226884   1.690   0.202  15.407 -2.2824  0.9552 -0.1205
  897TIP3   OH226885   1.873   4.044  15.142 -0.1374  0.2797 -0.2853
  897TIP3    H126886   1.871   3.949  15.155 -0.0533  0.4395  1.0468
  897TIP3    H226887   1.800   4.061  15.083 -0.0797 -0.6327 -0.6369
  898TIP3   OH226888   3.559   2.758  16.790 -0.4072 -0.4655  0.6954
  898TIP3    H126889   3.562   2.815  16.713 -0.5493 -0.8600  0.3916
  898TIP3    H226890   3.476   2.711  16.782 -0.3111 -0.6857  0.9616
  899TIP3   OH226891   5.091   5.820  15.635 -0.1115 -0.1386  0.0783
  899TIP3    H126892   5.072   5.747  15.694  0.5704 -2.0186 -1.8759
  899TIP3    H226893   5.028   5.810  15.564  1.0030  0.2196 -0.9889
  900TIP3   OH226894   2.754   0.800  16.578 -0.1819 -0.1930 -0.2498
  900TIP3    H126895   2.669   0.798  16.534 -0.3589  0.3955  0.0625
  900TIP3    H226896   2.757   0.718  16.628  1.2492 -2.4434 -3.5975
  901TIP3   OH226897   4.181   1.626  16.138 -1.4245  0.7684  0.0219
  901TIP3    H126898   4.211   1.560  16.202 -2.1891  0.7771  0.3950
  901TIP3    H226899   4.239   1.614  16.063 -0.8244  0.4289  0.5297
  902TIP3   OH226900   5.549   2.682  17.330 -0.0016  0.1522  0.1559
  902TIP3    H126901   5.629   2.730  17.305  0.4407 -0.7280 -0.1501
  902TIP3    H226902   5.481   2.749  17.329  0.3193  0.5169 -1.7682
  903TIP3   OH226903   2.797   5.626  16.378 -0.4178  0.6932  0.2027
  903TIP3    H126904   2.707   5.657  16.371 -1.2158 -1.7096 -1.8260
  903TIP3    H226905   2.791   5.532  16.361  2.3122  0.1617  1.6812
  904TIP3   OH226906   4.933   6.014  16.896  0.3156 -0.2322 -0.8932
  904TIP3    H126907   4.873   6.028  16.969 -1.7733 -1.7528 -2.1905
  904TIP3    H226908   4.934   6.098  16.849 -2.3185 -0.6210 -1.8291
  905TIP3   OH226909   3.423   6.387  16.699 -0.5743 -0.2445 -0.3074
  905TIP3    H126910   3.368   6.440  16.641 -0.3892  0.0776 -0.1944
  905TIP3    H226911   3.488   6.449  16.732 -1.4337 -0.1104  1.2538
  906TIP3   OH226912   0.555   6.407  15.671 -0.0335 -0.0344 -0.4265
  906TIP3    H126913   0.467   6.435  15.698  0.0307  0.8301 -1.0769
  906TIP3    H226914   0.612   6.480  15.696  0.6054 -0.8398  0.5377
  907TIP3   OH226915   4.998   5.277  17.048 -0.0706  0.2675 -0.5408
  907TIP3    H126916   5.033   5.232  16.972  1.1560  1.4166 -0.6884
  907TIP3    H226917   5.067   5.271  17.114 -0.6433  0.3182  0.0833
  908TIP3   OH226918   6.720   0.173  15.820  0.4913  0.1962  0.3035
  908TIP3    H126919   6.772   0.144  15.745 -1.3221  1.4878 -1.5513
  908TIP3    H226920   6.646   0.113  15.823  0.8499 -0.2188  1.4789
  909TIP3   OH226921   2.774   5.749  16.011  0.4580  0.3680  0.5406
  909TIP3    H126922   2.846   5.749  16.073  0.9118  0.9457  0.0203
  909TIP3    H226923   2.810   5.708  15.932 -0.0803 -0.2584  0.6053
  910TIP3   OH226924   6.349   0.475  16.662  0.5032 -0.0107  0.3599
  910TIP3    H126925   6.421   0.537  16.671  0.0878  0.1710  3.1406
  910TIP3    H226926   6.317   0.461  16.751 -1.5479 -1.7191 -0.5449
  911TIP3   OH226927   6.526   0.314  16.065 -0.1169 -0.2489 -0.0148
  911TIP3    H126928   6.498   0.339  16.154 -0.8817  0.4962 -0.4516
  911TIP3    H226929   6.464   0.245  16.040 -0.2051 -0.1203 -0.1510
  912TIP3   OH226930   4.273   6.595  16.841  0.2573 -0.2037 -0.1756
  912TIP3    H126931   4.198   6.536  16.837 -0.0994  0.1458  1.0785
  912TIP3    H226932   4.271   6.631  16.929 -0.3885  2.7852 -1.2965
  913TIP3   OH226933   6.318   5.592  16.283  0.5969  0.1472  0.3132
  913TIP3    H126934   6.354   5.610  16.197 -1.6076 -0.1989 -0.7680
  913TIP3    H226935   6.351   5.663  16.338  0.0672  1.8769 -1.4506
  914TIP3   OH226936   2.435   4.572  16.790 -0.4432  0.0751 -0.2023
  914TIP3    H126937   2.367   4.633  16.760 -1.5918 -0.0408  1.9079
  914TIP3    H226938   2.439   4.504  16.723 -0.5445  1.4281 -1.6311
  915TIP3   OH226939   1.942   6.354  16.217  0.2247  0.9276 -0.2436
  915TIP3    H126940   2.001   6.345  16.142 -0.7434 -1.8042 -0.7820
  915TIP3    H226941   1.990   6.408  16.279  1.3870  2.6108 -2.4801
  916TIP3   OH226942   4.038   5.409  17.091  0.2359 -0.3030 -0.1062
  916TIP3    H126943   4.037   5.331  17.035 -0.1828 -0.7197  0.4617
  916TIP3    H226944   3.984   5.472  17.044  1.1509 -0.0963 -0.9130
  917TIP3   OH226945   4.985   6.514  17.734 -0.6931  0.0198 -0.2125
  917TIP3    H126946   5.077   6.533  17.752 -0.1893 -0.3325 -2.1905
  917TIP3    H226947   4.949   6.489  17.819  1.0923 -0.0725  0.5633
  918TIP3   OH226948   1.754   4.393  17.035 -0.1120 -0.4024  0.2741
  918TIP3    H126949   1.770   4.428  16.947 -0.3939 -1.4946 -0.2272
  918TIP3    H226950   1.784   4.462  17.094 -1.4907  1.0629 -0.6745
  919TIP3   OH226951   0.358   4.797  17.269  0.0646 -0.3892 -0.0687
  919TIP3    H126952   0.305   4.874  17.249  0.9151  0.1576 -0.2969
  919TIP3    H226953   0.299   4.739  17.316 -1.1107 -0.3597 -1.4166
  920TIP3   OH226954   4.238   6.081  17.826 -0.4371  0.3406 -0.5765
  920TIP3    H126955   4.257   5.990  17.850  1.4277  1.0148  0.7098
  920TIP3    H226956   4.161   6.105  17.879 -1.6077 -0.7592 -1.7042
  921TIP3   OH226957   4.383   0.273  15.472  0.2144  0.5322 -0.7828
  921TIP3    H126958   4.465   0.294  15.516 -0.4497 -0.2006  0.8858
  921TIP3    H226959   4.397   0.186  15.435  0.3610  0.6254 -0.9464
  922TIP3   OH226960   6.550   1.661  14.690  0.6209 -0.0832  0.4648
  922TIP3    H126961   6.614   1.729  14.712  0.3842 -0.0461  1.0599
  922TIP3    H226962   6.567   1.641  14.598  0.6688  0.8104  0.2707
  923TIP3   OH226963   3.806   0.405  16.128 -0.2091  0.5806  0.1605
  923TIP3    H126964   3.852   0.404  16.044 -0.6322 -1.3872 -0.0959
  923TIP3    H226965   3.797   0.498  16.149  3.3143  1.0887 -0.0420
  924TIP3   OH226966   1.038   4.189  16.029 -0.2768 -0.1881  0.3334
  924TIP3    H126967   1.111   4.242  15.998 -0.2115 -1.1963 -1.3658
  924TIP3    H226968   0.960   4.235  15.998 -0.2219 -1.0080 -1.0881
  925TIP3   OH226969   1.077   4.496  17.259 -0.4390  0.4411  0.0862
  925TIP3    H126970   1.060   4.464  17.348 -1.5686  0.4736 -0.1040
  925TIP3    H226971   1.172   4.506  17.255 -0.3453  0.1307  1.1859
  926TIP3   OH226972   5.746   0.506  17.484 -0.2420  0.1557  0.5926
  926TIP3    H126973   5.698   0.579  17.446 -0.5377  0.6444  1.8411
  926TIP3    H226974   5.759   0.532  17.576  0.1817 -1.0898  0.8998
  927TIP3   OH226975   2.526   2.191  15.453 -0.3261  0.5568 -0.0607
  927TIP3    H126976   2.513   2.273  15.499  0.5536  0.6442  0.0478
  927TIP3    H226977   2.544   2.216  15.362 -2.3815  0.3737 -0.5704
  928TIP3   OH226978   0.453   1.638  15.055  0.2312 -0.4609 -0.1364
  928TIP3    H126979   0.486   1.725  15.031 -0.6038  0.2907  1.2883
  928TIP3    H226980   0.402   1.611  14.978  0.3578  0.3942 -0.5419
  929TIP3   OH226981   2.564   3.340  17.642 -0.0078  0.3221  0.5683
  929TIP3    H126982   2.533   3.250  17.644 -0.7128  0.5537  2.2172
  929TIP3    H226983   2.558   3.367  17.551 -1.4476 -0.7405  0.3334
  930TIP3   OH226984   2.836   1.221  17.783  0.3041  0.2378 -0.5557
  930TIP3    H126985   2.917   1.171  17.780  0.3978  0.1599  1.6571
  930TIP3    H226986   2.864   1.313  17.783  0.4456  0.2076  0.6396
  931TIP3   OH226987   1.387   6.398  15.434 -0.1380  0.2503 -0.3986
  931TIP3    H126988   1.296   6.416  15.459 -0.0109  1.3048 -0.6693
  931TIP3    H226989   1.419   6.339  15.502 -0.2855  1.8175  1.0956
  932TIP3   OH226990   2.727   5.014  16.071  0.6134 -0.2096  0.3898
  932TIP3    H126991   2.684   5.095  16.099 -1.8476 -1.0569 -0.6498
  932TIP3    H226992   2.721   5.015  15.976  1.2050 -1.2686  0.3236
  933TIP3   OH226993   6.230   0.077  17.047 -0.5638  0.2194  0.2543
  933TIP3    H126994   6.231   0.039  16.959  0.8913  0.9697 -0.0758
  933TIP3    H226995   6.249   0.003  17.105  1.4064  0.2232 -0.3164
  934TIP3   OH226996   5.467   5.289  14.263 -0.1069 -0.2727 -0.0092
  934TIP3    H126997   5.543   5.345  14.277 -0.4812  0.4496 -0.7608
  934TIP3    H226998   5.501   5.199  14.270  1.3983 -0.0537 -2.8530
  935TIP3   OH226999   3.387   6.019  17.222 -0.4759 -0.1383 -0.2766
  935TIP3    H127000   3.402   6.042  17.131 -2.1768  0.6398 -0.3859
  935TIP3    H227001   3.376   5.924  17.222  2.7379 -0.6441 -0.3640
  936TIP3   OH227002   4.491   5.137  16.976  0.0913 -0.1770 -0.0420
  936TIP3    H127003   4.407   5.121  16.933  0.2302  1.4896 -1.0309
  936TIP3    H227004   4.469   5.187  17.054  0.2380  1.8989 -1.2564
  937TIP3   OH227005   3.950   2.766  16.111  0.7128  0.0246 -0.3961
  937TIP3    H127006   3.933   2.860  16.120 -0.4590 -0.3325  1.5183
  937TIP3    H227007   3.876   2.724  16.153  1.4577 -1.7852 -0.8057
  938TIP3   OH227008   1.420   6.206  17.013  0.0355  0.3194 -0.4592
  938TIP3    H127009   1.385   6.273  17.071  1.8847  0.4465  0.5945
  938TIP3    H227010   1.486   6.251  16.960  1.9793 -0.7767  0.9157
  939TIP3   OH227011   5.418   0.563  17.587  0.1316 -0.2421  0.0541
  939TIP3    H127012   5.462   0.568  17.672  0.2384 -0.4056  0.0077
  939TIP3    H227013   5.376   0.649  17.577  1.7488  0.5123 -0.6263
  940TIP3   OH227014   3.605   5.189  15.603 -0.1861 -0.0980  0.0617
  940TIP3    H127015   3.613   5.128  15.530 -0.6549  0.9563 -0.8937
  940TIP3    H227016   3.692   5.189  15.644  1.0410  1.4592 -2.2900
  941TIP3   OH227017   4.837   2.947  16.095  0.1576 -0.7404  0.6054
  941TIP3    H127018   4.845   2.870  16.039 -1.7275  0.8099 -1.9914
  941TIP3    H227019   4.862   2.915  16.182 -0.3961 -4.2296 -0.3428
  942TIP3   OH227020   1.188   6.024  17.618 -0.9075  0.1278 -0.1986
  942TIP3    H127021   1.111   6.076  17.599 -1.5528  0.0887  2.0549
  942TIP3    H227022   1.198   6.029  17.714  0.2565 -2.1151 -0.1373
  943TIP3   OH227023   1.485   6.611  14.784  0.0050  0.3965 -0.0254
  943TIP3    H127024   1.565   6.653  14.816 -0.6570  1.5071  0.2201
  943TIP3    H227025   1.444   6.577  14.863  1.2512 -2.0820 -0.3621
  944TIP3   OH227026   6.602   6.077  16.309  0.5818 -0.0610  0.1832
  944TIP3    H127027   6.682   6.037  16.342  0.8352  0.5980  0.3843
  944TIP3    H227028   6.626   6.168  16.290 -0.2421  0.2802  0.7246
  945TIP3   OH227029   2.066   0.030  16.098  0.1058  0.5648 -0.3146
  945TIP3    H127030   1.988  -0.013  16.134 -0.0592 -0.3211 -1.6502
  945TIP3    H227031   2.031   0.092  16.033  0.4382  1.4584  0.3412
  946TIP3   OH227032   5.218   4.225  15.902  0.2515  0.1215 -0.0217
  946TIP3    H127033   5.138   4.176  15.887  0.4068  0.5372 -2.5575
  946TIP3    H227034   5.269   4.215  15.822  1.4076  2.3084  0.3475
  947TIP3   OH227035   6.410   0.756  16.377  0.0281 -0.0966 -0.0719
  947TIP3    H127036   6.318   0.735  16.394  0.2099  0.0616  1.2003
  947TIP3    H227037   6.430   0.826  16.439  1.5582 -1.5239  1.1404
  948TIP3   OH227038   3.826   0.213  14.606  0.5649 -0.0919  0.1858
  948TIP3    H127039   3.827   0.181  14.696 -1.5569  0.8018  0.5905
  948TIP3    H227040   3.910   0.185  14.570  1.4721 -0.5030  2.4179
  949TIP3   OH227041   5.832   1.816  16.852 -0.2448 -0.2865 -0.7120
  949TIP3    H127042   5.818   1.835  16.945  1.8174 -0.6782 -0.2725
  949TIP3    H227043   5.745   1.797  16.819 -1.1507  0.6721  0.9406
  950TIP3   OH227044   3.457   2.000  14.841 -0.1700  0.1930  0.0015
  950TIP3    H127045   3.424   1.912  14.820  0.3738  0.0593 -0.3333
  950TIP3    H227046   3.538   1.984  14.890  1.1330  0.4637 -1.9572
  951TIP3   OH227047   4.894   4.911  17.351  0.0395 -0.1571  0.6501
  951TIP3    H127048   4.986   4.895  17.330  1.5528  5.0826  1.7303
  951TIP3    H227049   4.881   4.872  17.438  1.4968 -0.3025  0.8198
  952TIP3   OH227050   3.416   3.346  15.943 -0.5111  0.1424 -0.1970
  952TIP3    H127051   3.415   3.440  15.921 -0.3184 -0.3155 -2.4248
  952TIP3    H227052   3.328   3.330  15.977 -1.1476  0.8225 -1.4277
  953TIP3   OH227053   2.008   2.954  16.452 -0.4326 -0.3433 -0.3841
  953TIP3    H127054   1.949   2.960  16.377 -0.8705 -0.8246 -0.0836
  953TIP3    H227055   1.959   2.903  16.517 -0.8145  1.6117  0.9601
  954TIP3   OH227056   3.903   0.436  15.861  0.3660  0.0968  0.0364
  954TIP3    H127057   3.854   0.355  15.853  1.0508 -0.3825  0.5561
  954TIP3    H227058   3.866   0.494  15.794 -0.6261 -0.3841  0.1670
  955TIP3   OH227059   3.533   6.106  15.934  0.6345  0.2775 -0.1772
  955TIP3    H127060   3.438   6.110  15.947  0.5760  0.3750 -0.6085
  955TIP3    H227061   3.557   6.192  15.901  1.1382  0.8130  1.5125
  956TIP3   OH227062   0.916   4.081  16.967 -0.3371  0.1929  0.0171
  956TIP3    H127063   0.821   4.080  16.959 -0.3657  1.2656  0.0081
  956TIP3    H227064   0.934   4.163  17.013  0.5834 -0.0126  0.0307
  957TIP3   OH227065   4.971   3.541  15.994  0.5533  0.0297  0.3072
  957TIP3    H127066   5.010   3.473  15.938  0.1923 -0.5804  0.7890
  957TIP3    H227067   5.013   3.529  16.079 -2.6426 -2.5399  1.7162
  958TIP3   OH227068   3.752   5.963  17.257  0.0855 -0.7762 -0.1448
  958TIP3    H127069   3.734   5.877  17.221 -1.4247 -0.5616  0.0278
  958TIP3    H227070   3.793   6.011  17.185 -0.0452 -1.3029 -0.5792
  959TIP3   OH227071   6.670   0.971  17.737 -0.5685  0.5079  0.2052
  959TIP3    H127072   6.643   1.025  17.662 -2.0509  0.2490  0.5293
  959TIP3    H227073   6.615   1.001  17.809 -0.4046 -0.4670  0.7420
  960TIP3   OH227074   5.865   6.508  16.815  0.4346  0.4316 -0.2637
  960TIP3    H127075   5.877   6.590  16.769  0.2160 -0.7036 -2.4512
  960TIP3    H227076   5.877   6.440  16.749 -0.9363 -1.2709  1.1145
  961TIP3   OH227077   0.880   1.885  17.293 -0.0992 -0.6088  0.3971
  961TIP3    H127078   0.969   1.917  17.307 -0.0994 -0.4101 -0.0211
  961TIP3    H227079   0.828   1.926  17.361 -0.3838  1.5087 -1.0081
  962TIP3   OH227080   6.425   0.617  15.947  0.7384 -0.1836 -0.2419
  962TIP3    H127081   6.475   0.614  16.028  0.4510 -2.2456 -0.0927
  962TIP3    H227082   6.480   0.573  15.883  0.5514  0.5789 -0.9454
  963TIP3   OH227083   1.117   3.992  17.683 -0.7851  0.0756 -0.3258
  963TIP3    H127084   1.178   4.065  17.692  0.3959 -0.6856 -1.5895
  963TIP3    H227085   1.038   4.019  17.730  0.1269  1.5586  0.4111
  964TIP3   OH227086   4.441   1.498  14.923 -0.2572  0.3637 -0.1627
  964TIP3    H127087   4.482   1.485  15.009  0.1632  1.1511 -0.2402
  964TIP3    H227088   4.414   1.410  14.896 -1.6032  0.2662  1.3665
  965TIP3   OH227089   3.009   3.751  17.414  0.5097 -0.3922 -0.0149
  965TIP3    H127090   2.932   3.699  17.395 -0.4635  0.6811  0.8046
  965TIP3    H227091   2.984   3.804  17.491  1.5506  1.0012 -0.5818
  966TIP3   OH227092   5.687   0.112  16.764  0.7564 -0.2235  0.3859
  966TIP3    H127093   5.682   0.207  16.759  0.3569 -0.1928  1.1372
  966TIP3    H227094   5.650   0.081  16.682 -0.6537  0.2506  0.8158
  967TIP3   OH227095   6.298   4.522  16.802 -0.5488  0.2914 -0.6466
  967TIP3    H127096   6.375   4.469  16.784 -0.2987  0.9650 -1.6540
  967TIP3    H227097   6.234   4.460  16.837 -0.1486 -0.6049 -1.4580
  968TIP3   OH227098   6.025   0.856  15.110  0.2568  0.1057 -0.5734
  968TIP3    H127099   6.024   0.870  15.016  2.0053 -0.1484 -0.6704
  968TIP3    H227100   5.963   0.919  15.146 -3.0098 -1.9566 -2.0981
  969TIP3   OH227101   0.143   0.549  17.238  0.1994 -0.3634 -0.1122
  969TIP3    H127102   0.221   0.578  17.190  0.1568 -0.5768 -0.3164
  969TIP3    H227103   0.112   0.627  17.284  1.0142 -0.4770  0.6485
  970TIP3   OH227104   1.594   1.658  15.785 -0.0964  0.0156  0.2058
  970TIP3    H127105   1.504   1.627  15.774  0.1626 -0.1897 -1.8090
  970TIP3    H227106   1.630   1.658  15.696  0.8231  3.4186  0.4537
  971TIP3   OH227107   3.232   4.156  15.141  0.1568 -0.2502  0.1493
  971TIP3    H127108   3.278   4.152  15.057 -2.5736 -0.3169 -1.4813
  971TIP3    H227109   3.195   4.068  15.153  0.2526 -0.1550  1.2906
  972TIP3   OH227110   5.016   5.384  15.341 -0.1399  0.6529  0.3349
  972TIP3    H127111   5.074   5.422  15.408 -0.2117  0.7074  0.3654
  972TIP3    H227112   5.039   5.431  15.261 -1.1204  1.6641  0.6320
  973TIP3   OH227113   2.411   2.476  15.487  0.4600  0.1407 -0.5411
  973TIP3    H127114   2.344   2.544  15.484 -0.0796 -0.3949 -1.3366
  973TIP3    H227115   2.426   2.453  15.395  0.5613 -0.8680 -0.2914
  974TIP3   OH227116   3.334   1.050  15.604 -0.0095  0.1485  0.4641
  974TIP3    H127117   3.272   1.035  15.533 -0.4098  1.2603  0.5516
  974TIP3    H227118   3.401   1.107  15.565  0.4945 -0.3322  0.6133
  975TIP3   OH227119   4.703   6.029  14.904  0.2597 -0.4017  0.0716
  975TIP3    H127120   4.660   6.001  14.823  0.3191 -0.6110  0.1132
  975TIP3    H227121   4.781   6.076  14.874  0.0788 -0.1415 -0.0003
  976TIP3   OH227122   2.950   3.777  16.783  0.0828 -0.0245  0.1427
  976TIP3    H127123   3.022   3.715  16.785  0.3669  0.0173 -3.0169
  976TIP3    H227124   2.873   3.726  16.807  0.7837 -0.7281  0.9357
  977TIP3   OH227125   3.891   4.271  17.108  0.1362  0.1355  0.1741
  977TIP3    H127126   3.893   4.257  17.013 -0.0352  1.6410 -0.0667
  977TIP3    H227127   3.969   4.225  17.140  1.5613  1.6176 -1.0071
  978TIP3   OH227128   0.360   0.864  15.114 -0.7696  0.3732  0.0190
  978TIP3    H127129   0.344   0.917  15.036 -1.3881  1.6629  0.9773
  978TIP3    H227130   0.281   0.812  15.125 -0.3456 -0.4335 -0.6674
  979TIP3   OH227131   4.314   6.119  15.619  0.4061  0.0630  0.2993
  979TIP3    H127132   4.276   6.054  15.560 -1.4095  1.4073 -0.1200
  979TIP3    H227133   4.359   6.067  15.686 -0.3275 -1.5932 -0.4210
  980TIP3   OH227134   3.204   2.833  17.342 -0.3201  0.3181  0.3052
  980TIP3    H127135   3.283   2.801  17.386 -0.4398  0.4200  0.6025
  980TIP3    H227136   3.173   2.760  17.290  0.0018  0.2943  0.1470
  981TIP3   OH227137   0.269   1.317  15.042  0.7254  0.0138 -0.5216
  981TIP3    H127138   0.352   1.307  14.996  1.5970  0.2301  0.9507
  981TIP3    H227139   0.228   1.393  15.001  2.5104  1.6152  0.5045
  982TIP3   OH227140   2.546   5.635  16.881 -0.2144  0.0247 -0.2693
  982TIP3    H127141   2.541   5.561  16.941 -0.8152 -0.0266 -0.3722
  982TIP3    H227142   2.463   5.633  16.834 -0.6515  1.3469  0.3994
  983TIP3   OH227143   6.569   0.071  15.550 -0.2355 -0.0074  0.3745
  983TIP3    H127144   6.588  -0.001  15.490 -0.1493 -0.1866  0.6164
  983TIP3    H227145   6.655   0.105  15.575 -0.2720  0.0857  0.3745
  984TIP3   OH227146   1.607   4.037  15.567  0.2410  0.0283  0.0972
  984TIP3    H127147   1.571   3.975  15.632 -0.9423  0.2058 -0.3667
  984TIP3    H227148   1.530   4.070  15.521  1.1149 -0.8540 -2.1015
  985TIP3   OH227149   6.291   2.396  16.672  0.3229  0.2392 -0.1146
  985TIP3    H127150   6.291   2.374  16.579  1.4874  2.6640 -0.7543
  985TIP3    H227151   6.306   2.490  16.675 -1.8670  0.6291  2.5017
  986TIP3   OH227152   5.070   5.767  17.636  0.1400  0.7834  0.4720
  986TIP3    H127153   5.021   5.687  17.652 -0.0833  1.1099  1.4890
  986TIP3    H227154   5.074   5.774  17.541 -1.5812  0.6148  0.3516
  987TIP3   OH227155   4.754   1.418  16.052  0.1438 -0.2354 -0.5006
  987TIP3    H127156   4.689   1.471  16.006  0.1046 -1.4914 -1.9980
  987TIP3    H227157   4.705   1.375  16.122  0.1377  1.4883  0.6046
  988TIP3   OH227158   0.274   6.264  15.706  0.6157  0.1540  0.3752
  988TIP3    H127159   0.307   6.174  15.699  2.1890  0.6957  0.3765
  988TIP3    H227160   0.205   6.269  15.641  0.5440 -1.0360  0.3286
  989TIP3   OH227161   0.659   1.740  17.467  0.2205 -0.2459 -0.6042
  989TIP3    H127162   0.673   1.674  17.399  0.6032 -0.4903 -0.2979
  989TIP3    H227163   0.748   1.764  17.496  0.0640 -0.2211 -0.1302
  990TIP3   OH227164   4.462   0.529  14.994 -0.2004 -0.4931  0.0833
  990TIP3    H127165   4.429   0.466  14.929  0.1438 -0.4816 -0.1002
  990TIP3    H227166   4.514   0.591  14.944  0.8973 -1.0487  0.5016
  991TIP3   OH227167   3.237   5.671  15.875  0.4090  0.3577 -0.1314
  991TIP3    H127168   3.316   5.674  15.928  0.2595 -0.6546  0.1499
  991TIP3    H227169   3.264   5.628  15.794 -0.7258 -4.0586  1.5861
  992TIP3   OH227170   5.335   2.390  16.549  0.3011  0.1700 -0.4316
  992TIP3    H127171   5.296   2.419  16.632 -0.5137  0.8849 -1.0452
  992TIP3    H227172   5.300   2.302  16.535  0.7900 -0.1336  0.1864
  993TIP3   OH227173   3.106   6.222  15.286 -0.2121  0.1020 -0.1331
  993TIP3    H127174   3.148   6.294  15.240  0.1403  0.2808  0.4545
  993TIP3    H227175   3.013   6.234  15.269 -0.0775  0.0182 -0.9926
  994TIP3   OH227176   1.728   1.716  15.498 -0.1974  0.5778 -0.3926
  994TIP3    H127177   1.801   1.673  15.453 -0.7434 -0.3340 -0.4190
  994TIP3    H227178   1.770   1.766  15.569  0.6139  1.5280 -1.4889
  995TIP3   OH227179   4.667   6.424  17.795  0.1239 -0.0533  0.2799
  995TIP3    H127180   4.685   6.419  17.889  0.0831  0.0246  0.2913
  995TIP3    H227181   4.589   6.371  17.783 -1.4617  2.0736  0.6978
  996TIP3   OH227182   1.356   1.205  15.118 -0.1887 -0.1146  0.2135
  996TIP3    H127183   1.346   1.296  15.091 -0.5076 -0.7794 -2.1224
  996TIP3    H227184   1.276   1.185  15.168 -0.1605  0.8199  0.6528
  997TIP3   OH227185   3.843   2.806  15.524  0.2093 -0.6714 -0.4208
  997TIP3    H127186   3.784   2.868  15.480  0.3960 -0.9546 -1.0930
  997TIP3    H227187   3.863   2.846  15.608 -0.9744 -0.5834 -0.1680
  998TIP3   OH227188   2.301   0.835  17.598  0.3884  0.3928 -0.1972
  998TIP3    H127189   2.266   0.911  17.553  0.7485  0.8405  0.2675
  998TIP3    H227190   2.392   0.831  17.571 -0.2400 -1.4462 -2.3191
  999TIP3   OH227191   1.966   2.837  15.317  0.2096  0.4812  0.0304
  999TIP3    H127192   2.045   2.862  15.269  0.4136 -1.0224 -0.4940
  999TIP3    H227193   1.970   2.886  15.399  1.9719  0.0388  0.2375
 1000TIP3   OH227194   1.058   2.317  16.307  0.3980 -0.2607  0.1130
 1000TIP3    H127195   1.064   2.225  16.282 -0.8596 -0.5362  0.7254
 1000TIP3    H227196   0.977   2.348  16.266  1.3718  0.9053 -1.0267
 1001TIP3   OH227197   2.370   4.353  16.632 -0.4583 -0.5864  0.0461
 1001TIP3    H127198   2.341   4.263  16.648  0.6490 -1.0920 -0.6870
 1001TIP3    H227199   2.460   4.344  16.601  0.0962  0.8618  1.1211
 1002TIP3   OH227200   1.767   3.060  17.790 -0.3367  0.5024 -0.2866
 1002TIP3    H127201   1.771   3.004  17.868  0.1978  0.7560 -0.1271
 1002TIP3    H227202   1.759   3.149  17.825 -1.7401  0.5018 -0.5398
 1003TIP3   OH227203   2.641   5.057  18.068  0.0274 -0.2648  0.4124
 1003TIP3    H127204   2.637   5.150  18.090 -0.3990  0.6549 -2.9651
 1003TIP3    H227205   2.550   5.029  18.066  0.1029 -0.5248  0.6113
 1004TIP3   OH227206   4.573   3.693  15.750  0.0336 -0.3339  0.4868
 1004TIP3    H127207   4.485   3.665  15.776  0.7756 -2.8610  0.5673
 1004TIP3    H227208   4.565   3.787  15.735 -2.0337  0.0670  3.2120
 1005TIP3   OH227209   6.506   2.372  16.993  0.1872 -0.2354 -0.6946
 1005TIP3    H127210   6.527   2.439  16.928  0.4767 -1.1354 -1.5715
 1005TIP3    H227211   6.542   2.291  16.956 -0.0675 -0.8638  0.3713
 1006TIP3   OH227212   2.523   5.499  17.570 -0.7754 -0.0049  0.0576
 1006TIP3    H127213   2.561   5.563  17.511 -0.7278 -1.4699 -1.6087
 1006TIP3    H227214   2.598   5.456  17.611 -0.7606 -0.0906 -0.0597
 1007TIP3   OH227215   4.039   2.326  15.855  0.1323  0.2530  0.7012
 1007TIP3    H127216   4.083   2.283  15.928  0.6336  0.6087  0.6150
 1007TIP3    H227217   4.082   2.411  15.849 -0.3721  0.4897  0.4241
 1008TIP3   OH227218   1.999   5.456  14.874 -0.0272  0.0967 -0.5023
 1008TIP3    H127219   2.053   5.378  14.864  0.8065  0.4240  1.1220
 1008TIP3    H227220   2.059   5.523  14.906 -0.7684  1.3788 -1.6533
 1009TIP3   OH227221   2.111   0.332  14.840  0.1134  0.9242 -0.3170
 1009TIP3    H127222   2.142   0.262  14.897 -0.5238  1.2634  0.4590
 1009TIP3    H227223   2.149   0.312  14.755  2.3361  1.2377  0.5502
 1010TIP3   OH227224   5.577   6.550  16.543  0.1773 -0.4050 -0.0010
 1010TIP3    H127225   5.591   6.459  16.518 -2.3340 -1.2360  1.2557
 1010TIP3    H227226   5.536   6.546  16.629  1.5936  2.0286  0.8994
 1011TIP3   OH227227   6.406   6.167  14.824  0.9563 -0.5922 -0.3127
 1011TIP3    H127228   6.442   6.102  14.885 -0.0619 -0.8543  0.0342
 1011TIP3    H227229   6.372   6.115  14.751  1.3069 -0.3467 -0.6548
 1012TIP3   OH227230   6.561   1.888  17.463 -0.3692 -0.1296 -0.3475
 1012TIP3    H127231   6.535   1.936  17.384 -1.1977  1.4393  0.8237
 1012TIP3    H227232   6.480   1.880  17.513  0.4015  0.2336  1.0070
 1013TIP3   OH227233   3.632   5.910  17.533  0.2002 -0.1117  0.2455
 1013TIP3    H127234   3.592   5.978  17.479 -1.0032 -0.8568  0.1626
 1013TIP3    H227235   3.725   5.931  17.533  0.3614 -0.4416 -2.6719
 1014TIP3   OH227236   5.318   4.733  17.647  0.2177 -0.0544 -0.1621
 1014TIP3    H127237   5.355   4.649  17.619  0.3033 -0.6078  1.4855
 1014TIP3    H227238   5.380   4.766  17.711 -0.6698  0.4321  0.4678
 1015TIP3   OH227239   1.120   5.868  14.849 -0.7178 -0.2987 -0.2770
 1015TIP3    H127240   1.200   5.847  14.897 -0.5272  1.2784  0.1476
 1015TIP3    H227241   1.102   5.790  14.797  1.5591 -0.3720 -1.0328
 1016TIP3   OH227242   5.595   4.660  16.762 -0.5265  0.3088  0.5971
 1016TIP3    H127243   5.550   4.744  16.759 -0.4138  0.3896  1.0948
 1016TIP3    H227244   5.608   4.636  16.670 -0.2501  1.0026  0.4489
 1017TIP3   OH227245   3.893   5.535  15.504 -0.0180  0.2131  0.0817
 1017TIP3    H127246   3.813   5.539  15.453  0.0605 -0.8100 -0.1472
 1017TIP3    H227247   3.881   5.600  15.573 -0.6758  0.6760 -0.4565
 1018TIP3   OH227248   5.366   3.225  15.499 -0.7023  1.1716 -0.5393
 1018TIP3    H127249   5.421   3.150  15.519 -2.2776  0.3690  1.1192
 1018TIP3    H227250   5.422   3.301  15.512  0.3924  0.3568 -0.3897
 1019TIP3   OH227251   4.651   2.031  15.254  0.1703  0.4055  0.3755
 1019TIP3    H127252   4.687   1.995  15.173 -0.5770 -1.0220  0.6460
 1019TIP3    H227253   4.613   2.115  15.227  2.8199  1.5487 -0.0697
 1020TIP3   OH227254   3.532   1.063  18.363 -0.5094  0.2898  0.2516
 1020TIP3    H127255   3.547   1.158  18.358 -1.3446  0.5155  1.5979
 1020TIP3    H227256   3.596   1.026  18.302 -0.0955  1.7064 -0.2243
 1021TIP3   OH227257   1.059   4.148  15.656  0.0625  0.2676 -0.2155
 1021TIP3    H127258   1.130   4.103  15.702  0.5453  0.5154 -0.6988
 1021TIP3    H227259   1.084   4.143  15.563 -1.0364 -0.4883 -0.4934
 1022TIP3   OH227260   2.550   5.134  15.059 -0.0096 -0.4612 -0.4556
 1022TIP3    H127261   2.643   5.117  15.075 -0.1706 -1.3259 -0.3871
 1022TIP3    H227262   2.509   5.048  15.065 -0.6063 -0.3059 -1.9256
 1023TIP3   OH227263   0.939   0.502  16.265 -0.3392 -0.3167  0.0725
 1023TIP3    H127264   1.024   0.458  16.258  1.0565  2.0843  0.8456
 1023TIP3    H227265   0.923   0.538  16.178 -0.0830  0.0484  0.1754
 1024TIP3   OH227266   0.053   5.623  15.624  0.3819  0.2421 -0.3691
 1024TIP3    H127267   0.080   5.668  15.704 -0.7325 -0.3826  0.3876
 1024TIP3    H227268   0.135   5.596  15.583  1.0079  1.3978  0.0521
 1025TIP3   OH227269   0.971   4.022  16.528  0.1452 -0.0618 -0.0004
 1025TIP3    H127270   0.944   3.944  16.480 -0.8171 -0.6514  1.4223
 1025TIP3    H227271   0.898   4.084  16.518  1.3236  1.1138 -1.9688
 1026TIP3   OH227272   2.435   4.501  15.006  0.0108  0.4345 -0.4765
 1026TIP3    H127273   2.434   4.442  14.930  1.7239 -1.8723  1.1429
 1026TIP3    H227274   2.502   4.566  14.985 -0.7372  0.8872 -1.6006
 1027TIP3   OH227275   5.515   6.008  16.766  0.3054 -0.6902  0.4949
 1027TIP3    H127276   5.606   6.032  16.748  0.7324 -2.2417  0.4513
 1027TIP3    H227277   5.497   6.049  16.851 -0.0571  2.3225 -0.9095
 1028TIP3   OH227278   4.381   6.362  15.528 -0.5029 -0.2224 -0.3829
 1028TIP3    H127279   4.300   6.356  15.479 -0.5292 -1.2774 -0.2203
 1028TIP3    H227280   4.394   6.275  15.565 -0.0195  0.3102  0.7430
 1029TIP3   OH227281   5.474   6.258  16.152  0.3403 -0.0579  0.6885
 1029TIP3    H127282   5.389   6.263  16.110  1.3573  0.6597 -1.4474
 1029TIP3    H227283   5.472   6.326  16.220 -1.1253 -0.7962  1.4131
 1030TIP3   OH227284   5.065   1.142  15.292 -0.0105 -0.6791 -0.1585
 1030TIP3    H127285   5.113   1.224  15.306 -0.9750 -0.0742 -0.3339
 1030TIP3    H227286   5.070   1.098  15.377  1.7482 -1.1350 -0.4522
 1031TIP3   OH227287   2.808   2.612  17.177  0.0818 -0.0763  0.1249
 1031TIP3    H127288   2.724   2.585  17.140  0.6354 -0.5764 -0.8052
 1031TIP3    H227289   2.784   2.668  17.251 -1.1150  2.2926 -1.8929
 1032TIP3   OH227290   2.604   1.471  15.054  0.4219 -0.4259 -0.2663
 1032TIP3    H127291   2.551   1.414  15.111  0.0728  0.3078  0.1621
 1032TIP3    H227292   2.662   1.517  15.114  1.1839 -0.8237 -0.6843
 1033TIP3   OH227293   5.932   0.630  16.626 -0.6226  0.4761 -0.8462
 1033TIP3    H127294   5.986   0.684  16.685 -0.3765  0.6938 -1.2677
 1033TIP3    H227295   5.850   0.618  16.674  0.2609 -0.9569  0.3892
 1034TIP3   OH227296   3.215   6.307  14.474  0.2193 -0.2378 -0.1608
 1034TIP3    H127297   3.123   6.311  14.448  0.5976 -0.5847 -1.6460
 1034TIP3    H227298   3.247   6.224  14.438  1.7098  0.9708 -1.8185
 1035TIP3   OH227299   1.024   4.691  15.250  0.0402  0.5263  0.1577
 1035TIP3    H127300   1.010   4.669  15.158  0.2256 -0.5184  0.3663
 1035TIP3    H227301   1.113   4.726  15.252 -0.3607  1.6022 -0.2258
 1036TIP3   OH227302   2.905   5.420  14.521 -0.3376 -0.1309  0.1200
 1036TIP3    H127303   2.982   5.477  14.512 -0.0078 -0.6096 -0.1992
 1036TIP3    H227304   2.923   5.348  14.460 -0.9811 -0.3146  0.1466
 1037TIP3   OH227305   6.031   2.667  16.433 -0.0352 -0.1560 -0.1943
 1037TIP3    H127306   6.014   2.708  16.518 -0.9100 -1.6934  0.4103
 1037TIP3    H227307   5.972   2.592  16.430 -0.8797  0.5124 -2.6823
 1038TIP3   OH227308   0.184   4.388  16.737 -0.9125 -0.2948  0.3959
 1038TIP3    H127309   0.150   4.478  16.737  0.0722  0.0847  0.8132
 1038TIP3    H227310   0.162   4.354  16.824 -0.6048 -0.1888  0.5169
 1039TIP3   OH227311   1.166   1.741  15.754  0.2815  0.2094  0.1867
 1039TIP3    H127312   1.141   1.740  15.661 -0.0280  0.9421  0.2525
 1039TIP3    H227313   1.221   1.664  15.765 -1.6388 -1.2897 -0.0675
 1040TIP3   OH227314   6.355   6.278  16.846  0.1282  0.7289 -0.2589
 1040TIP3    H127315   6.354   6.225  16.925 -0.6891  1.3316  0.1484
 1040TIP3    H227316   6.423   6.238  16.791  1.2106  0.7418  1.0266
 1041TIP3   OH227317   0.686   6.015  14.143  0.1649  0.3135  0.0433
 1041TIP3    H127318   0.696   6.055  14.230 -0.0901  0.5705 -0.0430
 1041TIP3    H227319   0.632   6.077  14.095  0.9524  0.5497 -0.5533
 1042TIP3   OH227320   5.600   2.840  16.040  0.0063 -0.3095  0.4277
 1042TIP3    H127321   5.654   2.918  16.045  0.3999 -0.6258  1.3809
 1042TIP3    H227322   5.616   2.805  15.952 -0.9545  1.2043 -0.3910
 1043TIP3   OH227323   0.574   4.045  15.880  0.1297 -0.2241  0.0588
 1043TIP3    H127324   0.645   4.053  15.816 -1.2731 -2.1040 -1.8411
 1043TIP3    H227325   0.511   4.112  15.855  0.0053 -0.3416  0.0562
 1044TIP3   OH227326   6.211   0.316  14.855 -0.1954  0.1140  0.4019
 1044TIP3    H127327   6.216   0.241  14.796  0.3557  0.4445  0.0126
 1044TIP3    H227328   6.141   0.295  14.917  0.3564 -0.9909  0.6656
 1045TIP3   OH227329   1.786   1.674  14.679  0.1620  0.2073  0.4644
 1045TIP3    H127330   1.780   1.647  14.587 -0.1226  1.0421  0.2208
 1045TIP3    H227331   1.876   1.704  14.690  0.9915 -2.3332  1.1952
 1046TIP3   OH227332   0.204   5.380  15.412 -0.0224 -0.0717  0.1752
 1046TIP3    H127333   0.199   5.292  15.448  1.3049  0.3688  1.5061
 1046TIP3    H227334   0.234   5.434  15.484  0.8987  1.1723 -1.0868
 1047TIP3   OH227335   2.454   3.328  16.936  0.9339  0.0107  0.0043
 1047TIP3    H127336   2.547   3.314  16.921  0.9637 -1.0317  1.0540
 1047TIP3    H227337   2.415   3.321  16.849  1.8852  1.0157 -0.5287
 1048TIP3   OH227338   4.521   0.924  15.253 -0.5112  0.0099 -0.4761
 1048TIP3    H127339   4.572   0.872  15.191 -2.5183 -0.3601 -1.9074
 1048TIP3    H227340   4.526   0.875  15.335  1.4593  0.0409 -0.5369
 1049TIP3   OH227341   4.882   0.142  15.593  0.9791  0.3044 -0.0890
 1049TIP3    H127342   4.970   0.178  15.597  2.0270 -1.9510 -1.1312
 1049TIP3    H227343   4.868   0.101  15.678 -0.9378  4.3696  1.8327
 1050TIP3   OH227344   2.601   4.371  15.796 -0.0441  0.5607 -0.5372
 1050TIP3    H127345   2.537   4.434  15.763 -2.2052 -1.1870  0.0892
 1050TIP3    H227346   2.627   4.320  15.719 -1.7812 -0.6857 -0.3511
 1051TIP3   OH227347   2.387   1.147  15.445  0.3102  0.3161 -0.4668
 1051TIP3    H127348   2.323   1.179  15.509  0.4639  0.9863 -0.6342
 1051TIP3    H227349   2.360   1.057  15.427  1.6256 -0.7709  2.3062
 1052TIP3   OH227350   1.568   5.307  14.806  0.1580  0.3188  0.8515
 1052TIP3    H127351   1.634   5.284  14.872  0.1838  2.0410  1.4749
 1052TIP3    H227352   1.617   5.354  14.738 -0.1217 -0.1126  0.3380
 1053TIP3   OH227353   1.604   2.659  16.342  0.0444  0.0702 -0.2798
 1053TIP3    H127354   1.623   2.599  16.414  1.0393  0.0915 -0.5112
 1053TIP3    H227355   1.634   2.614  16.263 -0.9601  0.0834 -0.6808
 1054TIP3   OH227356   1.935   0.430  17.155 -0.1452 -0.1235  0.0813
 1054TIP3    H127357   1.864   0.365  17.153  0.5080 -0.8406 -0.2743
 1054TIP3    H227358   1.920   0.480  17.235  0.2137 -1.7156  1.1683
 1055TIP3   OH227359   1.338   4.868  16.734 -0.0330  0.0816  0.8301
 1055TIP3    H127360   1.361   4.869  16.827 -2.9145 -0.1600  1.6504
 1055TIP3    H227361   1.421   4.881  16.688  1.5843 -0.5365  3.3964
 1056TIP3   OH227362   0.712   5.911  17.040 -0.3525 -0.8472 -0.4566
 1056TIP3    H127363   0.761   5.842  16.996 -1.6051 -2.5630  0.6861
 1056TIP3    H227364   0.768   5.938  17.113 -0.2053 -1.2807 -0.4063
 1057TIP3   OH227365   6.585   3.533  16.940  0.1807  0.1919 -0.3261
 1057TIP3    H127366   6.669   3.555  16.980 -0.5337  2.0339  0.2863
 1057TIP3    H227367   6.552   3.459  16.991  0.2189  1.1981  1.2091
 1058TIP3   OH227368   1.952   2.635  16.284  0.1490  0.5521 -0.1032
 1058TIP3    H127369   1.945   2.679  16.368  2.3144 -1.7670  1.4505
 1058TIP3    H227370   2.042   2.602  16.281 -0.5329 -1.4176 -2.2712
 1059TIP3   OH227371   2.105   1.139  13.967  1.1329 -0.4469 -0.1634
 1059TIP3    H127372   2.134   1.172  14.052 -0.7085 -1.1811  0.8104
 1059TIP3    H227373   2.021   1.098  13.985  0.8215 -0.8653 -2.3147
 1060TIP3   OH227374   3.542   3.260  17.662  0.1019 -0.2634 -0.1039
 1060TIP3    H127375   3.458   3.276  17.619 -0.3254 -1.6346  0.1663
 1060TIP3    H227376   3.523   3.195  17.730  1.3469 -0.4555  0.1006
 1061TIP3   OH227377   2.755   2.119  17.251  0.4892 -0.6862  0.0080
 1061TIP3    H127378   2.804   2.064  17.190 -0.8179  0.2339 -1.9761
 1061TIP3    H227379   2.800   2.203  17.249  0.6381 -0.7472  0.6031
 1062TIP3   OH227380   0.163   4.741  14.915 -0.0906 -0.0840  0.2152
 1062TIP3    H127381   0.091   4.793  14.951  1.2427  1.0060  1.4401
 1062TIP3    H227382   0.233   4.805  14.898  1.1040 -1.2872  0.4165
 1063TIP3   OH227383   2.595   1.941  15.165  0.4773 -0.4818 -0.5152
 1063TIP3    H127384   2.551   1.987  15.093  1.6450 -1.6313 -2.0447
 1063TIP3    H227385   2.687   1.938  15.138  1.1125 -0.1595  1.4871
 1064TIP3   OH227386   1.211   6.579  14.939  0.3577  0.1717 -0.0115
 1064TIP3    H127387   1.160   6.560  15.018 -1.6541  1.8446 -0.8277
 1064TIP3    H227388   1.255   6.662  14.958 -1.0590  1.1942 -1.0007
 1065TIP3   OH227389   3.287   5.531  16.944  0.1259  0.2180  0.4855
 1065TIP3    H127390   3.326   5.443  16.946 -1.0527 -0.3090  1.3310
 1065TIP3    H227391   3.290   5.556  16.851 -2.0803 -1.9216 -0.2903
 1066TIP3   OH227392   1.084   4.718  16.110  0.1495 -0.3860  0.1203
 1066TIP3    H127393   1.160   4.713  16.167  1.2950  0.9168 -1.2037
 1066TIP3    H227394   1.114   4.679  16.027 -0.0459  1.6018 -0.9472
 1067TIP3   OH227395   3.059   5.127  17.894 -0.3223  0.1571 -0.1855
 1067TIP3    H127396   3.011   5.055  17.934  0.0875  0.7617  1.4676
 1067TIP3    H227397   3.009   5.206  17.917  0.3158  0.5854 -0.2347
 1068TIP3   OH227398   2.199   6.424  17.008  0.2360 -0.3757  0.1240
 1068TIP3    H127399   2.289   6.458  17.012 -0.0019  0.1694  1.9224
 1068TIP3    H227400   2.207   6.339  16.966  1.2094  0.7872 -2.2102
 1069TIP3   OH227401   0.990   5.444  17.868  0.2117  0.3444  0.8009
 1069TIP3    H127402   0.954   5.394  17.795  0.0370 -0.8032  1.6424
 1069TIP3    H227403   0.918   5.499  17.898 -0.5869 -1.1862  1.8203
 1070TIP3   OH227404   3.403   0.217  15.454  0.3883  0.2283  0.0849
 1070TIP3    H127405   3.432   0.300  15.416  1.2805  0.5758  1.4308
 1070TIP3    H227406   3.451   0.150  15.404  0.4399  0.5808 -0.3469
 1071TIP3   OH227407   2.764   2.644  16.254 -0.0478 -0.1648  0.0438
 1071TIP3    H127408   2.761   2.594  16.173 -1.6562  0.1412 -0.1159
 1071TIP3    H227409   2.673   2.648  16.283  0.0794  2.2339  0.3073
 1072TIP3   OH227410   4.552   0.700  14.757  0.1052  0.2065 -0.2948
 1072TIP3    H127411   4.601   0.778  14.732  1.1102 -0.9137 -1.9895
 1072TIP3    H227412   4.484   0.692  14.690  0.2744 -0.6196 -0.3731
 1073TIP3   OH227413   2.219   1.729  17.360  0.3759  0.0371 -0.7225
 1073TIP3    H127414   2.314   1.721  17.361  0.4566  0.8688  0.4802
 1073TIP3    H227415   2.191   1.677  17.284  1.6739 -1.3051 -0.3221
 1074TIP3   OH227416   3.391   3.600  15.514 -0.0779  0.2306  0.3608
 1074TIP3    H127417   3.441   3.667  15.560 -0.9822  0.0244  1.7177
 1074TIP3    H227418   3.337   3.560  15.582  0.9281 -2.3709 -0.2590
 1075TIP3   OH227419   4.004   0.753  15.309  0.1818  0.6761  0.5503
 1075TIP3    H127420   3.936   0.703  15.264 -0.1009  0.2838  1.3906
 1075TIP3    H227421   3.970   0.842  15.312 -0.3059  0.4788  0.9781
 1076TIP3   OH227422   5.998   2.291  15.135 -0.1600 -0.2720 -0.2324
 1076TIP3    H127423   6.058   2.363  15.115 -0.5556  0.1648  0.1327
 1076TIP3    H227424   5.951   2.319  15.214 -2.5999  0.5213 -1.8353
 1077TIP3   OH227425   3.613   4.148  16.574 -0.8708  0.2704  0.6875
 1077TIP3    H127426   3.603   4.055  16.553  0.7417  0.1376  0.3911
 1077TIP3    H227427   3.591   4.153  16.667 -0.9483 -0.4216  0.7165
 1078TIP3   OH227428   2.943   5.459  15.506 -0.1381  0.3924  0.5192
 1078TIP3    H127429   2.849   5.442  15.516 -0.3368  1.5455  0.7603
 1078TIP3    H227430   2.955   5.481  15.414  0.2483 -1.7009  0.0274
 1079TIP3   OH227431   6.113   6.398  16.916 -0.6136  0.3990 -0.3844
 1079TIP3    H127432   6.166   6.338  16.863 -2.0707 -3.2902  1.9727
 1079TIP3    H227433   6.051   6.437  16.853  0.0343 -0.9836 -1.9522
 1080TIP3   OH227434   2.005   0.070  16.502 -0.3952 -0.0832  0.6542
 1080TIP3    H127435   1.963   0.046  16.420 -1.0467 -0.0486  0.9708
 1080TIP3    H227436   2.066  -0.001  16.520  0.8824  0.6368 -0.6319
 1081TIP3   OH227437   5.277   4.991  16.033  1.3353 -0.1112 -0.4486
 1081TIP3    H127438   5.205   5.018  16.091  1.8413  0.1394  0.0705
 1081TIP3    H227439   5.266   4.897  16.023  0.4867  0.0338 -0.9869
 1082TIP3   OH227440   3.761   5.791  16.755 -0.5080  0.2534  0.6226
 1082TIP3    H127441   3.761   5.887  16.762 -0.5077  0.4130 -1.1216
 1082TIP3    H227442   3.669   5.768  16.738 -0.2099  0.1720 -1.0716
 1083TIP3   OH227443   1.267   4.322  15.934 -0.4194  0.4514 -0.3510
 1083TIP3    H127444   1.362   4.335  15.943 -0.4681  0.2882  0.4912
 1083TIP3    H227445   1.258   4.266  15.857  0.1977  0.1553 -0.2199
 1084TIP3   OH227446   5.542   0.938  14.677  0.1940 -0.2940  0.2197
 1084TIP3    H127447   5.631   0.951  14.646 -1.1688  1.2286 -3.6651
 1084TIP3    H227448   5.522   1.017  14.728  0.4208  0.4186 -0.7685
 1085TIP3   OH227449   0.528   0.188  16.555 -0.2033 -0.1366  0.0181
 1085TIP3    H127450   0.574   0.253  16.608 -1.7394  0.8933  0.1641
 1085TIP3    H227451   0.580   0.108  16.564  1.4962  0.9269  0.2135
 1086TIP3   OH227452   6.046   3.539  16.397  0.2456  0.0072 -0.4888
 1086TIP3    H127453   6.132   3.508  16.425  0.1490 -0.1689 -0.3884
 1086TIP3    H227454   6.049   3.532  16.301 -0.1234 -1.2482 -0.4238
 1087TIP3   OH227455   3.343   2.873  16.328  0.0260 -0.4646  0.1653
 1087TIP3    H127456   3.290   2.810  16.279 -1.0431  0.5339 -0.0280
 1087TIP3    H227457   3.386   2.822  16.396 -0.9405 -1.3758  0.1146
 1088TIP3   OH227458   5.546   2.577  14.707 -0.1546  0.3084 -0.2363
 1088TIP3    H127459   5.565   2.591  14.800  0.4431 -2.5004  0.1355
 1088TIP3    H227460   5.592   2.497  14.684 -0.9989  0.4477 -2.7632
 1089TIP3   OH227461   2.731   2.502  15.381  0.2428 -0.1992  0.1107
 1089TIP3    H127462   2.725   2.410  15.408 -0.7367 -0.6633 -1.5499
 1089TIP3    H227463   2.818   2.530  15.410  0.9379 -1.9354 -0.1669
 1090TIP3   OH227464   3.685   2.343  17.328 -0.3800 -0.7090  0.2651
 1090TIP3    H127465   3.645   2.375  17.409  0.2111 -0.3965  0.4386
 1090TIP3    H227466   3.642   2.260  17.312 -0.5307 -0.7604  0.8875
 1091TIP3   OH227467   3.684   4.569  16.232 -0.0266 -0.0319  0.9795
 1091TIP3    H127468   3.612   4.630  16.250 -0.6133 -0.3820 -0.0780
 1091TIP3    H227469   3.656   4.486  16.271 -1.5206 -0.9252 -1.6684
 1092TIP3   OH227470   4.994   1.982  16.007 -0.2135 -0.2004 -0.2860
 1092TIP3    H127471   4.954   2.029  15.934 -0.1590 -0.1414 -0.2775
 1092TIP3    H227472   5.054   2.045  16.047 -0.8100  0.0085  0.2863
 1093TIP3   OH227473   1.234   2.570  17.982 -0.4929 -0.1838 -0.0791
 1093TIP3    H127474   1.248   2.630  18.055 -2.1699  1.7987 -1.2969
 1093TIP3    H227475   1.245   2.624  17.903 -0.4156 -1.8606 -1.2832
 1094TIP3   OH227476   1.450   0.636  15.075 -0.0764 -0.0244  0.1406
 1094TIP3    H127477   1.438   0.546  15.046 -2.3567  0.3021 -0.0827
 1094TIP3    H227478   1.418   0.637  15.165  0.5414  0.4419  0.3626
 1095TIP3   OH227479   0.519   6.180  16.992 -0.1012  0.5463 -0.5176
 1095TIP3    H127480   0.603   6.177  16.946  0.3801  0.2649  0.3443
 1095TIP3    H227481   0.542   6.162  17.084 -1.3641 -1.8884 -0.6123
 1096TIP3   OH227482   2.986   3.536  15.301 -0.2248 -0.1404  0.1773
 1096TIP3    H127483   2.936   3.612  15.332 -0.7805 -0.8103  0.9862
 1096TIP3    H227484   3.058   3.573  15.251 -0.7008  0.9077  0.2446
 1097TIP3   OH227485   2.718   1.417  18.202 -0.0408  0.0293  0.0457
 1097TIP3    H127486   2.654   1.395  18.269  0.0061  0.2031  0.1482
 1097TIP3    H227487   2.738   1.333  18.160 -2.0557  0.2686 -1.5490
 1098TIP3   OH227488   4.375   5.205  16.621 -0.1881  0.4827 -0.2585
 1098TIP3    H127489   4.447   5.264  16.645 -0.0278  0.2130 -0.0814
 1098TIP3    H227490   4.407   5.118  16.643 -0.2672  0.2887 -0.9060
 1099TIP3   OH227491   5.146   0.890  16.337  0.0323  0.0318 -0.9269
 1099TIP3    H127492   5.204   0.867  16.410 -1.1410  0.2278  0.1101
 1099TIP3    H227493   5.120   0.980  16.355 -1.2629 -0.3344 -0.8857
 1100TIP3   OH227494   5.016   3.926  16.208  0.0889 -0.7495  0.1051
 1100TIP3    H127495   5.040   3.945  16.117 -0.1693 -0.9571 -0.0073
 1100TIP3    H227496   4.930   3.885  16.202 -0.5334  0.4457  0.5429
 1101TIP3   OH227497   6.224   5.037  15.271 -0.5070 -0.1770 -0.7512
 1101TIP3    H127498   6.200   4.987  15.193 -0.8518 -0.4101 -0.4987
 1101TIP3    H227499   6.169   5.000  15.340 -1.0685  0.8209 -0.6483
 1102TIP3   OH227500   2.324   4.895  15.669  0.1709 -0.2114  0.2920
 1102TIP3    H127501   2.283   4.839  15.735 -1.2083 -0.1345 -0.4597
 1102TIP3    H227502   2.334   4.980  15.713 -1.1885 -0.0202  0.2949
 1103TIP3   OH227503   1.901   5.094  15.202 -0.0505 -0.0692 -0.3231
 1103TIP3    H127504   1.978   5.082  15.146  1.2868  0.2930  1.3517
 1103TIP3    H227505   1.913   5.181  15.241 -0.8725 -0.3609  0.6209
 1104TIP3   OH227506   5.450   4.536  17.520  0.1541  0.0061  0.1417
 1104TIP3    H127507   5.531   4.485  17.510  0.6175  0.8889 -0.7212
 1104TIP3    H227508   5.382   4.480  17.483  0.3821 -0.6948  0.7579
 1105TIP3   OH227509   0.323   6.415  14.741 -0.0614 -0.4617 -0.8634
 1105TIP3    H127510   0.245   6.455  14.703  0.5819  0.2618 -1.4652
 1105TIP3    H227511   0.358   6.481  14.800  0.1919 -0.7062 -0.7393
 1106TIP3   OH227512   4.099   3.748  16.858 -0.6662  0.0419  0.6503
 1106TIP3    H127513   4.157   3.711  16.924 -0.8671  1.6299  1.7857
 1106TIP3    H227514   4.091   3.680  16.791 -1.1563 -1.9898  2.6617
 1107TIP3   OH227515   1.515   6.250  17.775 -0.3990 -0.0467 -0.6822
 1107TIP3    H127516   1.494   6.218  17.688 -1.3360  0.8319 -0.7889
 1107TIP3    H227517   1.598   6.297  17.765  0.0078 -0.7928 -0.8882
 1108TIP3   OH227518   3.961   5.062  17.961 -1.0438  0.1900  0.1165
 1108TIP3    H127519   3.909   5.070  17.882  0.0722  1.0752 -0.5642
 1108TIP3    H227520   4.018   4.987  17.946 -1.0254  0.1911  0.1805
 1109TIP3   OH227521   4.139   2.581  15.948  0.2231 -0.2610 -0.1610
 1109TIP3    H127522   4.055   2.623  15.967  0.3124 -0.1369 -0.0421
 1109TIP3    H227523   4.148   2.587  15.853  0.1244 -0.2236 -0.1680
 1110TIP3   OH227524   5.077   2.083  15.467 -0.5064 -0.7691  0.4197
 1110TIP3    H127525   5.131   2.021  15.418 -0.1494  0.6101 -1.0000
 1110TIP3    H227526   5.081   2.052  15.557  0.1357 -2.4599 -0.1502
 1111TIP3   OH227527   1.805   2.911  16.274 -0.1659 -0.7440 -0.0551
 1111TIP3    H127528   1.784   2.828  16.231 -0.2460 -0.8438  0.1718
 1111TIP3    H227529   1.721   2.941  16.309  0.1845 -1.5671  1.5926
 1112TIP3   OH227530   3.310   4.112  16.106  0.2943 -0.5053 -0.1417
 1112TIP3    H127531   3.224   4.141  16.078  0.1813  0.0574  0.7567
 1112TIP3    H227532   3.364   4.116  16.027  0.2045  1.8424 -0.1498
 1113TIP3   OH227533   2.259   0.960  15.296  0.5070  0.4368 -0.0920
 1113TIP3    H127534   2.227   0.972  15.206 -4.3103  1.9444  1.5355
 1113TIP3    H227535   2.225   0.875  15.322 -0.0263  0.9496  0.9403
 1114TIP3   OH227536   6.414   5.146  16.501 -0.3090  0.2692 -0.1714
 1114TIP3    H127537   6.377   5.126  16.415  1.1164  0.8280 -0.9529
 1114TIP3    H227538   6.508   5.155  16.485 -0.0643  0.7993  1.3791
 1115TIP3   OH227539   4.287   2.470  15.682 -0.0410  0.6098  0.2119
 1115TIP3    H127540   4.338   2.432  15.754 -0.6996 -0.0321  0.3539
 1115TIP3    H227541   4.303   2.412  15.608  1.8753  2.1290 -0.6348
 1116TIP3   OH227542   1.734   2.547  17.781 -0.0237  0.9813 -0.3707
 1116TIP3    H127543   1.701   2.557  17.692  0.4305  1.1430 -0.5262
 1116TIP3    H227544   1.809   2.606  17.786 -0.0930  1.0328  0.1454
 1117TIP3   OH227545   2.495   6.273  16.152  0.6107 -0.0532  0.6127
 1117TIP3    H127546   2.504   6.183  16.122 -0.2447  0.1964 -0.4772
 1117TIP3    H227547   2.529   6.326  16.080 -2.0529  0.5873 -0.2945
 1118TIP3   OH227548   4.936   5.861  16.491  0.5948  0.4355 -0.3656
 1118TIP3    H127549   4.987   5.795  16.444 -1.6546 -0.5107 -1.6146
 1118TIP3    H227550   4.915   5.820  16.575 -0.4499 -0.3153 -0.9769
 1119TIP3   OH227551   2.474   6.517  17.479 -0.3341  0.2339 -0.2926
 1119TIP3    H127552   2.405   6.486  17.420  0.9920  0.2012 -1.8864
 1119TIP3    H227553   2.506   6.438  17.522  0.6260 -0.1577 -1.6914
 1120TIP3   OH227554   0.675   5.505  16.033 -0.0355 -0.1290  0.6121
 1120TIP3    H127555   0.689   5.411  16.042 -3.8657 -0.6613  4.7609
 1120TIP3    H227556   0.727   5.543  16.104  2.5989  1.2561 -1.8725
 1121TIP3   OH227557   6.631   0.529  17.874 -0.0729 -0.4088 -0.4456
 1121TIP3    H127558   6.660   0.498  17.960  0.2775 -1.0063 -0.7767
 1121TIP3    H227559   6.536   0.516  17.875 -0.2052  0.5421  0.2308
 1122TIP3   OH227560   2.108   0.287  17.771 -0.3031  0.6351 -0.3710
 1122TIP3    H127561   2.188   0.250  17.807  0.8227  2.1328 -1.1914
 1122TIP3    H227562   2.111   0.379  17.796 -2.0429  0.6222  0.0009
 1123TIP3   OH227563   6.404   0.470  14.972 -0.7746  0.5263 -0.1019
 1123TIP3    H127564   6.467   0.403  14.945 -1.0963  0.5654 -0.9667
 1123TIP3    H227565   6.329   0.458  14.914 -0.4192  2.3094 -1.0065
 1124TIP3   OH227566   0.814   4.342  15.968  0.2943  0.3044  0.0886
 1124TIP3    H127567   0.793   4.381  15.884 -0.5644  1.2849  0.7345
 1124TIP3    H227568   0.825   4.417  16.027  1.1840 -0.3506  0.7855
 1125TIP3   OH227569   4.045   3.017  15.890 -0.1443 -0.5005 -0.1529
 1125TIP3    H127570   4.129   3.004  15.935  1.3858  1.5561 -2.1842
 1125TIP3    H227571   4.005   3.090  15.937  0.2100 -0.1166 -0.4320
 1126TIP3   OH227572   5.479   2.283  15.258 -0.0258  0.1896 -0.3588
 1126TIP3    H127573   5.420   2.266  15.184 -1.8299  1.2698  0.7566
 1126TIP3    H227574   5.534   2.356  15.229  0.3491 -0.3837 -1.1588
 1127TIP3   OH227575   6.644   2.882  16.235  0.6503  0.1634 -0.2798
 1127TIP3    H127576   6.553   2.866  16.210  0.1947  1.3896  0.4782
 1127TIP3    H227577   6.684   2.919  16.156  0.0520  1.1006 -0.1617
 1128TIP3   OH227578   5.833   2.662  15.533  0.7887 -0.6594  0.0824
 1128TIP3    H127579   5.744   2.674  15.565  0.9831  0.9480  0.1070
 1128TIP3    H227580   5.866   2.586  15.581 -0.3091 -0.8397  0.5929
 1129TIP3   OH227581   2.017   1.936  17.848  0.2938 -0.5975 -0.6600
 1129TIP3    H127582   1.995   1.856  17.896 -0.7138  0.6745  1.1315
 1129TIP3    H227583   1.956   2.001  17.882  2.9097  1.6379  0.0416
 1130TIP3   OH227584   1.967   4.822  15.365  0.0981 -0.0325  0.6855
 1130TIP3    H127585   1.956   4.896  15.304 -0.5072 -1.3461 -0.8737
 1130TIP3    H227586   2.060   4.799  15.358 -0.3379 -1.4686 -1.4161
 1131TIP3   OH227587   3.846   2.149  15.795  0.0105  0.3477 -0.5963
 1131TIP3    H127588   3.756   2.183  15.796  0.0188  0.4280  1.0351
 1131TIP3    H227589   3.901   2.226  15.809  0.1558  0.0210  0.8911
 1132TIP3   OH227590   4.894   2.743  15.899  0.4239 -0.4604 -0.0869
 1132TIP3    H127591   4.958   2.702  15.957  0.9247  0.4067  0.0086
 1132TIP3    H227592   4.839   2.672  15.869  0.1868 -0.9410  1.4100
 1133TIP3   OH227593   6.118   2.980  18.001  0.4954 -1.0001 -0.0568
 1133TIP3    H127594   6.093   3.058  17.951  0.4058 -0.5160  0.7183
 1133TIP3    H227595   6.187   3.010  18.060  0.0946 -1.3771  0.6187
 1134TIP3   OH227596   5.643   5.858  15.216  0.0619  0.9875 -0.2024
 1134TIP3    H127597   5.687   5.777  15.189 -0.8431 -0.4249  2.1625
 1134TIP3    H227598   5.713   5.922  15.225  1.2822 -0.4351  0.8389
 1135TIP3   OH227599   6.232   0.321  17.189 -0.1973 -0.0160  0.0776
 1135TIP3    H127600   6.192   0.254  17.133 -0.6508 -0.4193  0.8605
 1135TIP3    H227601   6.269   0.272  17.262  0.6780  0.4754 -0.0273
 1136TIP3   OH227602   4.817   2.198  17.673 -0.0942  0.5282  0.2714
 1136TIP3    H127603   4.880   2.212  17.744 -0.6205 -1.1987  1.1305
 1136TIP3    H227604   4.804   2.285  17.635  0.3492  1.4747  2.1721
 1137TIP3   OH227605   5.177   4.334  16.166  0.4124 -0.0153 -0.1059
 1137TIP3    H127606   5.190   4.287  16.083 -0.2317 -0.2033 -0.1040
 1137TIP3    H227607   5.211   4.274  16.232 -0.1142 -0.3517 -0.1344
 1138TIP3   OH227608   2.846   5.082  15.048 -0.0670 -0.3379  0.1521
 1138TIP3    H127609   2.875   5.144  14.981 -1.1248  1.2945  1.1157
 1138TIP3    H227610   2.892   5.109  15.127  0.0163 -1.2752  0.4326
 1139TIP3   OH227611   3.607   3.129  15.331  0.3702 -0.1050 -0.0637
 1139TIP3    H127612   3.684   3.098  15.284  0.2586 -1.5317  0.6395
 1139TIP3    H227613   3.539   3.136  15.263  0.7877 -0.0503 -0.4769
 1140TIP3   OH227614   5.467   5.259  16.505  0.3658 -0.3947 -0.3062
 1140TIP3    H127615   5.505   5.268  16.418  1.1958 -1.0669 -0.0274
 1140TIP3    H227616   5.502   5.333  16.554  0.0827 -0.1460 -0.4765
 1141TIP3   OH227617   3.922   1.307  16.138 -0.5135 -0.2215 -0.0374
 1141TIP3    H127618   3.939   1.269  16.051 -1.7083  0.4297 -0.5915
 1141TIP3    H227619   3.927   1.233  16.198  0.4739 -0.6622 -0.6360
 1142TIP3   OH227620   0.894   0.234  16.126  0.2052 -0.4673  0.1658
 1142TIP3    H127621   0.954   0.240  16.201 -0.7092 -0.8003  0.9452
 1142TIP3    H227622   0.841   0.313  16.132 -1.9678 -1.9416  1.7615
 1143TIP3   OH227623   5.599   2.895  14.696  0.2590 -0.0748  0.1849
 1143TIP3    H127624   5.649   2.849  14.628 -0.2855 -0.9541  0.3724
 1143TIP3    H227625   5.510   2.861  14.687 -0.4749  1.8880 -0.5214
 1144TIP3   OH227626   6.545   6.613  13.840  0.3914  0.0787 -0.3178
 1144TIP3    H127627   6.471   6.659  13.880  0.3064  0.1773 -0.5838
 1144TIP3    H227628   6.546   6.528  13.883  1.6052  0.9231  1.4255
 1145TIP3   OH227629   2.495   1.932  17.180 -0.5782  0.0940  0.3274
 1145TIP3    H127630   2.481   1.954  17.272  3.3610 -0.4698  1.2704
 1145TIP3    H227631   2.448   1.850  17.167 -0.5233 -0.2588  2.1300
 1146TIP3   OH227632   4.291   1.046  16.574 -0.1329  0.0920 -0.3573
 1146TIP3    H127633   4.312   1.070  16.484  0.1900  3.7330  0.5517
 1146TIP3    H227634   4.195   1.042  16.576 -0.3205  2.8393 -0.3483
 1147TIP3   OH227635   5.042   0.459  14.467  0.1690  0.7361 -0.3614
 1147TIP3    H127636   5.134   0.446  14.445  0.1215  0.0453 -0.1751
 1147TIP3    H227637   4.998   0.468  14.382  0.2488 -0.0625 -0.4899
 1148TIP3   OH227638   1.484   4.324  16.957  0.1394  0.5495  0.0063
 1148TIP3    H127639   1.482   4.276  16.874 -0.8925  1.4039 -0.4848
 1148TIP3    H227640   1.573   4.313  16.989 -0.0989 -1.7993 -0.0105
 1149TIP3   OH227641   6.123   5.480  16.865 -0.4588  0.1948 -0.0334
 1149TIP3    H127642   6.174   5.409  16.904  2.4903  1.1358 -1.9281
 1149TIP3    H227643   6.160   5.560  16.903 -1.7701  0.8756 -0.1222
 1150TIP3   OH227644   5.525   5.749  15.439  0.0853 -0.1310  0.0391
 1150TIP3    H127645   5.432   5.762  15.424  0.0416  2.3875  1.8256
 1150TIP3    H227646   5.568   5.799  15.370  0.0224  0.9214  0.7278
 1151TIP3   OH227647   1.130   4.153  15.370 -0.6538 -0.7909 -0.1456
 1151TIP3    H127648   1.076   4.227  15.342  1.7079  1.6196  1.2512
 1151TIP3    H227649   1.137   4.098  15.292 -1.1297  1.3303 -1.7640
 1152TIP3   OH227650   1.408   2.001  16.779 -0.3643  0.6018 -1.2495
 1152TIP3    H127651   1.385   1.922  16.829  0.6386  0.6441 -0.6928
 1152TIP3    H227652   1.331   2.018  16.725  0.0781 -1.8376 -2.7884
 1153TIP3   OH227653   1.868   3.760  15.121  0.1333  0.3975  0.1100
 1153TIP3    H127654   1.937   3.775  15.057 -0.5032 -0.2250 -0.7538
 1153TIP3    H227655   1.887   3.674  15.159  0.7275  0.9295  1.0705
 1154TIP3   OH227656   0.923   2.458  15.406  0.2919 -0.0616 -0.0037
 1154TIP3    H127657   0.894   2.378  15.361  2.6507 -0.4866 -0.9271
 1154TIP3    H227658   0.855   2.475  15.471  0.7296 -4.1686  1.8660
 1155TIP3   OH227659   2.657   1.670  17.798 -0.0734 -0.0157 -0.1739
 1155TIP3    H127660   2.660   1.765  17.797 -0.0889 -0.0076 -1.5597
 1155TIP3    H227661   2.563   1.649  17.798 -0.0896 -0.0023 -0.9923
 1156TIP3   OH227662   1.775   1.414  14.717  0.2265  0.0535  0.2039
 1156TIP3    H127663   1.802   1.503  14.693 -2.3872  0.5999 -0.9342
 1156TIP3    H227664   1.738   1.424  14.805 -0.8293  0.2583 -0.2603
 1157TIP3   OH227665   4.352   5.035  15.407  0.0658  0.0969  0.8596
 1157TIP3    H127666   4.342   5.090  15.485  0.5081  1.9587 -0.3258
 1157TIP3    H227667   4.263   5.015  15.380 -0.2354  2.1526  0.0892
 1158TIP3   OH227668   3.048   5.940  15.482 -0.1460  0.8210  0.2457
 1158TIP3    H127669   3.131   5.985  15.500  0.1490  0.0220  0.9266
 1158TIP3    H227670   3.060   5.853  15.518 -0.3651 -0.1531 -1.8831
 1159TIP3   OH227671   0.891   4.771  16.782  0.3362 -0.5664  0.5600
 1159TIP3    H127672   0.917   4.708  16.715 -1.0430  0.4047 -0.9359
 1159TIP3    H227673   0.843   4.839  16.735 -0.4144  0.3101  2.4865
 1160TIP3   OH227674   1.299   0.051  17.404 -0.0451  0.1711 -0.5465
 1160TIP3    H127675   1.342  -0.030  17.434  0.8857  0.4820 -1.0017
 1160TIP3    H227676   1.331   0.118  17.464  2.1777  0.8816 -2.3816
 1161TIP3   OH227677   5.527   3.909  16.293 -0.0588 -0.7769 -0.3137
 1161TIP3    H127678   5.565   3.960  16.364 -0.5661 -0.2129 -0.4375
 1161TIP3    H227679   5.528   3.819  16.324  3.7723 -1.2617 -1.2876
 1162TIP3   OH227680   5.045   0.990  15.749 -0.2220 -0.2684 -0.4117
 1162TIP3    H127681   5.094   0.937  15.812 -0.6779 -0.9111 -0.5833
 1162TIP3    H227682   4.954   0.965  15.763 -0.4837  0.7464 -0.2518
 1163TIP3   OH227683   2.489   3.076  16.062 -0.3267  0.1572 -0.3572
 1163TIP3    H127684   2.575   3.116  16.068 -0.7946  0.9883  2.0887
 1163TIP3    H227685   2.428   3.148  16.079 -1.2685 -1.1059  2.1762
 1164TIP3   OH227686   6.154   6.116  17.819 -0.1768 -0.2282  0.5992
 1164TIP3    H127687   6.111   6.053  17.877 -3.6476  1.1836 -0.1924
 1164TIP3    H227688   6.201   6.175  17.878  0.4357 -1.6421  1.5656
 1165TIP3   OH227689   0.505   4.385  17.858 -0.0139  0.1521  0.5538
 1165TIP3    H127690   0.497   4.480  17.850  0.9911  0.4313  2.3266
 1165TIP3    H227691   0.427   4.351  17.815 -0.3845  1.7795 -0.1361
 1166TIP3   OH227692   2.154   3.854  17.921  0.1553  0.0129  0.1204
 1166TIP3    H127693   2.081   3.908  17.951 -0.6826 -0.6598 -0.6441
 1166TIP3    H227694   2.178   3.891  17.836  0.1789 -0.2682  0.0044
 1167TIP3   OH227695   4.461   0.603  17.506 -0.6726  0.1831 -1.0829
 1167TIP3    H127696   4.369   0.628  17.501 -0.8900 -0.7766 -2.3159
 1167TIP3    H227697   4.463   0.529  17.566 -0.4224  1.3405  0.3797
 1168TIP3   OH227698   1.392   4.893  15.480 -0.3544  0.3048  0.1520
 1168TIP3    H127699   1.443   4.973  15.491 -0.6268  0.8502 -2.0533
 1168TIP3    H227700   1.350   4.879  15.565 -0.1917  2.4232  0.6323
 1169TIP3   OH227701   4.020   4.210  16.868  0.1823  0.0088 -0.6581
 1169TIP3    H127702   4.004   4.117  16.850  0.4730 -0.1286 -0.2051
 1169TIP3    H227703   4.040   4.247  16.782  1.3285 -0.6034 -0.6783
 1170TIP3   OH227704   4.384   1.544  15.317 -0.0720  0.1057 -0.3151
 1170TIP3    H127705   4.452   1.610  15.327 -1.2946  1.4481 -0.5829
 1170TIP3    H227706   4.333   1.550  15.397 -1.6037  1.1860 -1.3295
 1171TIP3   OH227707   2.497   4.655  14.264  0.1073  0.0706 -0.5065
 1171TIP3    H127708   2.422   4.704  14.229 -0.2700  0.0510  0.2427
 1171TIP3    H227709   2.548   4.630  14.187 -0.3172  0.6356 -0.9836
 1172TIP3   OH227710   0.471   3.682  16.084 -0.3244 -0.4194  0.0754
 1172TIP3    H127711   0.489   3.689  15.990 -1.3243  1.7946  0.0025
 1172TIP3    H227712   0.540   3.734  16.125 -1.3002  0.6284  0.3954
 1173TIP3   OH227713   5.226   1.857  15.160  0.0708  0.0253 -0.8487
 1173TIP3    H127714   5.248   1.883  15.071  0.2679  1.3693 -0.4246
 1173TIP3    H227715   5.305   1.877  15.211 -0.8376  1.5205  0.0451
 1174TIP3   OH227716   0.694   4.974  15.933 -0.2822  0.3518 -0.0691
 1174TIP3    H127717   0.668   4.930  15.851 -0.5895 -1.4987  0.9729
 1174TIP3    H227718   0.766   4.921  15.967 -0.5242  0.7714  1.1403
 1175TIP3   OH227719   0.018   6.642  17.747  0.5506 -0.6528 -0.9425
 1175TIP3    H127720  -0.023   6.607  17.826 -0.6025  0.8127 -0.8464
 1175TIP3    H227721  -0.022   6.594  17.675 -0.8562  0.2521 -0.8028
 1176TIP3   OH227722   4.981   3.948  17.912  0.0933 -0.4540  0.3002
 1176TIP3    H127723   4.992   3.942  18.007  0.9827  0.8511  0.3123
 1176TIP3    H227724   4.912   3.885  17.891 -0.4019 -0.4646  1.8585
 1177TIP3   OH227725   0.436   4.970  16.077 -0.4457 -0.5895  0.7232
 1177TIP3    H127726   0.439   5.011  15.991  1.0725  0.8185  1.3852
 1177TIP3    H227727   0.396   4.884  16.062  1.5800 -1.2217 -1.7331
 1178TIP3   OH227728   3.344   0.678  15.296 -0.2910 -0.3740  0.0202
 1178TIP3    H127729   3.312   0.648  15.381 -0.0624 -0.2477  0.1519
 1178TIP3    H227730   3.406   0.749  15.317  0.1859 -0.7151 -0.2239
 1179TIP3   OH227731   1.402   6.285  16.379 -0.6065 -0.0301  0.1082
 1179TIP3    H127732   1.452   6.365  16.363  1.2969 -0.5063  2.8920
 1179TIP3    H227733   1.371   6.259  16.293  0.9166  2.2937 -1.2661
 1180TIP3   OH227734   4.433   2.350  15.921 -0.4983  0.1246  0.0912
 1180TIP3    H127735   4.399   2.273  15.876  0.6841  0.5110 -1.5621
 1180TIP3    H227736   4.523   2.327  15.944  0.1572  1.2437 -1.1756
 1181TIP3   OH227737   3.856   1.484  15.534 -0.1048  0.1819  0.0853
 1181TIP3    H127738   3.830   1.393  15.526 -0.3433  0.3855 -1.8169
 1181TIP3    H227739   3.775   1.534  15.526  0.0282  0.5784  1.0610
 1182TIP3   OH227740   6.272   3.531  14.953 -0.6760 -0.0356  0.3124
 1182TIP3    H127741   6.197   3.537  15.012  0.9773  1.4665  2.3801
 1182TIP3    H227742   6.275   3.616  14.909  0.1043  0.1041  0.6274
 1183TIP3   OH227743   1.296   2.804  15.889 -0.1199 -0.2813 -0.1732
 1183TIP3    H127744   1.345   2.857  15.952 -0.0458  0.7351 -1.0626
 1183TIP3    H227745   1.212   2.786  15.933  0.8197 -1.6158  1.1570
 1184TIP3   OH227746   2.795   0.015  16.444 -0.1362 -1.0779  0.2573
 1184TIP3    H127747   2.789   0.002  16.539 -0.6949 -0.7025  0.2814
 1184TIP3    H227748   2.709  -0.012  16.411 -1.0473  1.5114  0.2149
 1185TIP3   OH227749   2.040   5.549  16.073  0.0028 -0.0366  0.8859
 1185TIP3    H127750   2.016   5.631  16.117 -4.9116 -1.0028  0.4942
 1185TIP3    H227751   2.007   5.480  16.130  2.7240 -1.8557  0.4833
 1186TIP3   OH227752   0.898   4.688  17.212 -0.0322  0.5121  0.4567
 1186TIP3    H127753   0.948   4.621  17.259 -1.5546 -0.0793  1.3114
 1186TIP3    H227754   0.931   4.771  17.247  1.2985  0.1879 -0.0073
 1187TIP3   OH227755   6.663   2.674  15.741 -0.0885 -0.0997  0.5267
 1187TIP3    H127756   6.606   2.751  15.746 -0.7886 -0.6375  1.1258
 1187TIP3    H227757   6.751   2.708  15.753 -0.1516  0.8950 -1.4059
 1188TIP3   OH227758   1.457   4.869  17.360  0.5864  0.5901 -0.6713
 1188TIP3    H127759   1.384   4.811  17.380  1.0700  0.4847  0.8757
 1188TIP3    H227760   1.416   4.949  17.325 -0.1916  0.1638 -0.7460
 1189TIP3   OH227761   6.573   6.223  17.805  0.2797 -0.9367 -0.2119
 1189TIP3    H127762   6.493   6.170  17.807 -1.0363  0.8661 -1.2958
 1189TIP3    H227763   6.632   6.177  17.745  0.1933 -2.4266  0.7962
 1190TIP3   OH227764   4.537   1.337  15.498  0.9125 -0.0733  0.0464
 1190TIP3    H127765   4.604   1.293  15.446  1.0904 -0.1010  0.2974
 1190TIP3    H227766   4.583   1.410  15.539  0.7460  0.0188  0.0708
 1191TIP3   OH227767   4.837   1.948  15.698 -0.4426  0.0091 -0.2226
 1191TIP3    H127768   4.747   1.970  15.673 -0.7879 -1.4967 -0.4425
 1191TIP3    H227769   4.861   1.877  15.637  0.4686 -0.3968  0.5907
 1192TIP3   OH227770   6.471   5.057  16.010 -0.6406  0.0716  0.2234
 1192TIP3    H127771   6.532   5.004  16.062  0.1985  0.0538 -0.7395
 1192TIP3    H227772   6.398   4.998  15.991  0.0180 -0.5772 -0.3483
 1193TIP3   OH227773   1.179   0.803  15.130  0.0086  0.2795  0.6958
 1193TIP3    H127774   1.127   0.728  15.159  0.3753 -0.4914 -0.5710
 1193TIP3    H227775   1.116   0.875  15.126 -0.8306 -0.4598 -0.0852
 1194TIP3   OH227776   5.980   6.695  14.027 -0.3269 -0.4429 -0.1087
 1194TIP3    H127777   6.044   6.671  13.960 -0.3523 -0.4953 -0.1139
 1194TIP3    H227778   6.032   6.713  14.105 -0.2240  0.4131 -0.3605
 1195TIP3   OH227779   1.802   5.146  15.536 -0.0485  0.4936 -0.1045
 1195TIP3    H127780   1.716   5.112  15.559  0.6228 -0.4146  1.1632
 1195TIP3    H227781   1.791   5.182  15.448 -2.0466  1.6252  0.5532
 1196TIP3   OH227782   5.200   5.322  16.594  0.2220 -0.3513  0.0792
 1196TIP3    H127783   5.222   5.350  16.682  1.1441  0.6949 -0.4627
 1196TIP3    H227784   5.284   5.313  16.549 -0.2664  1.8034 -1.4513
 1197TIP3   OH227785   3.918   6.377  17.238 -0.0223 -0.8597  0.0359
 1197TIP3    H127786   3.973   6.342  17.307  0.9409  0.1905 -0.1824
 1197TIP3    H227787   3.836   6.402  17.282  0.3210 -0.8428  0.6641
 1198TIP3   OH227788   0.150   6.026  16.382  0.6791  0.1853  0.1013
 1198TIP3    H127789   0.173   5.933  16.379  2.5150  0.6061  0.0815
 1198TIP3    H227790   0.172   6.053  16.471 -1.0775  0.3550  0.5348
 1199TIP3   OH227791   2.106   1.575  15.775 -0.2921  1.1566  0.0323
 1199TIP3    H127792   2.090   1.670  15.772 -0.1743  1.2442  1.4053
 1199TIP3    H227793   2.176   1.560  15.712  0.0553  2.0630  0.1911
 1200TIP3   OH227794   3.048   5.571  17.614  0.1301 -0.5587  0.1502
 1200TIP3    H127795   3.002   5.496  17.652  1.7459 -1.6083  0.0893
 1200TIP3    H227796   3.067   5.546  17.524  1.0392 -0.2457  0.2452
 1201TIP3   OH227797   0.329   6.532  17.401 -0.5190 -0.2061  0.4072
 1201TIP3    H127798   0.374   6.483  17.333  0.6751 -0.6969  1.5075
 1201TIP3    H227799   0.249   6.482  17.418 -0.4215 -0.5216 -0.0630
 1202TIP3   OH227800   5.064   2.587  17.269 -0.3154  0.2754  0.7386
 1202TIP3    H127801   5.155   2.605  17.247 -0.4051  0.2153  0.3193
 1202TIP3    H227802   5.020   2.672  17.263 -0.6751 -0.0055 -0.9382
 1203TIP3   OH227803   1.321   4.355  16.564 -0.3195  0.4004 -0.1490
 1203TIP3    H127804   1.284   4.437  16.595  1.9621  2.0104 -1.3257
 1203TIP3    H227805   1.297   4.351  16.471 -1.4805 -0.9659  0.1716
 1204TIP3   OH227806   4.268   2.892  18.033 -0.0683  0.6079 -0.3177
 1204TIP3    H127807   4.308   2.805  18.031 -0.1018  0.6050 -0.8459
 1204TIP3    H227808   4.334   2.950  17.993  0.0597  0.8725  0.2574
 1205TIP3   OH227809   3.065   2.340  15.120 -0.0203  0.2087  0.2338
 1205TIP3    H127810   3.085   2.328  15.212  1.5331 -1.3395 -0.2713
 1205TIP3    H227811   2.991   2.281  15.103  1.2764 -1.4091 -0.0220
 1206TIP3   OH227812   0.273   4.043  17.844 -0.3164 -0.6332  0.1931
 1206TIP3    H127813   0.254   4.129  17.809  0.0105 -0.6283  0.0223
 1206TIP3    H227814   0.362   4.024  17.815 -0.0887 -0.6837  0.9049
 1207TIP3   OH227815   0.333   2.801  16.672  0.3765  0.4331  0.0772
 1207TIP3    H127816   0.342   2.882  16.721  1.0953 -0.7395  2.0238
 1207TIP3    H227817   0.416   2.755  16.685 -0.2531 -0.9102 -0.3990
 1208TIP3   OH227818   5.908   0.918  17.121 -0.1283  0.5816 -0.1512
 1208TIP3    H127819   5.997   0.883  17.116 -0.0127  0.6676  1.1523
 1208TIP3    H227820   5.854   0.850  17.079  0.4613  0.2409 -0.3771
 1209TIP3   OH227821   0.834   5.835  15.925  0.7888  0.0696 -0.2110
 1209TIP3    H127822   0.838   5.903  15.993  1.1723 -0.2953  0.1368
 1209TIP3    H227823   0.825   5.884  15.843  0.7169  0.5295  0.0647
 1210TIP3   OH227824   3.297   1.515  17.552  0.0529  0.0948  0.0102
 1210TIP3    H127825   3.359   1.588  17.557  0.3620 -0.2013  0.5856
 1210TIP3    H227826   3.349   1.438  17.574 -0.4478 -0.1981  0.1957
 1211TIP3   OH227827   0.332   5.381  18.006  0.1836  0.1240  0.3836
 1211TIP3    H127828   0.279   5.375  18.086 -0.6231 -0.8628 -0.1946
 1211TIP3    H227829   0.420   5.357  18.033 -0.4298 -1.9673  0.6658
 1212TIP3   OH227830   3.217   4.265  15.433 -0.2398 -0.1274  0.2916
 1212TIP3    H127831   3.130   4.304  15.427 -0.0316  0.3786  0.4629
 1212TIP3    H227832   3.276   4.340  15.435  0.2589 -0.4740 -0.7192
 1213TIP3   OH227833   0.503   5.659  15.900  0.8002  0.6255 -0.4684
 1213TIP3    H127834   0.564   5.618  15.962  0.3902  1.7543  0.7344
 1213TIP3    H227835   0.420   5.614  15.913  0.8852  0.4023 -0.6962
 1214TIP3   OH227836   3.989   6.051  13.979 -0.1924 -0.1242 -0.0435
 1214TIP3    H127837   4.000   6.094  13.895  1.5465 -1.7688 -0.7162
 1214TIP3    H227838   3.897   6.023  13.980 -0.3740  0.4065 -1.1362
 1215TIP3   OH227839   2.278   5.079  14.638  0.4129 -0.0306  0.2375
 1215TIP3    H127840   2.331   5.055  14.562  1.5762  1.1360  0.6426
 1215TIP3    H227841   2.188   5.064  14.610  0.7922  0.6537 -1.4816
 1216TIP3   OH227842   4.902   2.907  16.666  0.2595 -0.2800 -0.0653
 1216TIP3    H127843   4.975   2.930  16.609 -0.2239 -0.5059 -0.7986
 1216TIP3    H227844   4.868   2.825  16.630 -0.9358  0.2996 -0.3259
 1217TIP3   OH227845   2.910   3.256  18.146 -0.0128  0.6994 -0.2697
 1217TIP3    H127846   2.984   3.256  18.086 -0.8517 -0.1772 -1.3378
 1217TIP3    H227847   2.930   3.327  18.208  1.4421  0.8374 -0.8445
 1218TIP3   OH227848   0.996   1.657  16.881 -0.4193 -0.7945  0.3282
 1218TIP3    H127849   1.037   1.720  16.940 -0.8980  0.1092 -0.2723
 1218TIP3    H227850   0.922   1.705  16.842 -1.0555 -1.8619  0.1747
 1219TIP3   OH227851   0.690   4.743  15.427  0.6199  0.0129  0.0610
 1219TIP3    H127852   0.611   4.705  15.466  0.8608 -0.6498 -0.0884
 1219TIP3    H227853   0.670   4.750  15.334  1.1211 -1.1613 -0.1492
 1220TIP3   OH227854   3.151   5.063  14.832  0.5548 -0.2819 -0.1383
 1220TIP3    H127855   3.231   5.090  14.788  0.6612  0.9000  0.7179
 1220TIP3    H227856   3.086   5.129  14.807  0.8705  1.0186  2.1681
 1221TIP3   OH227857   5.503   3.039  16.507  0.0767 -0.4587 -0.4219
 1221TIP3    H127858   5.409   3.049  16.492 -0.2846  1.9563  2.5537
 1221TIP3    H227859   5.542   3.118  16.468  0.6107 -0.5072  0.0012
 1222TIP3   OH227860   4.945   3.439  15.621  0.0949  0.5123 -0.8578
 1222TIP3    H127861   4.883   3.490  15.569 -0.9473 -0.7940 -0.9239
 1222TIP3    H227862   4.970   3.366  15.565 -1.1215 -0.9824  0.4227
 1223TIP3   OH227863   3.870   5.171  15.685 -0.3822 -0.2692  0.6768
 1223TIP3    H127864   3.960   5.144  15.705  0.3905  0.9655 -0.8890
 1223TIP3    H227865   3.858   5.148  15.593 -2.0924 -1.4215  1.1537
 1224TIP3   OH227866   2.532   5.952  15.190  0.3845  0.0297 -0.3149
 1224TIP3    H127867   2.596   6.008  15.144 -1.2278  0.8274 -1.7002
 1224TIP3    H227868   2.501   6.006  15.263  0.0874  0.2929 -0.6330
 1225TIP3   OH227869   1.104   3.578  15.381 -0.1704  0.0851  0.3497
 1225TIP3    H127870   1.054   3.587  15.461  0.7019 -0.1344  0.9321
 1225TIP3    H227871   1.154   3.659  15.374 -0.9015  0.4892 -0.4540
 1226TIP3   OH227872   3.152   0.019  17.028  0.0054  0.4034  0.6424
 1226TIP3    H127873   3.221   0.056  16.974  2.1661 -0.4948  2.5889
 1226TIP3    H227874   3.122   0.092  17.082 -1.3065  1.0138 -0.8326
 1227TIP3   OH227875   6.559   1.286  15.614  0.0347  0.0058 -0.1493
 1227TIP3    H127876   6.593   1.339  15.686 -0.5860  0.3113 -0.0793
 1227TIP3    H227877   6.468   1.269  15.637  0.0397 -0.5269 -0.5012
 1228TIP3   OH227878   2.597   0.222  16.509 -0.6980 -0.2461 -0.5490
 1228TIP3    H127879   2.678   0.273  16.499  1.1419 -2.5415  1.2546
 1228TIP3    H227880   2.620   0.134  16.480 -2.8833 -0.7473 -0.9214
 1229TIP3   OH227881   6.367   3.047  18.078  0.4355  0.6247 -0.1255
 1229TIP3    H127882   6.415   2.993  18.141 -1.9116 -2.6386 -0.8405
 1229TIP3    H227883   6.408   3.027  17.994 -0.0157  0.4613 -0.3117
 1230TIP3   OH227884   3.036   6.717  15.970  0.4186 -0.5333  0.0847
 1230TIP3    H127885   3.083   6.687  16.047  2.5373  2.4611  0.1333
 1230TIP3    H227886   2.990   6.796  15.999  1.5193  0.8502 -1.6926
 1231TIP3   OH227887   3.503   5.381  14.979  0.3936 -0.1070 -0.8263
 1231TIP3    H127888   3.553   5.300  14.987 -1.4127 -1.2053  0.0462
 1231TIP3    H227889   3.538   5.438  15.047 -0.7649 -1.6002  1.1472
 1232TIP3   OH227890   1.788   4.447  17.884 -0.3092  0.4178  0.7041
 1232TIP3    H127891   1.803   4.358  17.914  0.6342  0.3851  0.1663
 1232TIP3    H227892   1.724   4.438  17.813  2.0877 -0.2332 -1.5100
 1233TIP3   OH227893   0.709   6.608  17.056 -0.1916 -0.3330  0.4151
 1233TIP3    H127894   0.629   6.638  17.013  1.5291  1.4413 -1.8916
 1233TIP3    H227895   0.731   6.526  17.012 -0.2691 -0.3359  0.3824
 1234TIP3   OH227896   3.299   3.863  16.688 -0.2806 -0.6560  0.2371
 1234TIP3    H127897   3.286   3.878  16.594  0.3820  0.6973  0.3353
 1234TIP3    H227898   3.319   3.770  16.695  0.8646 -0.5429 -1.1087
 1235TIP3   OH227899   4.445   1.412  16.655  0.0103 -0.0649  0.0230
 1235TIP3    H127900   4.449   1.316  16.660 -0.5520 -0.0565  1.2531
 1235TIP3    H227901   4.419   1.439  16.744  1.0657  1.2842 -0.0426
 1236TIP3   OH227902   2.963   4.257  14.962 -0.2996 -0.1934  0.6332
 1236TIP3    H127903   2.970   4.206  15.042  1.4617 -0.2507  0.4865
 1236TIP3    H227904   3.052   4.288  14.945 -0.4218 -0.8999 -1.7621
 1237TIP3   OH227905   4.398   3.943  17.367  0.5373  0.5948  0.0622
 1237TIP3    H127906   4.421   3.976  17.453  1.1742  0.8089 -0.1840
 1237TIP3    H227907   4.460   3.985  17.307 -1.7890  2.8506 -0.9450
 1238TIP3   OH227908   1.859   3.399  15.646  0.5429  0.4424  0.2080
 1238TIP3    H127909   1.925   3.329  15.649 -0.2468 -0.2796  1.1898
 1238TIP3    H227910   1.777   3.355  15.666 -0.1519  1.4586 -0.3380
 1239TIP3   OH227911   3.141   6.007  14.588  0.6673  0.0647 -0.0353
 1239TIP3    H127912   3.161   5.934  14.529 -0.5177  0.0043 -0.3799
 1239TIP3    H227913   3.123   5.966  14.672 -0.0545 -0.0579 -0.2429
 1240TIP3   OH227914   4.472   5.843  15.543  0.1684 -0.3816  0.1770
 1240TIP3    H127915   4.525   5.848  15.463  0.3010  0.9905  0.3141
 1240TIP3    H227916   4.536   5.825  15.612  0.3503  0.3973  0.2234
 1241TIP3   OH227917   3.372   0.081  16.903 -0.7076 -0.2209  0.4997
 1241TIP3    H127918   3.387   0.031  16.823 -0.7866 -0.4761  0.6459
 1241TIP3    H227919   3.402   0.169  16.881 -0.3813 -0.3783  0.3096
 1242TIP3   OH227920   2.812   0.778  14.699 -0.5597 -0.4575 -0.3070
 1242TIP3    H127921   2.828   0.744  14.610  1.7812  0.2536 -0.2193
 1242TIP3    H227922   2.876   0.848  14.709 -2.3160  1.0187  1.1523
 1243TIP3   OH227923   2.660   0.741  14.920 -1.0851  0.2419 -0.0088
 1243TIP3    H127924   2.730   0.704  14.974 -2.0015 -1.1142  0.3016
 1243TIP3    H227925   2.702   0.758  14.835 -0.0495  0.8253  0.5903
 1244TIP3   OH227926   2.625   0.190  15.769 -0.2634  0.0320 -0.2073
 1244TIP3    H127927   2.644   0.196  15.863  0.3499  0.5334 -0.3502
 1244TIP3    H227928   2.655   0.274  15.734 -3.0762  1.0265 -0.4473
 1245TIP3   OH227929   5.320   5.587  15.158  0.1205  0.3721 -0.2828
 1245TIP3    H127930   5.378   5.526  15.114  0.9678  1.5707 -0.9030
 1245TIP3    H227931   5.314   5.554  15.248 -0.0439 -1.0066 -0.7834
 1246TIP3   OH227932   0.149   0.212  15.311  0.4401 -0.1104 -0.3811
 1246TIP3    H127933   0.133   0.306  15.305  2.7798  0.5863  2.1380
 1246TIP3    H227934   0.221   0.196  15.251  0.9774  0.0099  0.2229
 1247TIP3   OH227935   6.023   0.259  15.041 -0.2997 -0.2149  0.3658
 1247TIP3    H127936   6.024   0.297  15.129 -1.6626 -1.1066  0.7988
 1247TIP3    H227937   6.040   0.166  15.054  3.5919  0.1544 -0.7418
 1248TIP3   OH227938   1.885   6.106  17.123  0.0248 -0.1574  0.0215
 1248TIP3    H127939   1.858   6.014  17.125  1.2300 -0.6886 -2.7358
 1248TIP3    H227940   1.806   6.154  17.149 -2.2608 -1.8318 -3.0764
 1249TIP3   OH227941   3.868   6.162  17.088  0.0849  0.3936 -0.0646
 1249TIP3    H127942   3.896   6.234  17.144 -0.5231  0.0093  0.7631
 1249TIP3    H227943   3.826   6.204  17.013  2.6653  0.9807 -1.2806
 1250TIP3   OH227944   3.162   2.594  14.585  0.0077 -0.9115 -0.2033
 1250TIP3    H127945   3.084   2.563  14.631  0.5541 -1.8316  0.1431
 1250TIP3    H227946   3.224   2.614  14.656  0.0401 -0.0528 -0.4682
 1251TIP3   OH227947   4.694   4.458  15.624 -0.0642 -0.2861  0.2625
 1251TIP3    H127948   4.760   4.514  15.664 -0.0880 -0.4113  0.4794
 1251TIP3    H227949   4.723   4.369  15.644 -1.3972 -0.3518  2.2048
 1252TIP3   OH227950   3.391   1.859  16.228 -0.0193  0.2951 -0.4937
 1252TIP3    H127951   3.326   1.833  16.294 -1.0609 -1.4235 -2.0830
 1252TIP3    H227952   3.462   1.795  16.238  0.3928  0.7822 -0.2557
 1253TIP3   OH227953   5.415   3.905  15.462 -0.2066  0.4797  0.1333
 1253TIP3    H127954   5.391   3.947  15.380 -1.2692  0.7067  0.5487
 1253TIP3    H227955   5.510   3.913  15.465 -0.1625  0.6067 -0.9958
 1254TIP3   OH227956   1.317   6.482  17.189  0.3759  0.0760 -0.3033
 1254TIP3    H127957   1.241   6.514  17.141  0.3828 -1.0296 -1.0767
 1254TIP3    H227958   1.377   6.556  17.190  0.4847  0.0654 -2.2415
 1255TIP3   OH227959   0.270   2.494  17.047 -0.2493 -0.1866  0.2849
 1255TIP3    H127960   0.244   2.533  17.131  0.8954 -1.9117  1.4888
 1255TIP3    H227961   0.364   2.511  17.040 -0.3357 -0.0295 -0.6953
 1256TIP3   OH227962   0.686   6.347  15.049 -0.3769  0.0178  0.3625
 1256TIP3    H127963   0.751   6.348  14.979  0.5052 -0.2906  1.1485
 1256TIP3    H227964   0.698   6.430  15.095 -0.6499  0.0311  0.4134
 1257TIP3   OH227965   0.352   3.243  15.620 -0.0937 -0.4652  0.3646
 1257TIP3    H127966   0.361   3.336  15.640 -0.2168 -0.4917  0.5482
 1257TIP3    H227967   0.291   3.241  15.546  1.2546 -0.2975 -0.7928
 1258TIP3   OH227968   3.367   4.291  16.593  0.2752  0.5596  0.3573
 1258TIP3    H127969   3.457   4.266  16.570 -0.3204 -1.5875  0.1776
 1258TIP3    H227970   3.369   4.302  16.688  0.3217 -1.5291  0.6423
 1259TIP3   OH227971   3.750   4.446  14.619  0.4820 -0.0067 -0.2906
 1259TIP3    H127972   3.821   4.393  14.656  0.6283 -0.8908 -1.7352
 1259TIP3    H227973   3.725   4.399  14.539  0.1421  1.7428 -1.2632
 1260TIP3   OH227974   0.110   3.697  16.258 -0.2647 -0.4637 -0.1982
 1260TIP3    H127975   0.126   3.791  16.253 -2.4713 -0.0102  0.4319
 1260TIP3    H227976   0.106   3.678  16.352  0.7325 -1.3144 -0.3127
 1261TIP3   OH227977   0.067   5.154  16.662  0.1970 -0.1908  0.3478
 1261TIP3    H127978  -0.021   5.135  16.695  1.3250 -3.1872  1.9969
 1261TIP3    H227979   0.095   5.230  16.712 -0.1105 -1.4880  2.6129
 1262TIP3   OH227980   4.122   3.285  16.914  0.1746  0.3225 -0.2969
 1262TIP3    H127981   4.105   3.192  16.899  0.3734  0.5259 -1.9779
 1262TIP3    H227982   4.041   3.329  16.888 -0.1976  0.5869  1.2368
 1263TIP3   OH227983   0.530   1.182  15.647  0.0987  0.3349  0.5366
 1263TIP3    H127984   0.528   1.277  15.649  2.6415  0.4477  0.9709
 1263TIP3    H227985   0.497   1.155  15.733 -1.3300  0.7263  0.1520
 1264TIP3   OH227986   3.256   2.295  15.442 -0.5384  0.8366 -0.2245
 1264TIP3    H127987   3.277   2.388  15.456  0.5360  0.3974  1.2896
 1264TIP3    H227988   3.308   2.249  15.507  0.1989 -0.9737 -1.9972
 1265TIP3   OH227989   2.873   1.440  14.550  0.2459 -0.5954 -0.4993
 1265TIP3    H127990   2.905   1.492  14.624  1.2675  0.9412 -1.9436
 1265TIP3    H227991   2.949   1.432  14.492 -0.9959 -0.1320 -2.2610
 1266TIP3   OH227992   3.124   2.995  16.725  0.6946 -0.7506 -0.5832
 1266TIP3    H127993   3.078   2.966  16.804 -0.5951  0.5655 -0.8100
 1266TIP3    H227994   3.055   3.003  16.659  0.8677  2.7248 -0.5401
 1267TIP3   OH227995   2.210   1.162  17.865 -0.0018 -0.8044  0.2648
 1267TIP3    H127996   2.157   1.115  17.801  1.3008  0.3212 -1.7159
 1267TIP3    H227997   2.250   1.092  17.918  0.4883 -1.8815 -1.4468
 1268TIP3   OH227998   3.070   4.988  17.096 -0.2315 -0.4147 -0.3771
 1268TIP3    H127999   3.060   4.948  17.010  1.3499  0.4987 -1.0346
 1268TIP3    H228000   3.162   4.973  17.119 -0.5767 -0.4623  1.0761
 1269TIP3   OH228001   4.045   1.273  14.986 -0.4524 -0.3533  0.0908
 1269TIP3    H128002   4.126   1.280  14.936 -1.0520 -0.5430 -0.9233
 1269TIP3    H228003   3.990   1.214  14.935 -1.6929  0.7057  0.1415
 1270TIP3   OH228004   6.011   1.063  16.701  0.6200  0.2094  0.1228
 1270TIP3    H128005   5.985   0.972  16.682  0.0578  0.2189  0.8150
 1270TIP3    H228006   6.106   1.059  16.708  0.5727 -0.4071  0.5318
 1271TIP3   OH228007   5.949   5.863  14.910 -0.1121 -0.3614 -0.2120
 1271TIP3    H128008   5.863   5.822  14.903 -0.3896  0.1415  0.1836
 1271TIP3    H228009   6.002   5.819  14.844 -0.4785 -1.1563  0.0126
 1272TIP3   OH228010   4.594   4.968  17.993 -0.2395  0.3035  0.5556
 1272TIP3    H128011   4.669   4.923  18.032 -0.3162  1.6406  2.3792
 1272TIP3    H228012   4.629   5.053  17.964 -0.5835  0.0421 -0.6814
 1273TIP3   OH228013   5.728   4.823  16.444  0.0131  0.6724  0.6127
 1273TIP3    H128014   5.807   4.803  16.496  1.3112 -0.2487 -1.5707
 1273TIP3    H228015   5.701   4.909  16.475  2.2832  1.3233  1.0055
 1274TIP3   OH228016   2.644   1.105  15.733 -0.0565  0.4787 -0.4537
 1274TIP3    H128017   2.660   1.190  15.773  1.6900 -0.3766  0.8198
 1274TIP3    H228018   2.663   1.118  15.640  0.6438  1.3846 -0.2005
 1275TIP3   OH228019   0.327   1.794  17.340  0.2627  0.2142 -0.3440
 1275TIP3    H128020   0.331   1.705  17.373  0.5260  0.3750  0.0608
 1275TIP3    H228021   0.366   1.847  17.409  1.6961  0.4391 -1.2742
 1276TIP3   OH228022   0.516   6.361  16.319  0.7729  0.1171  0.3044
 1276TIP3    H128023   0.560   6.411  16.250  1.0537 -0.3293  0.1472
 1276TIP3    H228024   0.431   6.402  16.328  0.0786 -0.7847 -1.4737
 1277TIP3   OH228025   2.527   0.934  14.772 -0.6478  0.5105 -0.1763
 1277TIP3    H128026   2.600   0.872  14.769  0.8083  2.1731 -0.5334
 1277TIP3    H228027   2.514   0.960  14.681 -0.2801  1.7723  0.1135
 1278TIP3   OH228028   2.984   2.918  17.459 -0.8734 -0.4537  0.3665
 1278TIP3    H128029   3.067   2.875  17.436 -0.4694  0.0895  0.7652
 1278TIP3    H228030   3.011   3.006  17.486 -1.7324  0.3401 -1.1955
 1279TIP3   OH228031   1.381   6.266  16.646  0.1414  0.1323  0.0060
 1279TIP3    H128032   1.384   6.172  16.668  0.7810  0.1539  0.0261
 1279TIP3    H228033   1.367   6.268  16.552 -1.8371  0.0349  0.2412
 1280TIP3   OH228034   4.972   3.857  17.147  0.0429  0.0127 -0.0588
 1280TIP3    H128035   5.052   3.832  17.192 -0.7180 -0.8829  0.8559
 1280TIP3    H228036   4.902   3.825  17.204 -0.9660  0.6734 -0.8898
 1281TIP3   OH228037   6.384   4.124  16.442  0.1500 -0.0989  0.1619
 1281TIP3    H128038   6.473   4.100  16.470  0.9060  0.6067 -1.5116
 1281TIP3    H228039   6.329   4.101  16.517  1.7075 -0.7370  1.1749
 1282TIP3   OH228040   1.405   5.434  14.464 -0.5465 -0.0085  0.0398
 1282TIP3    H128041   1.472   5.409  14.527 -0.3929  0.9032  0.2470
 1282TIP3    H228042   1.451   5.436  14.380 -0.2651  0.8093  0.2106
 1283TIP3   OH228043   3.618   6.527  16.226  0.2918 -0.6815  0.1328
 1283TIP3    H128044   3.612   6.612  16.182 -0.5610  0.1245  1.7247
 1283TIP3    H228045   3.528   6.498  16.234  0.6616 -3.0024 -2.6019
 1284TIP3   OH228046   1.455   1.006  14.943  0.3798 -0.5920 -0.0146
 1284TIP3    H128047   1.415   0.919  14.932 -1.2112  0.4050 -4.8611
 1284TIP3    H228048   1.398   1.050  15.006 -0.6047 -2.1191  0.2311
 1285TIP3   OH228049   4.230   4.402  15.329  0.0397  0.1775 -0.2023
 1285TIP3    H128050   4.305   4.462  15.333  1.5428 -1.5415 -1.4021
 1285TIP3    H228051   4.247   4.338  15.399 -0.3099 -0.2137 -0.4727
 1286TIP3   OH228052   5.422   1.508  14.914  0.2804 -0.4382 -0.1701
 1286TIP3    H128053   5.453   1.598  14.908 -0.2641 -0.0357  2.0171
 1286TIP3    H228054   5.393   1.486  14.826  0.2202  1.6018 -0.6974
 1287TIP3   OH228055   1.859   0.313  16.324  0.2564 -0.1861  0.2283
 1287TIP3    H128056   1.954   0.304  16.336  0.3184 -1.1011 -0.8214
 1287TIP3    H228057   1.822   0.262  16.396  0.5145  1.0386  1.2872
 1288TIP3   OH228058   5.379   3.370  17.563  0.2444 -0.1583  0.1032
 1288TIP3    H128059   5.293   3.329  17.577  0.6555 -0.8647  0.6726
 1288TIP3    H228060   5.413   3.385  17.651  1.1483 -0.8706 -0.1037
 1289TIP3   OH228061   5.726   6.538  13.956 -0.0577  0.5916  0.1341
 1289TIP3    H128062   5.684   6.484  13.889  0.5578  1.1862 -0.7540
 1289TIP3    H228063   5.756   6.475  14.022 -0.7125  0.0032 -0.1125
 1290TIP3   OH228064   6.245   1.060  14.931 -0.7818  0.0341  0.4657
 1290TIP3    H128065   6.206   1.141  14.965  0.4110  0.6276  0.4774
 1290TIP3    H228066   6.171   1.000  14.922 -2.2662  2.0940 -2.5289
 1291TIP3   OH228067   2.968   6.283  15.673  0.3242  0.1733 -0.0065
 1291TIP3    H128068   2.938   6.196  15.699  1.4613 -0.2790 -0.1378
 1291TIP3    H228069   2.991   6.326  15.755  0.8198 -0.0678 -0.0135
 1292TIP3   OH228070   4.325   1.856  14.852 -0.0939 -0.4003  0.0888
 1292TIP3    H128071   4.417   1.841  14.831  0.7824 -2.2302  4.2329
 1292TIP3    H228072   4.323   1.945  14.888  0.1631 -0.5428  0.4591
 1293TIP3   OH228073   2.446   1.720  14.688 -0.4295  0.5506 -0.3502
 1293TIP3    H128074   2.374   1.781  14.670 -0.3404  0.9149  0.4905
 1293TIP3    H228075   2.481   1.749  14.772  1.0526  0.6979 -0.9946
 1294TIP3   OH228076   1.301   0.765  16.214  0.1907  0.1740 -0.6814
 1294TIP3    H128077   1.209   0.783  16.234  0.2685 -0.2801  0.1579
 1294TIP3    H228078   1.348   0.793  16.293  0.7436  0.1561 -1.0010
 1295TIP3   OH228079   1.522   2.380  15.886 -0.0112 -0.1536  0.0944
 1295TIP3    H128080   1.567   2.444  15.830 -1.0596  0.1578 -0.4074
 1295TIP3    H228081   1.435   2.372  15.849 -0.3853 -0.7545  1.0615
 1296TIP3   OH228082   4.519   4.918  15.638  0.1953 -0.0636 -0.2831
 1296TIP3    H128083   4.490   4.980  15.571 -1.3816 -0.7064 -0.2552
 1296TIP3    H228084   4.438   4.878  15.670  0.9947 -0.5414  1.2659
 1297TIP3   OH228085   4.735   2.618  15.385  0.3722  0.0109  0.1945
 1297TIP3    H128086   4.684   2.636  15.306  2.5659 -0.3267 -1.3731
 1297TIP3    H228087   4.686   2.548  15.429 -1.4049  0.8817 -0.2973
 1298TIP3   OH228088   1.843   0.466  17.625 -0.3338 -0.1309 -0.0715
 1298TIP3    H128089   1.917   0.523  17.643  0.7497 -1.2682 -0.8259
 1298TIP3    H228090   1.875   0.378  17.642 -2.1768 -0.5369  1.7300
 1299TIP3   OH228091   5.824   4.036  17.471 -0.8612 -0.0838 -0.3535
 1299TIP3    H128092   5.811   3.943  17.451 -0.6535 -0.0776 -0.5240
 1299TIP3    H228093   5.917   4.043  17.492 -1.4060 -0.4358  2.5113
 1300TIP3   OH228094   6.287   5.696  16.945 -0.4818  0.6794  0.8627
 1300TIP3    H128095   6.353   5.754  16.981  0.7792  0.1294 -0.4808
 1300TIP3    H228096   6.204   5.741  16.961  0.4901  3.2262 -0.7878
 1301TIP3   OH228097   1.551   4.272  16.320 -0.6237 -0.0719  0.5696
 1301TIP3    H128098   1.484   4.204  16.315  0.0157 -0.6749  0.1107
 1301TIP3    H228099   1.505   4.352  16.294 -0.9484 -0.6431 -0.7021
 1302TIP3   OH228100   4.748   5.740  17.046 -0.2583 -0.7377 -0.0778
 1302TIP3    H128101   4.687   5.795  16.997 -0.6748 -1.5688 -0.5146
 1302TIP3    H228102   4.743   5.772  17.136 -0.7081 -0.2527 -0.2687
 1303TIP3   OH228103   4.810   5.061  15.972  0.0588  0.2637 -0.4963
 1303TIP3    H128104   4.754   4.984  15.962  1.0497 -0.6472  0.6296
 1303TIP3    H228105   4.756   5.123  16.020  0.5746 -1.3609  2.4297
 1304TIP3   OH228106   4.170   2.426  16.579  0.1241  0.1968  0.7020
 1304TIP3    H128107   4.259   2.392  16.586  0.2944  0.7479  1.4697
 1304TIP3    H228108   4.116   2.361  16.624  0.0046 -0.5756 -0.5304
 1305TIP3   OH228109   1.367   5.917  15.024 -0.3072 -0.3960 -0.4781
 1305TIP3    H128110   1.414   5.963  14.953  0.0062  1.1061  0.6459
 1305TIP3    H228111   1.349   5.986  15.088  0.4579 -1.9124  1.4512
 1306TIP3   OH228112   6.047   5.885  17.046  0.1580 -0.0901 -0.1780
 1306TIP3    H128113   6.055   5.963  16.991 -1.7930  0.4731  0.2431
 1306TIP3    H228114   6.076   5.914  17.133 -0.9775  0.3227  0.0780
 1307TIP3   OH228115   3.742   2.656  16.262  0.2549  0.8862  0.1287
 1307TIP3    H128116   3.737   2.650  16.358  0.0756 -0.8940  0.0469
 1307TIP3    H228117   3.692   2.580  16.231 -0.0697  1.6885 -1.3945
 1308TIP3   OH228118   3.379   2.843  17.970  0.5157 -0.0864 -0.3435
 1308TIP3    H128119   3.296   2.796  17.976  0.8339 -1.1355 -2.8321
 1308TIP3    H228120   3.445   2.774  17.965  1.5139  0.7256  1.0242
 1309TIP3   OH228121   5.448   0.404  16.779 -0.4378  0.0548 -0.1664
 1309TIP3    H128122   5.415   0.314  16.773 -1.6771  0.4350  0.5016
 1309TIP3    H228123   5.486   0.410  16.867  1.4288 -0.3535 -0.9010
 1310TIP3   OH228124   6.177   5.708  15.319  0.3503 -0.5453 -0.2086
 1310TIP3    H128125   6.129   5.695  15.401 -0.0440 -1.6948 -0.6083
 1310TIP3    H228126   6.268   5.685  15.340  0.4953  0.3188  0.1929
 1311TIP3   OH228127   6.395   1.212  16.938  0.0645 -0.1154  0.4697
 1311TIP3    H128128   6.476   1.204  16.990  0.3687  1.0182  0.2026
 1311TIP3    H228129   6.401   1.298  16.898 -0.6509 -0.5665 -0.6549
 1312TIP3   OH228130   5.188   2.689  16.568  0.2332  0.0464 -0.8468
 1312TIP3    H128131   5.148   2.764  16.523  1.0778  0.1192 -1.4947
 1312TIP3    H228132   5.119   2.622  16.567 -0.3741  0.6634 -0.6554
 1313TIP3   OH228133   6.246   5.042  16.289  0.2918  0.0166 -0.7855
 1313TIP3    H128134   6.307   4.972  16.263 -1.0955 -1.2892 -0.6601
 1313TIP3    H228135   6.176   4.996  16.336 -1.0712  1.3981 -1.3995
 1314TIP3   OH228136   3.071   4.285  15.999 -0.3724 -0.4871  0.4385
 1314TIP3    H128137   3.036   4.216  15.943 -0.7822 -0.0031  0.0801
 1314TIP3    H228138   3.112   4.347  15.938 -0.3313 -0.2364  0.7170
 1315TIP3   OH228139   5.155   4.786  16.781 -0.3496  0.9490 -0.2239
 1315TIP3    H128140   5.117   4.860  16.829 -1.3001  0.7392 -0.6206
 1315TIP3    H228141   5.166   4.818  16.691  0.5064  1.0292 -0.0999
 1316TIP3   OH228142   3.430   0.918  17.985  0.5091 -0.4994 -0.4179
 1316TIP3    H128143   3.376   0.940  18.060  0.1109  1.4644 -1.2222
 1316TIP3    H228144   3.386   0.843  17.944 -0.9163  0.2694 -0.3413
 1317TIP3   OH228145   5.253   5.317  16.293 -0.0846  0.1821  0.0266
 1317TIP3    H128146   5.311   5.256  16.247  1.1857 -0.9480  2.9163
 1317TIP3    H228147   5.297   5.402  16.286  2.2723 -0.7096  2.4622
 1318TIP3   OH228148   2.786   2.149  16.828  0.4599  0.0205  0.2256
 1318TIP3    H128149   2.691   2.136  16.836  0.0479 -0.2064 -3.2247
 1318TIP3    H228150   2.824   2.082  16.884 -1.5375 -2.6379 -1.3042
 1319TIP3   OH228151   3.713   4.953  15.199  0.4936 -0.5619 -0.1227
 1319TIP3    H128152   3.702   5.021  15.133 -0.9942 -1.4221 -0.7918
 1319TIP3    H228153   3.806   4.931  15.195  0.5259 -0.2550 -1.5814
 1320TIP3   OH228154   5.659   3.682  16.363 -0.0716  0.3404 -0.3089
 1320TIP3    H128155   5.620   3.678  16.451 -0.4285  1.0781 -0.4300
 1320TIP3    H228156   5.655   3.592  16.331 -0.7836  0.2330  0.0708
 1321TIP3   OH228157   5.627   6.317  14.500  0.1785  0.1276  0.0027
 1321TIP3    H128158   5.716   6.315  14.465 -0.0944 -1.3660 -0.7007
 1321TIP3    H228159   5.583   6.242  14.459 -0.8517 -0.2954  1.7478
 1322TIP3   OH228160   2.115   0.574  15.951  0.2402 -0.3856 -0.5163
 1322TIP3    H128161   2.167   0.531  16.019  1.0521  1.5460  0.1510
 1322TIP3    H228162   2.122   0.667  15.971 -2.2392  0.0463 -1.3256
 1323TIP3   OH228163   2.785   5.094  15.433  0.0545 -0.3166 -1.2942
 1323TIP3    H128164   2.877   5.072  15.420  0.8502  1.9030  0.1101
 1323TIP3    H228165   2.769   5.167  15.372  0.2044  1.4673  0.6912
 1324TIP3   OH228166   1.613   5.923  17.035  0.1564  0.7527 -0.1411
 1324TIP3    H128167   1.647   5.835  17.051  0.4527  0.7261 -0.8642
 1324TIP3    H228168   1.657   5.978  17.099 -0.5238  0.2763  0.7570
 1325TIP3   OH228169   1.774   6.603  15.998 -0.3725  0.4506 -0.1554
 1325TIP3    H128170   1.741   6.538  15.936 -2.0056 -0.8197  1.8710
 1325TIP3    H228171   1.833   6.658  15.947  0.5726 -2.1978 -2.1434
 1326TIP3   OH228172   1.411   2.553  16.072  0.1223  0.4218 -0.2361
 1326TIP3    H128173   1.461   2.499  16.012  1.8436  0.2992  1.2309
 1326TIP3    H228174   1.380   2.626  16.019  0.7538 -0.1758 -1.4669
 1327TIP3   OH228175   0.643   5.399  17.760 -0.5424 -0.1074  0.1622
 1327TIP3    H128176   0.702   5.474  17.756 -0.4893 -0.1574 -0.0251
 1327TIP3    H228177   0.686   5.337  17.818 -0.7645  0.1594  0.6168
 1328TIP3   OH228178   1.694   1.957  16.133 -0.0487  0.2607 -0.3448
 1328TIP3    H128179   1.631   1.997  16.193  1.5710  1.6292  0.5155
 1328TIP3    H228180   1.736   2.031  16.089  0.7305 -0.6276 -1.1484
 1329TIP3   OH228181   3.021   0.705  18.191  0.3920 -0.2960 -0.1066
 1329TIP3    H128182   3.072   0.696  18.110 -0.8301 -0.9119 -0.8377
 1329TIP3    H228183   3.083   0.742  18.254  1.8025 -1.1800 -0.9009
 1330TIP3   OH228184   0.762   1.948  17.023 -0.0684 -0.0986 -0.5782
 1330TIP3    H128185   0.827   1.889  16.985  1.0277  0.4462  0.3529
 1330TIP3    H228186   0.762   1.926  17.117 -0.0562  0.9769 -0.3113
 1331TIP3   OH228187   3.170   2.452  16.502  0.5247 -0.1195  0.2741
 1331TIP3    H128188   3.188   2.546  16.511 -1.5182  0.3498  0.1152
 1331TIP3    H228189   3.186   2.434  16.409 -0.3127  0.4061  0.0104
 1332TIP3   OH228190   2.324   3.261  16.716  0.0718  0.3489  0.2137
 1332TIP3    H128191   2.257   3.321  16.684 -0.2504 -0.5134 -0.8167
 1332TIP3    H228192   2.335   3.198  16.645  0.0819 -1.0571  1.4087
 1333TIP3   OH228193   6.073   1.698  16.736  0.1164 -0.1944  0.3174
 1333TIP3    H128194   6.010   1.722  16.804 -1.1444 -2.4950  0.0637
 1333TIP3    H228195   6.094   1.606  16.754  0.9643 -0.3887 -1.4631
 1334TIP3   OH228196   5.795   3.528  17.686 -0.0600  0.0760 -0.1112
 1334TIP3    H128197   5.792   3.590  17.759  0.2831 -0.7157  0.6105
 1334TIP3    H228198   5.720   3.550  17.632 -1.8551 -0.8953  1.8406
 1335TIP3   OH228199   5.799   3.716  17.068  0.1349 -0.3119 -0.2046
 1335TIP3    H128200   5.729   3.666  17.111 -0.5757  1.2426  0.5304
 1335TIP3    H228201   5.876   3.701  17.123 -0.0459 -0.6651 -0.0402
 1336TIP3   OH228202   2.533   2.927  16.420 -0.0677  0.3337 -0.2769
 1336TIP3    H128203   2.580   2.883  16.490 -1.8171 -0.4870  0.4271
 1336TIP3    H228204   2.506   2.857  16.361 -1.8961  0.5397  0.2534
 1337TIP3   OH228205   2.585   3.854  15.393 -0.5703  0.1112 -0.7073
 1337TIP3    H128206   2.611   3.910  15.467  1.3196 -0.1742 -1.1011
 1337TIP3    H228207   2.538   3.912  15.334 -1.8924  0.4081  0.5537
 1338TIP3   OH228208   6.168   5.971  15.028 -0.4507  0.5988 -0.0854
 1338TIP3    H128209   6.099   5.936  14.971  0.5932 -2.2510  0.2575
 1338TIP3    H228210   6.233   5.901  15.034  0.8888  1.9023  2.2826
 1339TIP3   OH228211   0.304   1.954  16.832  0.4827  0.7419  0.3205
 1339TIP3    H128212   0.297   1.861  16.811  1.8321  0.6810  0.0488
 1339TIP3    H228213   0.214   1.982  16.848 -0.0010 -0.4718 -0.1729
 1340TIP3   OH228214   0.986   5.850  16.362 -0.0631 -0.0417  0.8811
 1340TIP3    H128215   0.892   5.860  16.370 -0.1199 -0.6985  1.0293
 1340TIP3    H228216   1.021   5.871  16.449  0.0228  1.2284  0.5603
 1341TIP3   OH228217   5.811   4.095  17.045  0.0685  0.3880  0.3210
 1341TIP3    H128218   5.896   4.081  17.087  1.1266  2.5175 -0.9533
 1341TIP3    H228219   5.821   4.058  16.958 -1.2115 -1.5671  0.9380
 1342TIP3   OH228220   2.297   4.148  16.135  0.7494 -0.4986  0.1144
 1342TIP3    H128221   2.299   4.194  16.219  0.7503  0.1749 -0.2429
 1342TIP3    H228222   2.376   4.178  16.090  0.6900 -0.7675 -0.1718
 1343TIP3   OH228223   5.541   1.732  15.334  0.8446  0.3661 -0.5383
 1343TIP3    H128224   5.540   1.815  15.287  3.1350  0.6299 -0.2772
 1343TIP3    H228225   5.535   1.757  15.426 -0.6053  0.0608 -0.5300
 1344TIP3   OH228226   4.458   2.017  17.522 -0.0480  0.1674  0.2945
 1344TIP3    H128227   4.495   2.082  17.462  1.1997 -0.5491  0.2506
 1344TIP3    H228228   4.502   2.034  17.605 -0.4565  0.0060  0.5457
 1345TIP3   OH228229   2.222   3.312  17.881  0.4354  0.5118  0.2779
 1345TIP3    H128230   2.249   3.303  17.789  0.8946  2.1788  0.2067
 1345TIP3    H228231   2.187   3.401  17.887 -1.2540 -0.1730  1.3426
 1346TIP3   OH228232   3.560   1.743  17.278  0.7943  0.1783  0.3200
 1346TIP3    H128233   3.604   1.703  17.203  1.4157  0.5708  0.4702
 1346TIP3    H228234   3.485   1.789  17.241 -0.4690 -1.8040  0.2135
 1347TIP3   OH228235   2.910   4.764  15.403 -0.1345 -0.3299  0.3243
 1347TIP3    H128236   2.920   4.834  15.468  1.3519  0.2439 -0.4690
 1347TIP3    H228237   2.911   4.809  15.319  0.2226 -1.2405 -0.1746
 1348TIP3   OH228238   0.880   1.790  17.587  0.1131  1.0252  0.0888
 1348TIP3    H128239   0.917   1.865  17.634 -0.3220  0.1939  1.8202
 1348TIP3    H228240   0.950   1.725  17.587 -0.4815  0.3719  1.1581
 1349TIP3   OH228241   0.238   2.330  16.337 -0.6394  0.2333 -0.4588
 1349TIP3    H128242   0.251   2.388  16.262 -1.3598  0.7347 -0.2029
 1349TIP3    H228243   0.203   2.387  16.405 -0.9729 -0.4312 -0.0688
 1350TIP3   OH228244   4.543   3.345  16.892 -0.1795 -0.0897  0.1405
 1350TIP3    H128245   4.604   3.294  16.945 -1.0452 -1.6546 -0.2749
 1350TIP3    H228246   4.498   3.279  16.839  0.3148  1.3403 -2.1974
 1351TIP3   OH228247   5.807   3.267  18.260  0.0566  0.4422  0.2075
 1351TIP3    H128248   5.869   3.330  18.223  0.0694  0.6052  0.4988
 1351TIP3    H228249   5.851   3.234  18.339 -1.0479  2.0633  1.5642
 1352TIP3   OH228250   1.081   5.407  16.057 -0.4450  0.0829  0.3450
 1352TIP3    H128251   1.095   5.487  16.007 -0.4290 -0.8749 -1.2295
 1352TIP3    H228252   1.057   5.341  15.992 -0.2839 -1.2438  1.5737
 1353TIP3   OH228253   5.416   5.000  16.366  0.1866 -0.4429 -0.0600
 1353TIP3    H128254   5.393   5.089  16.393 -0.4523 -0.6016 -0.0679
 1353TIP3    H228255   5.467   5.012  16.286  0.3697 -0.0699  0.1107
 1354TIP3   OH228256   4.823   1.524  17.353  0.2224  0.0443  0.1685
 1354TIP3    H128257   4.752   1.552  17.411  0.7684  0.2637  0.7567
 1354TIP3    H228258   4.793   1.440  17.317 -0.3991  0.2122  0.2804
 1355TIP3   OH228259   6.579   4.114  18.027  0.1860 -0.2299 -0.3685
 1355TIP3    H128260   6.506   4.137  18.085 -0.4333 -0.6016 -0.9863
 1355TIP3    H228261   6.569   4.174  17.952 -1.2503 -2.1804 -1.8459
 1356TIP3   OH228262   5.297   1.997  16.167 -0.3883  0.1745 -0.2230
 1356TIP3    H128263   5.372   2.027  16.218  0.4241  1.0049 -1.8393
 1356TIP3    H228264   5.227   1.986  16.231  0.3837  1.8568  0.9703
 1357TIP3   OH228265   3.731   1.289  17.362  0.2591 -0.1276 -0.1502
 1357TIP3    H128266   3.711   1.310  17.453 -0.4559  1.3282 -0.6051
 1357TIP3    H228267   3.704   1.198  17.352 -0.8559  0.0728  0.7667
 1358TIP3   OH228268   2.765   5.053  14.177 -0.2674  0.2011  0.9417
 1358TIP3    H128269   2.698   5.119  14.161  0.3338  0.4212 -0.8359
 1358TIP3    H228270   2.833   5.070  14.112  0.2999 -1.6511  0.9705
 1359TIP3   OH228271   6.534   4.620  16.971  0.2428 -0.4602 -0.4616
 1359TIP3    H128272   6.560   4.701  17.014 -0.7455 -0.1975 -0.3427
 1359TIP3    H228273   6.515   4.560  17.042  0.3165 -0.5875 -0.5484
 1360TIP3   OH228274   5.545   5.474  17.726  0.2650 -0.0197  0.5799
 1360TIP3    H128275   5.473   5.411  17.720  0.0483  0.3566 -1.2308
 1360TIP3    H228276   5.562   5.500  17.636  1.4219  1.3223  1.1482
 1361TIP3   OH228277   5.492   6.009  16.442 -0.0450  0.2126 -0.7215
 1361TIP3    H128278   5.415   6.015  16.499  0.0792  0.4176 -0.5721
 1361TIP3    H228279   5.516   6.100  16.424 -0.4034  0.1488 -1.5434
 1362TIP3   OH228280   5.262   6.469  17.507 -0.2085  0.0045  0.2635
 1362TIP3    H128281   5.337   6.486  17.451 -0.7328  0.8760 -0.1994
 1362TIP3    H228282   5.188   6.509  17.461 -1.0835 -1.4036  0.3846
 1363TIP3   OH228283   2.352   2.917  15.479 -0.0834  0.0003  0.4923
 1363TIP3    H128284   2.307   3.002  15.487 -1.3416 -0.2509 -2.5846
 1363TIP3    H228285   2.444   2.937  15.498 -0.6138  1.6712  1.5587
 1364TIP3   OH228286   5.349   0.291  15.574  0.0685 -0.0136 -0.6391
 1364TIP3    H128287   5.418   0.238  15.532 -1.1529 -1.9045 -0.3677
 1364TIP3    H228288   5.366   0.282  15.667 -0.7276 -0.7973 -0.5575
 1365TIP3   OH228289   5.724   5.889  16.509 -0.1189 -0.1405  0.5518
 1365TIP3    H128290   5.639   5.930  16.491  0.2408  0.9024  1.1546
 1365TIP3    H228291   5.773   5.900  16.428  0.2531  1.3914  0.9407
 1366TIP3   OH228292   1.729   1.337  17.866 -0.7795  0.1231 -0.0715
 1366TIP3    H128293   1.658   1.399  17.850  0.2940  1.1442 -1.0438
 1366TIP3    H228294   1.765   1.362  17.951 -1.6750 -0.5154  0.5114
 1367TIP3   OH228295   4.426   4.241  17.755 -0.6330 -0.2480 -0.0886
 1367TIP3    H128296   4.490   4.278  17.694 -0.2772  0.1562  0.5195
 1367TIP3    H228297   4.371   4.315  17.779 -0.8701 -0.4390 -0.0381
 1368TIP3   OH228298   0.546   3.878  17.097  0.2554 -0.5881 -0.0670
 1368TIP3    H128299   0.612   3.845  17.157 -0.8789 -0.2355  1.4254
 1368TIP3    H228300   0.534   3.970  17.122  0.8246  0.0081 -1.8279
 1369TIP3   OH228301   5.416   0.001  16.412  0.2775 -0.3701  0.2304
 1369TIP3    H128302   5.480  -0.041  16.469 -0.2086 -1.1044  0.2436
 1369TIP3    H228303   5.333  -0.007  16.459  0.3980  2.0387  1.0018
 1370TIP3   OH228304   1.332   1.137  14.054  0.1512  0.1512  0.4984
 1370TIP3    H128305   1.385   1.058  14.045  0.6594  0.4779  0.5935
 1370TIP3    H228306   1.372   1.186  14.126  0.1561  0.7405  0.1073
 1371TIP3   OH228307   1.371   3.460  15.680  0.2160 -0.0149  0.4598
 1371TIP3    H128308   1.409   3.507  15.606  3.7922 -1.2109  1.3520
 1371TIP3    H228309   1.401   3.507  15.757 -1.1445 -0.3706  1.2399
 1372TIP3   OH228310   0.725   2.362  16.992 -0.4737 -0.5509  0.0128
 1372TIP3    H128311   0.757   2.370  17.082  1.8422  0.6700 -0.8658
 1372TIP3    H228312   0.648   2.419  16.990 -0.6166 -0.6622  1.2346
 1373TIP3   OH228313   4.197   5.640  16.688 -0.2216  0.0227  0.7787
 1373TIP3    H128314   4.125   5.587  16.723 -1.4843  0.7370 -0.6554
 1373TIP3    H228315   4.176   5.729  16.714 -0.0878  0.2945 -0.0238
 1374TIP3   OH228316   3.643   2.724  15.711 -0.2331  0.0657 -0.2821
 1374TIP3    H128317   3.727   2.749  15.750 -1.3163  0.4838  1.9624
 1374TIP3    H228318   3.618   2.799  15.657  0.0425  0.7055  0.4533
 1375TIP3   OH228319   6.509   1.673  15.817 -0.8612 -0.4183 -0.5098
 1375TIP3    H128320   6.602   1.686  15.798 -1.1796  1.8217 -0.7520
 1375TIP3    H228321   6.474   1.631  15.738 -0.4785  0.8562 -1.3842
 1376TIP3   OH228322   2.548   3.044  15.036 -0.3074  0.7664  0.7899
 1376TIP3    H128323   2.639   3.065  15.016  0.0463  0.1908  1.7476
 1376TIP3    H228324   2.546   2.949  15.044 -1.4399  0.5446 -1.3003
 1377TIP3   OH228325   1.100   0.515  17.083  0.2646 -0.8045 -0.2573
 1377TIP3    H128326   1.191   0.536  17.108  0.9465 -1.4700 -2.0343
 1377TIP3    H228327   1.048   0.540  17.160  1.6934  1.5975  0.0218
 1378TIP3   OH228328   3.301   5.222  17.517 -0.5147 -0.4252 -0.2034
 1378TIP3    H128329   3.224   5.235  17.573 -0.1822  0.1224  0.1406
 1378TIP3    H228330   3.357   5.298  17.536 -0.3857 -0.2413 -1.2603
 1379TIP3   OH228331   0.071   1.777  15.423 -0.3977 -0.1400 -0.8758
 1379TIP3    H128332   0.113   1.722  15.357 -0.8124  2.5540 -3.6079
 1379TIP3    H228333   0.011   1.832  15.373 -1.4510  1.4481  1.9255
 1380TIP3   OH228334   1.853   0.186  15.552  0.3566  0.1473 -0.7986
 1380TIP3    H128335   1.824   0.175  15.643  0.1900 -1.4735 -1.0207
 1380TIP3    H228336   1.851   0.098  15.515 -0.6122  0.9083 -2.7006
 1381TIP3   OH228337   5.322   3.134  17.188 -0.1100 -0.0757 -0.5736
 1381TIP3    H128338   5.248   3.079  17.165  1.4938 -1.8141 -1.9200
 1381TIP3    H228339   5.374   3.139  17.107  2.6266 -1.2428  0.9584
 1382TIP3   OH228340   2.723   4.553  15.418 -0.3431 -0.5433 -0.1606
 1382TIP3    H128341   2.768   4.469  15.417 -0.5750 -0.6688 -0.1163
 1382TIP3    H228342   2.789   4.616  15.389  0.4251 -0.4481  1.6662
 1383TIP3   OH228343   3.586   6.332  14.754 -0.2069  0.5532 -0.0575
 1383TIP3    H128344   3.609   6.250  14.709 -0.7411  0.1328  0.4304
 1383TIP3    H228345   3.495   6.349  14.727  0.0483  1.2318 -0.5178
 1384TIP3   OH228346   0.535   3.889  15.571 -0.4031  0.2966 -0.0120
 1384TIP3    H128347   0.619   3.935  15.568 -0.7738  0.9443 -3.0786
 1384TIP3    H228348   0.541   3.823  15.502 -2.1226 -0.2457  0.3038
 1385TIP3   OH228349   6.475   5.973  15.016 -0.4153  0.2848  0.0731
 1385TIP3    H128350   6.455   5.988  15.108  0.3320  1.4717  0.0594
 1385TIP3    H228351   6.442   5.885  14.998 -1.0840  0.2658  1.3189
 1386TIP3   OH228352   5.862   2.650  17.259  0.3050  0.5320 -0.1776
 1386TIP3    H128353   5.815   2.577  17.219 -1.2997  1.9983 -1.1049
 1386TIP3    H228354   5.949   2.616  17.277 -0.1205 -1.3335 -1.4090
 1387TIP3   OH228355   1.591   5.042  15.670  0.0675  0.4182  0.1269
 1387TIP3    H128356   1.519   5.081  15.719 -0.1576 -0.9062  0.8910
 1387TIP3    H228357   1.580   4.948  15.682  1.3851  0.1577 -0.5372
 1388TIP3   OH228358   1.018   4.448  17.841  0.3012 -0.3002  0.8649
 1388TIP3    H128359   0.965   4.415  17.913 -0.3145 -2.4892 -0.5034
 1388TIP3    H228360   0.988   4.539  17.830 -0.1743 -0.1842  2.7784
 1389TIP3   OH228361   4.388   2.563  17.355  0.0634  0.3732  0.0103
 1389TIP3    H128362   4.380   2.482  17.304 -0.9626 -1.3659  2.6996
 1389TIP3    H228363   4.312   2.615  17.329 -0.5387 -0.5516 -0.1271
 1390TIP3   OH228364   1.423   3.095  15.546  0.8165  0.1270 -0.1630
 1390TIP3    H128365   1.351   3.117  15.605  0.6655 -2.0870  0.5557
 1390TIP3    H228366   1.462   3.016  15.584  0.2983 -1.8237 -3.3027
 1391TIP3   OH228367   2.814   1.515  17.329  0.1105  0.5741  0.2112
 1391TIP3    H128368   2.798   1.560  17.246  0.4494  1.1629  0.4671
 1391TIP3    H228369   2.838   1.584  17.391  2.1285 -0.0971  0.2413
 1392TIP3   OH228370   3.184   4.743  16.755 -0.1316 -0.4479  0.0476
 1392TIP3    H128371   3.276   4.721  16.770 -0.1244 -0.2661  0.2966
 1392TIP3    H228372   3.136   4.665  16.781 -0.3226  0.7276  3.8773
 1393TIP3   OH228373   4.414   0.103  14.457  0.3601 -0.0746  0.2769
 1393TIP3    H128374   4.354   0.051  14.403 -0.8830  1.4166  0.1528
 1393TIP3    H228375   4.431   0.048  14.534 -1.5319 -0.3939  0.5243
 1394TIP3   OH228376   1.663   4.973  15.304  0.0008  0.0599 -0.2427
 1394TIP3    H128377   1.748   5.003  15.273  1.0174  0.6285  2.7492
 1394TIP3    H228378   1.610   5.053  15.308  0.2269  0.1778  0.4792
 1395TIP3   OH228379   4.924   0.361  14.692 -0.6750  0.0940  0.3520
 1395TIP3    H128380   4.835   0.376  14.662 -1.7636 -3.6318  1.1941
 1395TIP3    H228381   4.979   0.377  14.615 -2.4024 -0.4395 -1.0533
 1396TIP3   OH228382   1.250   1.505  16.900  0.4011 -0.8760 -0.5125
 1396TIP3    H128383   1.221   1.414  16.894  0.1495 -0.8304 -0.0316
 1396TIP3    H228384   1.169   1.556  16.902  0.4637 -0.7697  1.2123
 1397TIP3   OH228385   5.041   6.660  16.814  0.2847 -0.0303  0.4130
 1397TIP3    H128386   5.008   6.579  16.854  1.1488 -0.5238  0.1442
 1397TIP3    H228387   5.090   6.703  16.884 -2.1126  1.4992  1.3208
 1398TIP3   OH228388   5.233   2.442  17.811  0.2395  0.0278 -0.0722
 1398TIP3    H128389   5.295   2.370  17.799 -0.1460 -0.6078  1.4968
 1398TIP3    H228390   5.160   2.420  17.753 -0.1792 -1.2298  0.8938
 1399TIP3   OH228391   5.285   1.691  17.867 -0.8874 -0.2366  0.7020
 1399TIP3    H128392   5.301   1.621  17.804  0.0655 -0.1000  0.7749
 1399TIP3    H228393   5.214   1.657  17.922 -0.5022 -1.1175  0.6847
 1400TIP3   OH228394   1.247   4.547  15.600 -0.3792  0.0942  0.2344
 1400TIP3    H128395   1.237   4.537  15.505 -1.2640  2.8844 -0.0460
 1400TIP3    H228396   1.336   4.581  15.611  0.0166 -0.9979  0.5058
 1401TIP3   OH228397   3.705   2.957  16.091 -0.1139  0.5659 -0.5597
 1401TIP3    H128398   3.622   2.915  16.072  0.2073 -0.1393 -0.4502
 1401TIP3    H228399   3.715   2.948  16.186  0.8459 -0.8160 -0.7716
 1402TIP3   OH228400   6.362   4.752  16.284  0.1377 -0.3883 -0.1836
 1402TIP3    H128401   6.448   4.748  16.326 -0.7294 -0.5336  1.6748
 1402TIP3    H228402   6.354   4.669  16.237  1.6560  0.3221 -1.7816
 1403TIP3   OH228403   2.283   5.979  16.263 -0.1268 -0.1840 -0.3033
 1403TIP3    H128404   2.271   6.071  16.242 -0.9667 -0.0796  0.5808
 1403TIP3    H228405   2.251   5.970  16.352 -0.8666 -1.5021 -0.6686
 1404TIP3   OH228406   3.695   3.183  16.495 -0.3191 -0.5175  0.5669
 1404TIP3    H128407   3.705   3.262  16.442 -1.1842 -0.9307 -0.2405
 1404TIP3    H228408   3.665   3.116  16.433 -1.9195 -0.8841  1.6786
 1405TIP3   OH228409   6.455   1.730  17.134 -0.2974 -0.6733 -0.3238
 1405TIP3    H128410   6.414   1.746  17.049 -1.1049 -1.6152 -0.1234
 1405TIP3    H228411   6.397   1.774  17.197  0.6846  0.6538 -0.2947
 1406TIP3   OH228412   0.310   5.501  17.380 -0.0343 -0.0798 -0.1839
 1406TIP3    H128413   0.288   5.523  17.470  0.1733 -0.9229  0.0807
 1406TIP3    H228414   0.280   5.576  17.329 -0.3597  0.3036  0.5597
 1407TIP3   OH228415   1.634   1.155  14.794 -0.0686  0.5359  0.0768
 1407TIP3    H128416   1.593   1.093  14.854  1.7694  0.5193  1.3603
 1407TIP3    H228417   1.604   1.241  14.824 -0.9223  0.4155 -0.3943
 1408TIP3   OH228418   1.576   0.523  16.552  0.4598 -0.3681 -0.6103
 1408TIP3    H128419   1.488   0.536  16.586  0.3629 -0.0478 -0.9763
 1408TIP3    H228420   1.633   0.567  16.615  0.2796  0.2533 -0.8752
 1409TIP3   OH228421   5.958   1.781  17.450 -0.0520  0.3879  0.4640
 1409TIP3    H128422   5.933   1.691  17.430 -0.0432  0.4499  0.1676
 1409TIP3    H228423   6.053   1.778  17.457  0.0675  0.6179 -0.8342
 1410TIP3   OH228424   0.557   2.878  17.170 -0.0401  0.1874 -0.1074
 1410TIP3    H128425   0.642   2.921  17.183 -0.0392  0.7940 -1.7713
 1410TIP3    H228426   0.509   2.895  17.251  0.7199  1.5785  0.0952
 1411TIP3   OH228427   0.730   0.421  15.168 -0.0198  0.3512  0.1120
 1411TIP3    H128428   0.722   0.465  15.083  0.8815 -0.3364 -0.3494
 1411TIP3    H228429   0.652   0.449  15.216 -1.3258 -0.3958 -1.4544
 1412TIP3   OH228430   3.975   3.125  16.556 -0.1591 -0.0998 -0.1659
 1412TIP3    H128431   3.883   3.150  16.544 -0.1426 -0.7731 -2.0324
 1412TIP3    H228432   4.010   3.121  16.467  1.0326 -2.2166  0.3429
 1413TIP3   OH228433   5.269   0.345  17.599 -0.5138 -0.3770 -0.4389
 1413TIP3    H128434   5.188   0.373  17.643  0.7293 -0.8011  2.3135
 1413TIP3    H228435   5.319   0.425  17.587 -0.1261 -0.4534  0.5744
 1414TIP3   OH228436   6.089   6.232  16.371 -0.4412 -0.1462 -0.3518
 1414TIP3    H128437   6.020   6.264  16.313  2.0876  0.8699 -3.0106
 1414TIP3    H228438   6.093   6.297  16.441 -1.0164  0.7701 -1.1402
 1415TIP3   OH228439   1.693   0.977  17.261  0.0969  0.1054 -0.8399
 1415TIP3    H128440   1.673   0.931  17.179 -0.5781 -0.5115 -0.3454
 1415TIP3    H228441   1.607   0.994  17.300  0.4056  0.5211 -0.3319
 1416TIP3   OH228442   6.630   5.470  17.286 -0.4308  0.0865  0.4271
 1416TIP3    H128443   6.648   5.377  17.269  1.3238  0.3449  0.6703
 1416TIP3    H228444   6.645   5.480  17.380  1.3996  0.9807  0.0916
 1417TIP3   OH228445   3.907   6.569  15.396  0.1355 -0.5458  0.3523
 1417TIP3    H128446   3.894   6.521  15.314 -0.9591 -1.5507  1.0787
 1417TIP3    H228447   3.998   6.550  15.421 -0.2990 -2.4142  0.6882
 1418TIP3   OH228448   6.581   1.615  16.638 -0.5055 -0.1560  0.1859
 1418TIP3    H128449   6.507   1.644  16.586 -1.3761 -0.6236  1.1262
 1418TIP3    H228450   6.618   1.542  16.589 -0.3197  0.4144 -0.5496
 1419TIP3   OH228451   3.311   5.517  15.245  0.1778 -0.2261 -0.6602
 1419TIP3    H128452   3.396   5.532  15.203 -0.5519  0.8571 -1.8191
 1419TIP3    H228453   3.247   5.526  15.174 -1.1113  1.7573  0.6391
 1420TIP3   OH228454   6.342   6.374  17.428 -0.0302  0.1299  0.3154
 1420TIP3    H128455   6.394   6.406  17.355 -0.0441 -1.9756 -0.6739
 1420TIP3    H228456   6.345   6.279  17.421 -1.0001 -0.1192  2.3830
 1421TIP3   OH228457   5.836   5.628  16.499 -0.4984  0.1594 -0.0971
 1421TIP3    H128458   5.780   5.703  16.518 -2.2583 -1.2032  0.3401
 1421TIP3    H228459   5.895   5.659  16.430  0.5168  2.6756  1.7651
 1422TIP3   OH228460   2.455   5.927  17.222  0.5161 -0.1762  0.0765
 1422TIP3    H128461   2.467   5.833  17.237  1.2454 -0.0134  0.6165
 1422TIP3    H228462   2.363   5.937  17.197  0.4981 -1.0608 -0.2313
 1423TIP3   OH228463   1.594   2.225  17.143 -0.5804 -0.0371 -0.2109
 1423TIP3    H128464   1.616   2.192  17.056  0.3250 -0.3149  0.1177
 1423TIP3    H228465   1.616   2.319  17.139  1.7575 -0.4882  0.4214
 1424TIP3   OH228466   5.799   5.855  17.334  0.2545 -0.1318 -0.3924
 1424TIP3    H128467   5.818   5.944  17.362  0.1490  0.1779 -1.2593
 1424TIP3    H228468   5.706   5.855  17.311  0.1712 -0.5573 -0.0799
 1425TIP3   OH228469   6.525   0.686  16.712  0.0138 -0.1670  0.0342
 1425TIP3    H128470   6.522   0.767  16.660  0.3560 -0.0202  0.2399
 1425TIP3    H228471   6.614   0.684  16.747 -0.7157  0.6743  2.0952
 1426TIP3   OH228472   4.400   2.935  16.376  0.0072 -0.3378  0.0477
 1426TIP3    H128473   4.375   2.858  16.428 -0.8266  0.0296  0.2129
 1426TIP3    H228474   4.496   2.934  16.376  0.0185 -0.6731  1.1012
 1427TIP3   OH228475   3.816   3.302  15.408  0.7430 -0.7065 -0.0812
 1427TIP3    H128476   3.742   3.250  15.378 -0.1677  0.6591 -0.2597
 1427TIP3    H228477   3.867   3.242  15.463 -0.1373 -1.8384 -0.4731
 1428TIP3   OH228478   2.605   4.742  17.092  0.1458  0.2551 -0.5261
 1428TIP3    H128479   2.521   4.787  17.088  0.1577  0.2401 -1.0626
 1428TIP3    H228480   2.669   4.806  17.061  0.0370 -0.3972 -2.2110
 1429TIP3   OH228481   2.920   6.530  17.242 -0.0587  0.8168 -0.2985
 1429TIP3    H128482   2.974   6.527  17.163 -0.2495  2.0088 -0.4873
 1429TIP3    H228483   2.973   6.577  17.306  0.3061 -0.5964  0.4729
 1430TIP3   OH228484   4.822   1.858  16.412 -0.3388 -0.9807  0.3770
 1430TIP3    H128485   4.821   1.854  16.507  1.5766  1.1211  0.5695
 1430TIP3    H228486   4.744   1.908  16.389  0.9165  1.4861  1.1600
 1431TIP3   OH228487   0.060   2.968  17.539 -0.0569 -0.2157 -0.1490
 1431TIP3    H128488   0.093   3.051  17.574 -0.4480  0.1430 -0.6300
 1431TIP3    H228489   0.137   2.926  17.501  0.3142 -0.4656  0.8377
 1432TIP3   OH228490   3.830   5.581  16.270 -0.0261  0.3644  0.2355
 1432TIP3    H128491   3.918   5.569  16.233 -0.0793  3.2275 -1.0845
 1432TIP3    H228492   3.845   5.630  16.351 -0.3946  2.0359 -0.6566
 1433TIP3   OH228493   4.458   6.060  15.057 -0.4333 -0.0185 -0.1564
 1433TIP3    H128494   4.397   6.106  14.999  0.4499  0.1182 -0.9852
 1433TIP3    H228495   4.531   6.034  15.001  0.3987  0.0367  0.8665
 1434TIP3   OH228496   1.301   0.197  16.928  0.0396 -0.0353 -0.1384
 1434TIP3    H128497   1.215   0.205  16.887 -0.8908  1.2017  1.8786
 1434TIP3    H228498   1.282   0.179  17.020  1.9790 -0.9151  0.1505
 1435TIP3   OH228499   0.954   6.707  16.481  0.5979 -0.3514 -0.8415
 1435TIP3    H128500   1.049   6.717  16.478  0.4765  0.8676 -1.0781
 1435TIP3    H228501   0.923   6.785  16.526 -0.3039 -0.7009 -0.8304
 1436TIP3   OH228502   0.417   5.043  16.466  0.1848 -0.1467 -0.1889
 1436TIP3    H128503   0.452   4.957  16.439  1.0350 -0.1842  0.9471
 1436TIP3    H228504   0.341   5.057  16.410  1.2628 -0.6787 -1.8791
 1437TIP3   OH228505   4.625   4.070  17.239 -0.0939  0.1989 -0.3719
 1437TIP3    H128506   4.698   4.065  17.301 -0.0594  1.9013 -0.2499
 1437TIP3    H228507   4.591   4.159  17.248  0.2969  0.7297 -3.2037
 1438TIP3   OH228508   2.910   1.465  15.924  0.0039  0.2274 -0.2096
 1438TIP3    H128509   2.824   1.440  15.891  0.4482 -0.6402 -0.7486
 1438TIP3    H228510   2.893   1.537  15.984 -0.9053  1.2828 -1.6819
 1439TIP3   OH228511   1.868   4.290  15.294 -0.2450 -0.3138 -0.1968
 1439TIP3    H128512   1.838   4.256  15.379  0.0563 -1.3984 -0.5063
 1439TIP3    H228513   1.860   4.215  15.234 -0.9152  0.5715 -1.2459
 1440TIP3   OH228514   2.735   4.022  17.723 -0.1768  0.2093  0.4298
 1440TIP3    H128515   2.675   4.081  17.768 -1.0163 -1.3329  1.4180
 1440TIP3    H228516   2.702   3.935  17.742  1.6595 -0.6500 -0.0658
 1441TIP3   OH228517   3.025   1.879  17.816  0.2210 -0.2333  0.7465
 1441TIP3    H128518   3.027   1.800  17.763 -1.7922 -0.5091  0.9967
 1441TIP3    H228519   3.087   1.863  17.887  1.4111 -0.6839 -0.3682
 1442TIP3   OH228520   3.215   4.159  17.472  0.3964 -0.2586  0.0068
 1442TIP3    H128521   3.227   4.249  17.503 -3.9472  0.4238  0.2752
 1442TIP3    H228522   3.154   4.120  17.536  0.5361 -2.7274 -1.2578
 1443TIP3   OH228523   4.602   0.488  17.920  0.3963 -0.3408 -0.2263
 1443TIP3    H128524   4.622   0.580  17.904  0.1208 -0.2953 -0.3131
 1443TIP3    H228525   4.531   0.489  17.984 -0.3320 -0.4671 -1.0103
 1444TIP3   OH228526   0.456   0.220  15.187 -0.4523 -0.0661  0.6942
 1444TIP3    H128527   0.403   0.231  15.108 -0.3251 -2.0619  0.2554
 1444TIP3    H228528   0.541   0.191  15.155  0.1523  0.7706  1.5064
 1445TIP3   OH228529   3.287   5.120  16.068  0.1161  0.4194 -0.4587
 1445TIP3    H128530   3.246   5.045  16.111  1.1761 -1.1995 -2.1455
 1445TIP3    H228531   3.230   5.194  16.091 -1.8076 -1.1290  0.0653
 1446TIP3   OH228532   3.422   5.586  18.036 -0.3476  0.3385  0.3407
 1446TIP3    H128533   3.364   5.600  18.110 -0.0902 -0.6175  0.7350
 1446TIP3    H228534   3.385   5.639  17.965 -0.5894  1.2651  1.1459
 1447TIP3   OH228535   3.440   3.866  15.193  0.4436 -0.4877 -0.7125
 1447TIP3    H128536   3.459   3.827  15.279  0.6578 -1.7897 -1.3252
 1447TIP3    H228537   3.415   3.791  15.138 -1.8757  0.5663 -1.2085
 1448TIP3   OH228538   6.452   2.056  16.208 -0.3354  0.3839  0.0548
 1448TIP3    H128539   6.468   2.148  16.228  0.7777 -0.0005  1.0616
 1448TIP3    H228540   6.475   2.009  16.288 -2.2092 -0.6741  0.0281
 1449TIP3   OH228541   2.504   0.989  14.512  0.3172  0.2500  0.5914
 1449TIP3    H128542   2.437   1.043  14.470 -0.5012 -1.1137  0.0771
 1449TIP3    H228543   2.586   1.017  14.471  0.0455  1.7136  0.9875
 1450TIP3   OH228544   1.890   0.061  15.815  0.0860  0.2069 -0.4375
 1450TIP3    H128545   1.981   0.080  15.837 -0.3701  0.5200  1.2691
 1450TIP3    H228546   1.841   0.137  15.846 -1.0826 -1.1861  1.3179
 1451TIP3   OH228547   2.066   4.258  18.052 -0.1650  0.1780  0.4342
 1451TIP3    H128548   2.117   4.338  18.044  0.5128 -0.3131 -0.4148
 1451TIP3    H228549   2.115   4.204  18.114 -1.6734  1.1751  2.5919
 1452TIP3   OH228550   2.830   6.095  15.416 -1.2680 -0.7923 -0.2182
 1452TIP3    H128551   2.910   6.047  15.433 -0.5871  0.0186 -1.0547
 1452TIP3    H228552   2.788   6.102  15.502 -0.0397 -0.5122  0.3809
 1453TIP3   OH228553   4.121   1.893  15.743  0.8392  0.1026 -0.0593
 1453TIP3    H128554   4.100   1.827  15.677  0.2456  0.5626 -0.3348
 1453TIP3    H228555   4.045   1.893  15.801  0.5160  1.0568 -0.4770
 1454TIP3   OH228556   1.001   1.171  17.081 -0.5505 -0.0130  0.0542
 1454TIP3    H128557   0.988   1.266  17.071 -3.8786 -0.5053 -1.5328
 1454TIP3    H228558   0.940   1.146  17.150  1.0111 -0.9601  1.1591
 1455TIP3   OH228559   6.607   0.222  17.339  0.3216 -0.4570  0.0726
 1455TIP3    H128560   6.607   0.299  17.282 -3.3002  0.2368  0.7496
 1455TIP3    H228561   6.613   0.258  17.427  1.7199 -1.2429  0.3348
 1456TIP3   OH228562   0.862   0.565  16.018  0.4245 -0.3160  0.0211
 1456TIP3    H128563   0.767   0.567  16.008  0.2830 -1.9934  0.7656
 1456TIP3    H228564   0.892   0.499  15.956  0.9562 -0.6908  0.6566
 1457TIP3   OH228565   2.282   3.776  17.271  0.1782  0.2122  0.3150
 1457TIP3    H128566   2.269   3.870  17.281 -1.5223  0.2475 -1.5627
 1457TIP3    H228567   2.365   3.769  17.223 -0.2390  0.8431 -0.5361
 1458TIP3   OH228568   2.592   0.774  15.645 -0.6645  0.3922 -0.6682
 1458TIP3    H128569   2.669   0.824  15.674 -0.6177 -0.4102  0.7213
 1458TIP3    H228570   2.556   0.738  15.726 -1.4800 -0.7011 -1.4878
 1459TIP3   OH228571   2.691   4.861  17.857  0.2829 -0.3095  0.4755
 1459TIP3    H128572   2.598   4.882  17.850  0.6461  1.5655  0.7518
 1459TIP3    H228573   2.704   4.790  17.794 -1.2542 -0.3756  0.1833
 1460TIP3   OH228574   6.370   5.712  17.299 -0.4980 -0.4446 -0.0666
 1460TIP3    H128575   6.374   5.623  17.264 -0.9722 -0.1559 -0.8845
 1460TIP3    H228576   6.376   5.701  17.394 -2.7535 -1.5116  0.0042
 1461TIP3   OH228577   3.147   0.621  17.100  0.5271 -0.5908  0.2138
 1461TIP3    H128578   3.145   0.687  17.031  3.7865 -0.1728  0.3802
 1461TIP3    H228579   3.106   0.664  17.176  0.4824  0.3562 -0.3345
 1462TIP3   OH228580   3.511   0.902  17.068 -0.1362 -0.9143 -0.3984
 1462TIP3    H128581   3.464   0.963  17.010  1.0856  0.5975  0.1240
 1462TIP3    H228582   3.596   0.944  17.084  0.8183 -2.8332 -0.0884
 1463TIP3   OH228583   2.933   5.232  14.824  0.0260 -0.2614  0.6839
 1463TIP3    H128584   2.969   5.320  14.821  1.6372 -0.8807  1.0655
 1463TIP3    H228585   2.858   5.235  14.765  0.4191  1.1906  0.2180
 1464TIP3   OH228586   5.916   4.534  16.749 -0.3002  0.4423  0.3275
 1464TIP3    H128587   5.871   4.492  16.822  0.5100  0.3156  0.7728
 1464TIP3    H228588   5.951   4.461  16.697  2.6134  0.4284  2.0408
 1465TIP3   OH228589   0.944   6.662  16.006  0.1535  0.4248  0.0132
 1465TIP3    H128590   0.923   6.732  16.068 -1.7476 -1.1982  1.3207
 1465TIP3    H228591   1.012   6.612  16.049 -1.0380 -0.5947  0.7799
 1466TIP3   OH228592   2.461   1.708  15.282 -0.4841 -0.4615 -0.0341
 1466TIP3    H128593   2.528   1.776  15.285 -0.4872 -0.3112 -1.8856
 1466TIP3    H228594   2.387   1.746  15.330 -0.4240  0.7992 -0.8857
 1467TIP3   OH228595   2.363   5.255  17.548 -0.4128 -0.6187 -0.0293
 1467TIP3    H128596   2.403   5.339  17.570 -1.1999 -0.0550 -0.6955
 1467TIP3    H228597   2.384   5.242  17.456  0.0928 -1.3832  0.1856
 1468TIP3   OH228598   2.389   3.518  17.402  0.1364 -0.0599  0.0412
 1468TIP3    H128599   2.434   3.600  17.418  1.0335  0.0428 -2.5606
 1468TIP3    H228600   2.300   3.543  17.376  0.2367  0.0618 -0.1840
 1469TIP3   OH228601   3.230   3.539  17.794 -0.3074 -0.3075 -0.0308
 1469TIP3    H128602   3.302   3.584  17.839  0.1029 -1.3764  0.4292
 1469TIP3    H228603   3.218   3.588  17.713  0.4191  0.3502  0.2439
 1470TIP3   OH228604   5.051   4.520  15.460 -0.1873  0.1139 -0.3790
 1470TIP3    H128605   5.100   4.473  15.393 -0.2909  1.2957 -1.3120
 1470TIP3    H228606   5.038   4.455  15.530  3.7848  0.0446  0.5307
 1471TIP3   OH228607   5.259   2.489  15.597 -0.1010 -0.2160  0.1223
 1471TIP3    H128608   5.175   2.519  15.632 -0.2832 -0.9210  0.2918
 1471TIP3    H228609   5.289   2.422  15.659 -0.2649 -1.2506 -0.8904
 1472TIP3   OH228610   6.641   1.933  16.041  0.0881 -0.0714 -0.1664
 1472TIP3    H128611   6.618   1.979  15.960 -0.3403 -0.7792 -0.4641
 1472TIP3    H228612   6.568   1.951  16.100 -0.2900 -0.6825 -0.4271
 1473TIP3   OH228613   1.855   4.229  17.393  0.4469 -0.2696 -0.2993
 1473TIP3    H128614   1.849   4.309  17.444  1.7616  0.0789 -0.6610
 1473TIP3    H228615   1.860   4.158  17.457 -0.7130 -0.0720  0.0200
 1474TIP3   OH228616   5.680   0.250  14.010  0.6196 -0.2842  0.0756
 1474TIP3    H128617   5.592   0.287  14.011 -0.6265 -3.0028  1.4488
 1474TIP3    H228618   5.721   0.287  13.932 -1.5613  1.4123 -0.3506
 1475TIP3   OH228619   1.664   1.271  16.026  0.2789 -0.0208  0.3913
 1475TIP3    H128620   1.599   1.212  16.064 -1.0846  0.6912 -0.7525
 1475TIP3    H228621   1.703   1.314  16.102  0.4284 -1.4535  1.1765
 1476TIP3   OH228622   2.679   4.937  15.803  0.2826 -0.3740  0.5125
 1476TIP3    H128623   2.616   4.904  15.739  0.5955 -1.0752  0.5490
 1476TIP3    H228624   2.761   4.894  15.779  1.1436  1.7293 -0.5145
 1477TIP3   OH228625   3.938   4.302  17.713  0.2856  0.3399  0.5158
 1477TIP3    H128626   3.934   4.286  17.808  1.0670  0.1357  0.5201
 1477TIP3    H228627   3.985   4.385  17.705 -2.0427  1.7500  0.4045
 1478TIP3   OH228628   1.255   3.293  16.932 -0.4459 -0.6419  0.5754
 1478TIP3    H128629   1.346   3.306  16.959 -0.2541 -2.5843  0.9598
 1478TIP3    H228630   1.214   3.247  17.005 -1.7970  0.3008  0.4550
 1479TIP3   OH228631   1.578   3.820  15.757 -0.5895 -0.1928 -0.2707
 1479TIP3    H128632   1.617   3.835  15.844  0.1545 -1.4382 -0.3601
 1479TIP3    H228633   1.643   3.767  15.711 -2.4853 -2.5515 -0.3690
 1480TIP3   OH228634   4.022   0.157  15.345 -0.0836 -0.0178 -0.7976
 1480TIP3    H128635   4.107   0.171  15.387 -0.6582  0.4998  0.2235
 1480TIP3    H228636   4.000   0.243  15.308 -0.8513  0.2637  0.2693
 1481TIP3   OH228637   1.715   6.453  14.086  0.1267  0.2756 -0.4752
 1481TIP3    H128638   1.789   6.394  14.073  0.0652  0.2672 -0.8073
 1481TIP3    H228639   1.670   6.419  14.163  1.0111  0.8442  0.3099
 1482TIP3   OH228640   5.449   6.066  15.386 -0.0775  0.2010  0.2081
 1482TIP3    H128641   5.523   6.120  15.414 -0.3898  0.5366  0.4012
 1482TIP3    H228642   5.485   6.008  15.320  0.2771  0.6164  0.0331
 1483TIP3   OH228643   1.320   5.188  14.797 -0.3832  0.0259 -0.2499
 1483TIP3    H128644   1.397   5.242  14.818  0.2326 -1.6372  2.1650
 1483TIP3    H228645   1.251   5.252  14.781  0.6653  1.5600  1.0102
 1484TIP3   OH228646   5.458   4.297  16.130 -0.2981  0.2008 -0.1071
 1484TIP3    H128647   5.408   4.219  16.154 -1.6250  1.3905  1.1406
 1484TIP3    H228648   5.394   4.357  16.092  0.9188  0.2906 -2.1935
 1485TIP3   OH228649   0.624   1.249  16.445 -0.1160  0.3158 -0.3792
 1485TIP3    H128650   0.631   1.301  16.525  1.3534 -0.7079  0.2056
 1485TIP3    H228651   0.617   1.313  16.375 -0.0795  1.2616  0.4663
 1486TIP3   OH228652   2.318   3.311  16.033  0.2161  0.0248 -0.2079
 1486TIP3    H128653   2.277   3.392  16.004 -0.0895 -0.1165 -0.1803
 1486TIP3    H228654   2.313   3.314  16.128 -2.0126 -1.1138 -0.2196
 1487TIP3   OH228655   4.925   0.209  17.937 -0.1165  0.6484  0.0239
 1487TIP3    H128656   4.995   0.148  17.911 -1.0981 -0.1644 -0.8028
 1487TIP3    H228657   4.964   0.295  17.924 -0.1502  0.3161 -3.4373
 1488TIP3   OH228658   5.592   1.818  15.581 -0.1707  0.1476 -0.1974
 1488TIP3    H128659   5.568   1.860  15.664 -1.2417 -0.8095  0.0064
 1488TIP3    H228660   5.643   1.884  15.535 -0.6850  1.1879  0.6670
 1489TIP3   OH228661   6.647   3.382  17.948  0.0733  0.2663 -0.4199
 1489TIP3    H128662   6.667   3.409  17.858  0.7515 -0.7853 -0.6050
 1489TIP3    H228663   6.554   3.400  17.959  0.3341  1.9762 -0.7560
 1490TIP3   OH228664   0.342   1.978  16.306 -0.0174 -0.1749 -0.0782
 1490TIP3    H128665   0.321   2.054  16.360  0.0027  2.1370 -3.0319
 1490TIP3    H228666   0.257   1.946  16.276  0.0370 -0.4590  0.0697
 1491TIP3   OH228667   3.504   6.214  14.441  0.5873 -0.0970  0.2214
 1491TIP3    H128668   3.503   6.308  14.423  1.3437 -0.3373 -1.2487
 1491TIP3    H228669   3.596   6.188  14.431  0.4198 -0.9664  0.7813
 1492TIP3   OH228670   3.170   4.866  15.232  0.2670 -0.0985  0.0499
 1492TIP3    H128671   3.095   4.818  15.197 -0.1401 -0.5718  1.4911
 1492TIP3    H228672   3.244   4.841  15.175 -0.9426  1.9220 -2.6663
 1493TIP3   OH228673   2.725   0.368  17.386 -0.2926 -0.0175 -0.3562
 1493TIP3    H128674   2.718   0.349  17.480 -1.2612  0.1528 -0.3836
 1493TIP3    H228675   2.654   0.430  17.369  0.5474  0.7892 -0.9906
 1494TIP3   OH228676   4.327   5.939  16.852 -0.1894  0.2313  0.3468
 1494TIP3    H128677   4.249   5.983  16.885 -0.3600  0.4591 -0.3267
 1494TIP3    H228678   4.338   5.974  16.763  0.6628  0.1822  0.4198
 1495TIP3   OH228679   5.635   5.757  14.382 -0.4549 -0.1414  0.0842
 1495TIP3    H128680   5.674   5.808  14.311 -1.5165 -1.3809 -1.4772
 1495TIP3    H228681   5.594   5.822  14.439  2.3723  1.0691  0.9058
 1496TIP3   OH228682   3.796   3.273  15.084  0.4137 -0.0446  0.0001
 1496TIP3    H128683   3.857   3.200  15.080 -1.0099 -1.2171 -1.6519
 1496TIP3    H228684   3.826   3.333  15.016  1.3268  0.7687  1.0704
 1497TIP3   OH228685   4.190   6.360  15.136  0.4229 -0.5137  0.4748
 1497TIP3    H128686   4.178   6.281  15.083  1.0910 -0.7404  0.6547
 1497TIP3    H228687   4.233   6.422  15.077  0.8304 -0.6389  0.6366
 1498TIP3   OH228688   6.335   3.462  16.214  0.0448 -0.0754 -0.0614
 1498TIP3    H128689   6.401   3.531  16.201 -0.6395  0.3634 -1.5155
 1498TIP3    H228690   6.261   3.490  16.159 -0.9721 -1.0491  0.7651
 1499TIP3   OH228691   3.432   1.439  17.250  0.2943  0.1195 -0.0245
 1499TIP3    H128692   3.503   1.413  17.192  0.6731 -0.2954  0.6098
 1499TIP3    H228693   3.458   1.524  17.285 -0.8989  1.3875 -2.0219
 1500TIP3   OH228694   2.241   2.178  16.124 -0.2452  0.1497 -1.1100
 1500TIP3    H128695   2.324   2.226  16.117 -0.4527  0.8466  0.7719
 1500TIP3    H228696   2.174   2.244  16.102 -0.4159  0.1486 -0.5869
 1501TIP3   OH228697   0.062   0.436  16.573 -0.1301  0.0257  0.3237
 1501TIP3    H128698  -0.004   0.367  16.581 -0.2973  0.1166 -0.2167
 1501TIP3    H228699   0.139   0.401  16.616 -0.6265  0.0389  1.2405
 1502TIP3   OH228700   3.545   4.653  17.973 -0.2184  0.2536 -0.1802
 1502TIP3    H128701   3.525   4.747  17.972  0.2540  0.3534 -0.3654
 1502TIP3    H228702   3.641   4.649  17.979 -0.0186 -0.1873 -2.7987
 1503TIP3   OH228703   6.521   3.264  15.727  0.0048 -0.9081  0.1355
 1503TIP3    H128704   6.558   3.350  15.707 -0.3349 -1.0029 -0.9626
 1503TIP3    H228705   6.517   3.261  15.822  0.9032 -0.0828  0.2117
 1504TIP3   OH228706   1.863   0.262  14.962 -0.2903  0.2707 -0.2327
 1504TIP3    H128707   1.926   0.260  15.034 -0.9838 -1.0402  0.3735
 1504TIP3    H228708   1.917   0.264  14.883  0.4896  2.1445  0.2785
 1505TIP3   OH228709   1.352   1.860  17.588 -0.2086  0.1041  0.3656
 1505TIP3    H128710   1.425   1.891  17.534 -0.2469 -0.3362  0.0473
 1505TIP3    H228711   1.360   1.909  17.669 -1.3516  2.3024 -0.7579
 1506TIP3   OH228712   4.050   5.041  16.232 -0.4009 -0.1234 -0.0186
 1506TIP3    H128713   3.974   5.020  16.286  1.0728  0.2210  2.3716
 1506TIP3    H228714   4.014   5.086  16.156 -2.6145 -0.5768  0.6819
 1507TIP3   OH228715   2.519   6.402  14.810  0.2370 -0.3723 -0.1222
 1507TIP3    H128716   2.558   6.452  14.882  1.2140  1.6626 -1.9345
 1507TIP3    H228717   2.567   6.318  14.811  0.8677 -0.0224  1.0098
 1508TIP3   OH228718   2.402   1.987  17.487  0.1748  0.1791  0.0681
 1508TIP3    H128719   2.388   1.895  17.510 -1.8009  0.2862 -0.5424
 1508TIP3    H228720   2.330   2.008  17.428  0.7706  2.0539 -0.0458
 1509TIP3   OH228721   0.334   1.386  16.526 -0.4323 -0.4807  0.0765
 1509TIP3    H128722   0.388   1.420  16.455 -1.6980 -0.3807 -0.8700
 1509TIP3    H228723   0.391   1.388  16.603  0.3606  1.2674 -0.5114
 1510TIP3   OH228724   1.929   6.624  14.135  0.7112  0.0296  0.5061
 1510TIP3    H128725   1.965   6.566  14.202 -1.1996  0.9558  2.4456
 1510TIP3    H228726   1.843   6.586  14.115  1.1184 -0.0622 -1.2766
 1511TIP3   OH228727   5.207   2.940  15.314  0.6064 -0.1475 -0.2053
 1511TIP3    H128728   5.185   2.852  15.282  1.4954  0.6014 -3.2173
 1511TIP3    H228729   5.165   2.999  15.252  2.7231  1.4673 -0.2102
 1512TIP3   OH228730   4.135   3.969  16.480  0.1656  0.0611  0.2712
 1512TIP3    H128731   4.160   4.058  16.456 -0.7782  0.2283 -0.1444
 1512TIP3    H228732   4.040   3.972  16.489  0.0839 -0.9754 -0.0326
 1513TIP3   OH228733   4.033   3.132  15.037  0.3819 -0.3156 -0.3701
 1513TIP3    H128734   4.071   3.213  15.003  1.0634 -0.8867 -1.0083
 1513TIP3    H228735   4.095   3.064  15.010  0.6494 -0.8723  1.5017
 1514TIP3   OH228736   4.481   1.979  18.138 -0.2978 -0.6442 -0.1624
 1514TIP3    H128737   4.408   2.028  18.101  0.7335 -0.0711 -1.5642
 1514TIP3    H228738   4.456   1.888  18.132 -0.4234 -0.5226 -1.7644
 1515TIP3   OH228739   3.209   0.825  16.547 -0.1531  0.3751 -0.0083
 1515TIP3    H128740   3.180   0.746  16.501 -0.7209 -0.8212  2.2606
 1515TIP3    H228741   3.139   0.889  16.532  0.0745  0.3065 -1.4509
 1516TIP3   OH228742   2.441   6.358  15.345  0.1176 -0.0809  0.4035
 1516TIP3    H128743   2.417   6.330  15.257 -0.0414 -0.5309  0.5871
 1516TIP3    H228744   2.463   6.451  15.336 -1.6762  0.3595  0.2119
 1517TIP3   OH228745   6.510   6.388  14.974 -0.0510 -0.6056 -0.0075
 1517TIP3    H128746   6.485   6.336  14.898 -1.3467  0.1910 -0.1574
 1517TIP3    H228747   6.479   6.338  15.049 -0.6222 -0.4080 -0.1116
 1518TIP3   OH228748   4.895   1.770  14.901 -0.7425 -0.0554  0.1979
 1518TIP3    H128749   4.964   1.810  14.848 -0.0308 -0.3624  0.8778
 1518TIP3    H228750   4.822   1.758  14.840  0.6699 -2.1117 -1.2391
 1519TIP3   OH228751   1.832   4.088  16.900 -0.2414  0.1322 -0.0197
 1519TIP3    H128752   1.763   4.083  16.966  1.4179  0.1261  1.8010
 1519TIP3    H228753   1.833   4.002  16.859 -0.8447 -0.0805  0.4109
 1520TIP3   OH228754   2.600   2.475  16.525  0.5868 -0.2645  0.2561
 1520TIP3    H128755   2.534   2.431  16.471  0.1751 -0.0592  0.5829
 1520TIP3    H228756   2.678   2.478  16.470  0.3894 -0.7009 -0.0599
 1521TIP3   OH228757   6.634   6.459  17.964 -0.5231  0.0156  0.4764
 1521TIP3    H128758   6.635   6.398  17.890 -3.3356  0.4151 -0.0106
 1521TIP3    H228759   6.662   6.406  18.039 -1.7177 -1.5793 -0.1430
 1522TIP3   OH228760   0.042   2.081  16.480 -0.1561 -0.4505  0.1809
 1522TIP3    H128761   0.035   2.007  16.540  0.6825 -0.9374 -0.2877
 1522TIP3    H228762   0.046   2.158  16.536 -3.4861 -0.4763  0.6380
 1523TIP3   OH228763   3.402   6.584  15.648  0.3639  0.4069  0.3255
 1523TIP3    H128764   3.331   6.615  15.705 -0.0446 -0.4517  0.3045
 1523TIP3    H228765   3.357   6.539  15.576  0.9194 -0.0168  0.2365
 1524TIP3   OH228766   3.707   6.100  14.658  0.3199 -0.0169  0.4918
 1524TIP3    H128767   3.788   6.150  14.656  0.3626 -0.0955  0.0546
 1524TIP3    H228768   3.735   6.009  14.668  0.2136  0.1007  1.9938
 1525TIP3   OH228769   3.855   1.005  17.841 -0.2310  0.2455  0.4446
 1525TIP3    H128770   3.763   1.030  17.850 -0.1846  1.0652 -1.0253
 1525TIP3    H228771   3.903   1.075  17.886 -0.2970  0.1271  0.7034
 1526TIP3   OH228772   3.430   1.486  15.434  0.0046 -0.2674  0.3371
 1526TIP3    H128773   3.525   1.498  15.438  0.0478 -0.7355  0.8771
 1526TIP3    H228774   3.394   1.561  15.482  0.1222 -0.2984  0.4764
 1527TIP3   OH228775   3.118   4.368  16.258  0.2365 -0.3347 -0.0884
 1527TIP3    H128776   3.208   4.353  16.289  0.1661  0.5205  0.5544
 1527TIP3    H228777   3.115   4.325  16.172  0.7171 -1.9676  0.6618
 1528TIP3   OH228778   3.259   5.401  17.906 -0.0262 -0.2703  0.1090
 1528TIP3    H128779   3.297   5.481  17.943 -0.6660  0.5563 -0.9957
 1528TIP3    H228780   3.239   5.422  17.815 -2.5576 -0.8536  0.4524
 1529TIP3   OH228781   3.196   0.742  14.404  0.1364  0.1228 -0.0222
 1529TIP3    H128782   3.200   0.838  14.407  0.1241  0.1098  0.5503
 1529TIP3    H228783   3.137   0.723  14.331  2.9013  0.4638 -2.5358
 1530TIP3   OH228784   0.351   2.143  16.543 -0.3077 -0.3676 -0.3595
 1530TIP3    H128785   0.286   2.150  16.613  0.4331 -1.0736  0.4273
 1530TIP3    H228786   0.331   2.215  16.484 -1.2850 -0.0799  0.3015
 1531TIP3   OH228787   1.764   4.762  15.746 -0.3601 -0.6375 -0.0421
 1531TIP3    H128788   1.845   4.814  15.745  1.3541 -3.0033  2.2632
 1531TIP3    H228789   1.745   4.745  15.654  0.0684  2.3379 -0.7807
 1532TIP3   OH228790   0.094   3.963  18.082  0.1917  0.3544  0.2679
 1532TIP3    H128791   0.011   4.006  18.064  0.1277 -0.1495 -0.7056
 1532TIP3    H228792   0.151   3.990  18.009  0.2467 -0.9395 -0.1890
 1533TIP3   OH228793   1.845   1.443  16.544 -0.0742 -0.1104  0.1587
 1533TIP3    H128794   1.756   1.467  16.571  0.3660  0.9757  0.7526
 1533TIP3    H228795   1.885   1.409  16.624 -0.1055 -1.0611 -0.2310
 1534TIP3   OH228796   6.188   4.096  14.986 -0.0988  0.4909 -0.0206
 1534TIP3    H128797   6.214   4.188  14.978 -0.0684  0.5451  0.6606
 1534TIP3    H228798   6.256   4.048  14.938  0.6410  0.7245  0.7608
 1535TIP3   OH228799   0.926   5.300  17.331 -0.0989 -0.3695 -0.0668
 1535TIP3    H128800   0.954   5.298  17.239 -1.5190 -0.0444 -0.5312
 1535TIP3    H228801   0.831   5.297  17.327 -0.1675 -1.0930  1.4402
 1536TIP3   OH228802   5.464   6.283  16.465  0.3117 -0.4822  0.0824
 1536TIP3    H128803   5.488   6.260  16.554 -0.2168 -0.1049  0.3305
 1536TIP3    H228804   5.376   6.321  16.473 -0.2431 -1.5414 -0.7388
 1537TIP3   OH228805   0.230   3.865  17.061  0.1260 -0.2878  0.2417
 1537TIP3    H128806   0.166   3.795  17.053 -1.1445  0.9301 -0.7383
 1537TIP3    H228807   0.314   3.820  17.071 -0.9706 -1.9721  3.1905
 1538TIP3   OH228808   3.735   3.566  15.497 -0.0783 -0.0830 -0.0141
 1538TIP3    H128809   3.678   3.522  15.561  0.0821 -0.7826 -0.3396
 1538TIP3    H228810   3.792   3.496  15.465  0.4497  0.4551 -0.2582
 1539TIP3   OH228811   2.641   1.662  14.491  0.5442  0.3219  0.3803
 1539TIP3    H128812   2.615   1.570  14.487 -0.4008  0.4504  2.2360
 1539TIP3    H228813   2.597   1.696  14.569  0.4024  2.5083 -0.5634
 1540TIP3   OH228814   6.091   3.683  18.035  0.3505 -0.2542  0.4039
 1540TIP3    H128815   6.143   3.748  18.082 -1.0949 -0.2573  2.1168
 1540TIP3    H228816   6.149   3.651  17.966  1.9279  1.0998  1.0313
 1541TIP3   OH228817   4.179   0.612  16.401  0.2992  0.0123  0.4484
 1541TIP3    H128818   4.263   0.645  16.432  1.2249  0.6084 -2.4067
 1541TIP3    H228819   4.159   0.664  16.323 -2.0697 -1.0112  0.2606
 1542TIP3   OH228820   5.542   3.323  15.129 -0.2973  0.5880 -0.0456
 1542TIP3    H128821   5.449   3.305  15.138 -0.1119 -1.7218 -1.8092
 1542TIP3    H228822   5.547   3.415  15.104 -1.9279  1.2371  1.7677
 1543TIP3   OH228823   6.335   6.680  13.999  0.0293  0.5014 -0.1756
 1543TIP3    H128824   6.281   6.721  14.067 -1.8553 -0.8029 -0.7949
 1543TIP3    H228825   6.272   6.634  13.944  1.9191 -2.4169 -0.0910
 1544TIP3   OH228826   3.396   4.373  16.865 -0.0582 -0.0196 -0.1913
 1544TIP3    H128827   3.491   4.379  16.857 -0.1153  1.3611 -0.1082
 1544TIP3    H228828   3.376   4.419  16.947 -0.6466 -2.1030  0.9205
 1545TIP3   OH228829   3.801   0.261  16.381 -0.1625 -0.1781  0.1781
 1545TIP3    H128830   3.769   0.300  16.300  0.3030  1.8859  0.9127
 1545TIP3    H228831   3.895   0.276  16.380 -0.2407  0.6121  1.4151
 1546TIP3   OH228832   2.236   4.047  17.249 -0.1527 -0.0675  0.5203
 1546TIP3    H128833   2.144   4.035  17.225  0.3180 -0.0731 -1.3963
 1546TIP3    H228834   2.269   4.112  17.187  0.3960  2.3569  3.1292
 1547TIP3   OH228835   4.441   1.503  14.632 -0.1556 -0.0744  0.2156
 1547TIP3    H128836   4.513   1.443  14.614  1.0417  1.5389 -0.6384
 1547TIP3    H228837   4.446   1.519  14.727  0.5504 -0.0646  0.1798
 1548TIP3   OH228838   5.589   5.489  17.409 -0.1878 -0.0850 -0.1146
 1548TIP3    H128839   5.601   5.579  17.379 -0.9591 -0.7511 -2.7204
 1548TIP3    H228840   5.669   5.444  17.381 -0.0201 -0.3240  0.7358
 1549TIP3   OH228841   5.399   1.520  15.205  0.1162  0.3189 -0.1015
 1549TIP3    H128842   5.386   1.532  15.111  0.3046  0.2923 -0.1318
 1549TIP3    H228843   5.417   1.608  15.238 -1.9260  0.6523  0.2327
 1550TIP3   OH228844   2.769   6.090  15.157  0.0847  0.5192  0.3832
 1550TIP3    H128845   2.790   6.089  15.250 -1.4431 -0.2458  0.7522
 1550TIP3    H228846   2.739   6.180  15.141  1.0120  0.8519  0.4528
 1551TIP3   OH228847   4.710   2.972  17.406  0.3477  0.1722 -0.0433
 1551TIP3    H128848   4.648   3.027  17.358 -0.5734 -0.4632  0.3867
 1551TIP3    H228849   4.691   2.990  17.498  1.1097  0.2979  0.0946
 1552TIP3   OH228850   5.809   4.864  16.163 -0.5059 -0.3911  0.1467
 1552TIP3    H128851   5.758   4.863  16.245  0.1215  0.7320  0.5662
 1552TIP3    H228852   5.777   4.941  16.116 -0.5443 -0.7772 -0.4600
 1553TIP3   OH228853   3.268   6.299  16.921  0.5607  0.0294 -0.1013
 1553TIP3    H128854   3.324   6.355  16.867  2.3082 -0.5025  1.1053
 1553TIP3    H228855   3.239   6.230  16.861 -1.3231  1.9104 -1.5126
 1554TIP3   OH228856   2.728   1.944  17.495  0.0357 -0.0352  0.2863
 1554TIP3    H128857   2.638   1.912  17.483  0.9053 -2.6077  0.0289
 1554TIP3    H228858   2.746   1.995  17.416 -0.7333 -0.6998 -0.3320
 1555TIP3   OH228859   4.932   4.416  16.091  0.0335  0.2735 -0.5457
 1555TIP3    H128860   5.010   4.387  16.138 -1.0717  0.0286  1.2478
 1555TIP3    H228861   4.897   4.336  16.050  1.0335  0.4985 -1.8982
 1556TIP3   OH228862   3.648   3.006  16.705  0.1948  0.2565  0.3972
 1556TIP3    H128863   3.670   3.060  16.629 -1.3722 -0.2942 -0.4826
 1556TIP3    H228864   3.556   3.025  16.723  0.3970 -0.0095  1.8613
 1557TIP3   OH228865   2.401   4.946  17.062  0.0491 -0.4739 -0.2573
 1557TIP3    H128866   2.406   5.030  17.017  0.8756 -0.6849 -0.5764
 1557TIP3    H228867   2.336   4.896  17.012 -0.0914 -0.1961 -0.3513
 1558TIP3   OH228868   4.799   3.111  16.357 -0.1646 -0.3025  0.1678
 1558TIP3    H128869   4.736   3.050  16.395  1.1997 -0.9189  1.5204
 1558TIP3    H228870   4.874   3.057  16.332  0.7973  0.7023  0.7786
 1559TIP3   OH228871   3.876   5.120  16.571  0.2222 -0.0456  0.2065
 1559TIP3    H128872   3.829   5.156  16.646 -1.1403 -2.4209  0.5749
 1559TIP3    H228873   3.861   5.184  16.501 -1.4775  0.4928  0.9980
 1560TIP3   OH228874   5.524   5.934  14.543 -0.1653 -0.0112  0.0445
 1560TIP3    H128875   5.454   5.983  14.586 -1.0789 -0.3192 -1.0238
 1560TIP3    H228876   5.562   5.997  14.481  0.3692  0.0938  0.4761
 1561TIP3   OH228877   2.348   1.795  16.247  0.4100  0.0907 -0.0419
 1561TIP3    H128878   2.276   1.732  16.250  0.3741  0.1524  0.4009
 1561TIP3    H228879   2.420   1.750  16.292  0.5145  0.1981 -0.1022
 1562TIP3   OH228880   2.176   0.122  15.014 -0.1082 -0.3959  0.0731
 1562TIP3    H128881   2.208   0.055  14.953  1.7583 -0.0420  0.6146
 1562TIP3    H228882   2.216   0.099  15.098 -1.2222  0.1540  0.7778
 1563TIP3   OH228883   3.404   0.598  17.670 -0.3812 -0.1610  0.4074
 1563TIP3    H128884   3.496   0.577  17.651 -0.2721 -0.9698  1.6894
 1563TIP3    H228885   3.359   0.514  17.668 -0.8472  0.0672  0.9766
 1564TIP3   OH228886   2.762   3.606  17.439 -0.3232  0.7460  0.0665
 1564TIP3    H128887   2.693   3.671  17.452 -0.5343  1.1614 -2.4631
 1564TIP3    H228888   2.722   3.541  17.381  0.8395 -0.0205  0.0922
 1565TIP3   OH228889   5.602   5.396  15.522  0.4151  0.2758 -0.2274
 1565TIP3    H128890   5.655   5.372  15.446 -0.0352  2.8896 -1.4898
 1565TIP3    H228891   5.617   5.490  15.533 -1.2707  0.4030  1.5318
 1566TIP3   OH228892   5.121   4.236  17.073  0.3137  0.0629  0.2647
 1566TIP3    H128893   5.170   4.160  17.044 -0.5110 -0.6995  0.8072
 1566TIP3    H228894   5.187   4.300  17.100  1.0356 -0.0031 -1.2931
 1567TIP3   OH228895   5.859   6.122  13.936 -0.3288 -0.1613  0.1168
 1567TIP3    H128896   5.860   6.191  14.001 -1.5417 -1.1141  1.1832
 1567TIP3    H228897   5.952   6.108  13.914 -0.0382  1.3763  0.3026
 1568TIP3   OH228898   2.188   6.700  14.734 -0.0692 -0.2083  0.4445
 1568TIP3    H128899   2.164   6.628  14.674 -0.1938  1.6926 -1.9414
 1568TIP3    H228900   2.282   6.690  14.746 -0.3174 -1.6724  1.4727
 1569TIP3   OH228901   3.767   0.360  17.710 -0.3558 -0.1214 -0.1676
 1569TIP3    H128902   3.811   0.275  17.717  0.4907  0.4355  1.7609
 1569TIP3    H228903   3.674   0.338  17.708 -0.1560 -1.0908  0.4114
 1570TIP3   OH228904   4.614   6.580  17.558 -0.1624 -0.3661  0.0369
 1570TIP3    H128905   4.603   6.536  17.642  0.4522 -0.8075 -0.1109
 1570TIP3    H228906   4.709   6.595  17.550 -0.1704 -0.6716 -0.7462
 1571TIP3   OH228907   2.339   0.514  15.797  0.7144  0.3729  0.4726
 1571TIP3    H128908   2.398   0.572  15.845 -0.9046  0.9671  1.8256
 1571TIP3    H228909   2.257   0.517  15.846  0.6661 -3.4809  0.9607
 1572TIP3   OH228910   6.308   4.443  18.057 -0.6488 -0.0651 -0.4879
 1572TIP3    H128911   6.277   4.528  18.089 -0.9807 -0.3831  0.0612
 1572TIP3    H228912   6.391   4.462  18.014 -0.6819  0.5271 -0.3002
 1573TIP3   OH228913   2.000   0.264  15.968 -0.6328 -0.5847 -0.1868
 1573TIP3    H128914   1.938   0.332  15.994  0.9817  0.7535  0.3412
 1573TIP3    H228915   2.085   0.296  15.998  0.5537 -1.6134 -2.2401
 1574TIP3   OH228916   1.482   6.478  13.942  0.2108 -0.1061  0.3570
 1574TIP3    H128917   1.567   6.494  13.983  0.5521  0.9661 -0.7201
 1574TIP3    H228918   1.502   6.431  13.861  0.4654  4.5963 -2.6886
 1575TIP3   OH228919   2.406   4.541  15.684  0.6426  0.2922 -0.3450
 1575TIP3    H128920   2.327   4.565  15.732  1.2295  1.2365  0.1771
 1575TIP3    H228921   2.374   4.495  15.607 -0.3959  0.3092  0.0633
 1576TIP3   OH228922   3.244   4.727  17.583  0.1328  0.4165 -0.2956
 1576TIP3    H128923   3.297   4.803  17.606 -0.1321  0.5172 -0.0116
 1576TIP3    H228924   3.263   4.663  17.651 -0.6431  0.7101  0.2017
 1577TIP3   OH228925   5.637   1.099  16.907  0.6460 -0.1325  0.1900
 1577TIP3    H128926   5.709   1.157  16.884  1.1250 -1.2063 -1.1401
 1577TIP3    H228927   5.649   1.081  17.000  0.5333  1.7793  0.6218
 1578TIP3   OH228928   3.952   2.955  14.720 -0.0740  0.1800 -0.2850
 1578TIP3    H128929   3.916   3.031  14.766 -0.5886 -0.5756  0.6101
 1578TIP3    H228930   3.913   2.958  14.633 -0.4741  0.6643 -0.0897
 1579TIP3   OH228931   6.437   2.739  18.193  0.1717 -0.0872  0.3570
 1579TIP3    H128932   6.473   2.705  18.111 -2.6579  0.7676 -1.4174
 1579TIP3    H228933   6.504   2.799  18.225  0.8267  0.6828 -2.1620
 1580TIP3   OH228934   2.501   0.728  15.901 -0.0359  0.2041  0.3261
 1580TIP3    H128935   2.563   0.800  15.913  0.4082 -0.1822  0.3465
 1580TIP3    H228936   2.466   0.711  15.989 -2.0483  2.0667 -0.0059
 1581TIP3   OH228937   6.198   1.744  15.286  0.1478 -0.3905 -0.0344
 1581TIP3    H128938   6.126   1.730  15.225 -0.1595  2.4816 -0.4693
 1581TIP3    H228939   6.169   1.702  15.367 -2.3308  1.0667 -0.0423
 1582TIP3   OH228940   3.499   5.089  17.352  0.0694  0.0276  0.5413
 1582TIP3    H128941   3.562   5.027  17.391 -0.4809 -1.1932 -0.4364
 1582TIP3    H228942   3.453   5.126  17.426  2.1869  1.2502  1.3217
 1583TIP3   OH228943   5.085   0.732  17.396 -0.3187  0.0527 -0.6317
 1583TIP3    H128944   4.999   0.763  17.368 -0.7814  1.5580  2.1283
 1583TIP3    H228945   5.066   0.662  17.459  0.4024  0.8661  0.5251
 1584TIP3   OH228946   5.485   2.144  16.748 -0.1294  0.3225 -0.2601
 1584TIP3    H128947   5.490   2.114  16.839  0.1425  1.6006  0.1719
 1584TIP3    H228948   5.397   2.119  16.719  0.4469 -1.8030 -0.2953
 1585TIP3   OH228949   0.244   3.044  16.869 -0.3388  0.3269 -0.5181
 1585TIP3    H128950   0.286   2.966  16.905 -0.5183 -0.7215 -2.4665
 1585TIP3    H228951   0.278   3.116  16.922 -0.3992 -1.0639  1.5374
 1586TIP3   OH228952   5.403   0.362  14.016 -0.2156 -0.3513  0.6960
 1586TIP3    H128953   5.357   0.293  14.064  1.2358 -0.7188  1.6367
 1586TIP3    H228954   5.431   0.423  14.085 -0.2611  0.4470  0.0167
 1587TIP3   OH228955   1.909   6.443  17.995  0.2845 -0.4469  0.3753
 1587TIP3    H128956   1.903   6.522  18.050 -1.1079 -0.3844  0.1693
 1587TIP3    H228957   1.922   6.372  18.057 -1.9342 -0.4619  0.9153
 1588TIP3   OH228958   4.207   1.412  15.802 -0.1602 -0.3711 -0.5619
 1588TIP3    H128959   4.226   1.395  15.709  0.4530 -1.3502 -0.2689
 1588TIP3    H228960   4.280   1.372  15.849 -0.5987 -0.1077  0.3658
 1589TIP3   OH228961   2.515   1.727  14.960  0.8544 -0.2833  0.0718
 1589TIP3    H128962   2.490   1.769  15.042 -3.7622 -0.8406 -0.7838
 1589TIP3    H228963   2.555   1.644  14.986 -0.5171 -0.4473  1.8305
 1590TIP3   OH228964   2.709   3.292  17.014  0.1844  0.3093  0.4677
 1590TIP3    H128965   2.650   3.318  17.085 -1.8723  1.2819 -1.4813
 1590TIP3    H228966   2.691   3.199  17.000  0.0439  0.2968  0.7315
 1591TIP3   OH228967   3.646   1.548  15.682 -0.0333  0.1716  0.1483
 1591TIP3    H128968   3.691   1.487  15.741 -0.2308 -0.4149 -0.3014
 1591TIP3    H228969   3.557   1.514  15.676  0.1776 -0.2165 -1.0817
 1592TIP3   OH228970   2.663   3.505  15.803  0.4001  0.2530  0.8056
 1592TIP3    H128971   2.625   3.418  15.812 -1.8601  1.0328 -0.3437
 1592TIP3    H228972   2.588   3.564  15.805  1.8126  2.1370  0.8982
 1593TIP3   OH228973   1.873   6.605  15.221  0.4409  0.7327  0.7107
 1593TIP3    H128974   1.900   6.695  15.203 -0.3148  0.6394 -1.0211
 1593TIP3    H228975   1.802   6.614  15.284 -0.4685  1.4609 -0.3728
 1594TIP3   OH228976   1.313   1.867  16.514 -0.3699  0.2559 -0.8143
 1594TIP3    H128977   1.256   1.926  16.563 -1.4984 -0.0716 -1.6985
 1594TIP3    H228978   1.356   1.924  16.450  0.8983  0.6349  0.3261
 1595TIP3   OH228979   5.349   0.952  17.889 -0.5545 -0.2296  0.3289
 1595TIP3    H128980   5.270   0.986  17.848 -1.0125 -1.1436  0.4282
 1595TIP3    H228981   5.420   1.006  17.854 -0.7716 -1.5732 -2.4985
 1596TIP3   OH228982   3.009   6.647  15.298  0.4452 -0.7512  0.5480
 1596TIP3    H128983   2.967   6.706  15.360  0.6068  0.6352 -0.6106
 1596TIP3    H228984   2.971   6.561  15.318 -2.2797  0.2556  0.1695
 1597TIP3   OH228985   4.212   1.243  15.298  0.2311 -0.0617  0.1516
 1597TIP3    H128986   4.213   1.153  15.267  1.8651 -0.7115  1.9210
 1597TIP3    H228987   4.234   1.296  15.221 -1.1159 -1.0957 -0.9902
 1598TIP3   OH228988   0.330   5.759  17.514  0.4662  0.1030  0.5186
 1598TIP3    H128989   0.396   5.716  17.568 -1.1064 -2.1098  0.8075
 1598TIP3    H228990   0.256   5.774  17.573 -0.4085 -0.2588 -0.4372
 1599TIP3   OH228991   2.705   6.575  16.079  0.0507  0.0249 -0.2828
 1599TIP3    H128992   2.778   6.535  16.126 -1.0729 -1.1840  0.5067
 1599TIP3    H228993   2.703   6.530  15.994 -0.5537 -0.8613  0.1926
 1600TIP3   OH228994   1.105   2.158  17.525 -0.0048  0.3897 -0.2640
 1600TIP3    H128995   1.178   2.208  17.561 -0.3301  2.1096 -1.8770
 1600TIP3    H228996   1.080   2.099  17.596  1.8005  0.9963  0.9432
 1601TIP3   OH228997   2.373   2.500  15.212 -0.1007 -0.2069 -0.2774
 1601TIP3    H128998   2.362   2.594  15.228  1.6764 -0.1029  0.5648
 1601TIP3    H228999   2.439   2.496  15.142 -0.8582 -0.8237 -0.9671
 1602TIP3   OH229000   5.283   2.078  15.916 -0.3069  0.4428  0.1476
 1602TIP3    H129001   5.284   2.032  16.000  1.4377  0.2672  0.0693
 1602TIP3    H229002   5.308   2.168  15.938  1.0395  0.1883 -0.2618
 1603TIP3   OH229003   4.850   0.492  15.164  0.4991 -0.0012 -0.3175
 1603TIP3    H129004   4.922   0.474  15.224 -0.5422  1.4902  1.5038
 1603TIP3    H229005   4.879   0.568  15.114 -0.3198  1.6594  1.5591
 1604TIP3   OH229006   2.747   1.447  13.987 -0.6402 -0.5468 -0.0690
 1604TIP3    H129007   2.713   1.530  13.953  0.4569  0.4992  1.2510
 1604TIP3    H229008   2.782   1.469  14.073 -1.9591 -2.7700  1.1437
 1605TIP3   OH229009   6.086   5.270  15.413 -0.5322 -0.1547  0.2349
 1605TIP3    H129010   6.048   5.309  15.335  0.4885 -1.2435 -0.8305
 1605TIP3    H229011   6.127   5.189  15.383  3.0126  1.0812  1.1503
 1606TIP3   OH229012   1.997   6.156  16.876 -0.0365 -0.4102  0.2101
 1606TIP3    H129013   1.949   6.143  16.958 -1.6758  0.8107 -0.4826
 1606TIP3    H229014   1.929   6.182  16.813  1.3446 -0.1506 -1.2326
 1607TIP3   OH229015   2.394   4.055  17.492  0.1817  0.1538 -0.1133
 1607TIP3    H129016   2.476   4.100  17.478  0.8988 -1.2550 -0.6638
 1607TIP3    H229017   2.353   4.051  17.406 -0.5949  1.0500  0.1951
 1608TIP3   OH229018   1.677   4.750  16.845  1.1006  0.0346  0.1779
 1608TIP3    H129019   1.684   4.844  16.860 -0.6327  0.4194 -1.0541
 1608TIP3    H229020   1.596   4.725  16.889  0.8471 -0.6012 -0.6248
 1609TIP3   OH229021   2.478   6.237  16.414 -0.4524  0.4844  0.0716
 1609TIP3    H129022   2.474   6.287  16.333  1.1631 -0.3762 -0.5899
 1609TIP3    H229023   2.427   6.158  16.397  0.9180 -0.2895 -0.5918
 1610TIP3   OH229024   4.097   5.253  14.817  0.7917  0.4483  0.3182
 1610TIP3    H129025   4.180   5.262  14.770  0.3726  0.1149 -0.4958
 1610TIP3    H229026   4.090   5.160  14.836  0.6138  0.4778  0.4003
 1611TIP3   OH229027   3.863   4.550  17.382  0.2879 -0.5042  0.1134
 1611TIP3    H129028   3.848   4.643  17.397 -0.2942 -0.7332  1.0543
 1611TIP3    H229029   3.946   4.531  17.426 -0.2715 -0.6925  1.1355
 1612TIP3   OH229030   5.406   5.798  16.284 -0.4317 -0.2101 -0.4660
 1612TIP3    H129031   5.422   5.883  16.325  0.5605 -1.0203  0.9223
 1612TIP3    H229032   5.433   5.809  16.193 -0.5641  1.0265 -0.3676
 1613TIP3   OH229033   6.144   6.517  15.182 -0.2654 -0.3423 -0.6073
 1613TIP3    H129034   6.142   6.423  15.163  0.1862 -0.3336 -0.7119
 1613TIP3    H229035   6.178   6.523  15.272 -1.5049 -0.3354 -0.1102
 1614TIP3   OH229036   1.768   2.532  16.702  0.1059  0.3028  0.8132
 1614TIP3    H129037   1.689   2.497  16.660 -0.7839  3.0228 -0.0357
 1614TIP3    H229038   1.825   2.457  16.712 -2.4906 -1.7488  1.2562
 1615TIP3   OH229039   3.198   2.003  16.908  0.0770  0.3516 -0.3847
 1615TIP3    H129040   3.192   2.028  16.816 -0.6005  0.0346 -0.4357
 1615TIP3    H229041   3.149   2.070  16.954 -1.0145 -0.3812 -0.4359
 1616TIP3   OH229042   1.334   0.629  17.220 -0.2478  0.3951  0.0856
 1616TIP3    H129043   1.399   0.689  17.256 -0.7942  1.1731 -0.2170
 1616TIP3    H229044   1.373   0.542  17.232  0.1919  0.7340  1.2740
 1617TIP3   OH229045   6.551   2.304  16.262  0.4635  0.0720  0.2803
 1617TIP3    H129046   6.623   2.270  16.208  0.4327 -0.4177  0.5364
 1617TIP3    H229047   6.594   2.362  16.325  0.6465 -0.2913  0.4924
 1618TIP3   OH229048   0.893   6.719  14.540 -0.1802 -0.2253  0.1710
 1618TIP3    H129049   0.957   6.703  14.609  1.0397 -1.5304 -1.1817
 1618TIP3    H229050   0.887   6.636  14.493  0.5413  1.0939 -2.4821
 1619TIP3   OH229051   3.384   4.481  15.482 -0.5180  0.0904  0.1425
 1619TIP3    H129052   3.328   4.554  15.457 -1.3146 -0.7572 -0.6504
 1619TIP3    H229053   3.428   4.510  15.561 -1.8813  0.9023  0.6374
 1620TIP3   OH229054   0.288   4.393  14.840  0.1480 -0.6236 -0.1089
 1620TIP3    H129055   0.211   4.350  14.801 -2.4404  2.0786  1.6400
 1620TIP3    H229056   0.326   4.442  14.767 -0.2412 -1.3423 -0.8268
 1621TIP3   OH229057   3.855   5.708  15.184 -0.0918  0.0056 -0.0844
 1621TIP3    H129058   3.851   5.683  15.092 -0.9033  0.7217 -0.2578
 1621TIP3    H229059   3.946   5.735  15.198 -0.0164  0.1113 -0.7413
 1622TIP3   OH229060   2.222   3.167  15.510  0.0678  0.4239 -0.0451
 1622TIP3    H129061   2.242   3.205  15.424 -2.4259  0.6541 -0.6087
 1622TIP3    H229062   2.200   3.242  15.565  0.3153  0.1725  0.4009
 1623TIP3   OH229063   5.692   4.365  15.971 -0.2869  0.1295 -0.1602
 1623TIP3    H129064   5.746   4.320  16.037  0.5044  1.4826  0.1620
 1623TIP3    H229065   5.602   4.354  16.002 -0.1773 -1.5062 -0.2903
 1624TIP3   OH229066   3.833   0.545  16.729  0.4253  0.7455  0.5364
 1624TIP3    H129067   3.746   0.564  16.765  0.5795  2.1166  0.2546
 1624TIP3    H229068   3.822   0.462  16.683 -0.5357  0.5122  1.1485
 1625TIP3   OH229069   0.384   4.244  15.797  0.0637 -0.4224 -0.4608
 1625TIP3    H129070   0.302   4.289  15.816  1.0033  0.6413  1.3792
 1625TIP3    H229071   0.421   4.292  15.723  0.0915  0.5756  0.1872
 1626TIP3   OH229072   2.907   2.472  16.953 -0.1936  0.5337 -0.0200
 1626TIP3    H129073   2.840   2.439  16.893  1.0442 -3.9459  0.6338
 1626TIP3    H229074   2.859   2.489  17.035 -0.7734 -2.3811  0.3735
 1627TIP3   OH229075   2.857   3.988  14.659  0.7010  0.0388 -0.6447
 1627TIP3    H129076   2.935   3.974  14.605  0.3606  1.0377 -1.4287
 1627TIP3    H229077   2.863   4.081  14.684  0.7293 -0.3419  0.8501
 1628TIP3   OH229078   3.394   1.463  16.463 -0.0680  0.1013 -0.1147
 1628TIP3    H129079   3.370   1.387  16.516  0.4969  0.4767  0.7015
 1628TIP3    H229080   3.488   1.456  16.451 -0.1530  0.1655 -0.8506
 1629TIP3   OH229081   0.428   0.175  17.287 -0.5532 -0.1163  0.1521
 1629TIP3    H129082   0.478   0.098  17.259 -0.2409  0.4403 -0.8460
 1629TIP3    H229083   0.468   0.200  17.370 -1.0530 -1.3790  0.8095
 1630TIP3   OH229084   2.564   6.278  17.617 -0.4839 -0.2619  0.6741
 1630TIP3    H129085   2.518   6.205  17.574 -1.0773 -0.5458  1.7423
 1630TIP3    H229086   2.656   6.263  17.597 -0.8145  0.4823 -1.7731
 1631TIP3   OH229087   0.155   5.383  17.800 -0.3633  0.1792 -0.2920
 1631TIP3    H129088   0.192   5.332  17.728  0.3417  0.9466 -0.4850
 1631TIP3    H229089   0.223   5.382  17.867 -1.4631 -1.5340  0.8961
 1632TIP3   OH229090   4.591   2.990  15.849  0.2090  0.6906 -0.1403
 1632TIP3    H129091   4.572   2.896  15.844  0.9581  0.5526 -0.5552
 1632TIP3    H229092   4.615   3.005  15.940  1.6533  0.1523 -0.4072
 1633TIP3   OH229093   3.644   5.462  15.453  0.0603 -0.1788  0.2821
 1633TIP3    H129094   3.617   5.541  15.501  1.3659 -0.9589  2.3990
 1633TIP3    H229095   3.632   5.391  15.515 -0.4832 -1.6122 -1.3896
 1634TIP3   OH229096   2.991   1.886  16.715  0.4084  0.8587 -0.0441
 1634TIP3    H129097   3.065   1.938  16.683  0.4449  1.5354  1.0694
 1634TIP3    H229098   2.941   1.947  16.770 -0.8011  0.3186 -0.5187
 1635TIP3   OH229099   2.356   4.480  16.083 -0.4595  0.2764  0.5903
 1635TIP3    H129100   2.286   4.441  16.032 -0.2911  0.2048  0.4151
 1635TIP3    H229101   2.327   4.570  16.099 -0.7541  0.1448  0.8228
 1636TIP3   OH229102   1.085   0.284  16.785 -0.2990 -0.0847 -0.1592
 1636TIP3    H129103   1.084   0.363  16.730  1.1895 -0.9086 -1.4400
 1636TIP3    H229104   1.034   0.220  16.736  1.8579 -1.1326 -1.1398
 1637TIP3   OH229105   4.089   4.519  17.684  0.2409  0.5479 -0.3221
 1637TIP3    H129106   4.092   4.594  17.624  1.9208  0.7976  0.0240
 1637TIP3    H229107   4.142   4.546  17.759 -1.4637  0.0728  1.1053
 1638TIP3   OH229108   2.304   3.089  16.502  0.1244 -0.1724  0.0301
 1638TIP3    H129109   2.367   3.025  16.468 -0.0079 -0.3053  0.0321
 1638TIP3    H229110   2.218   3.053  16.478  0.0771  0.6834 -1.2087
 1639TIP3   OH229111   1.543   5.395  16.442  0.6224  0.5620  0.2817
 1639TIP3    H129112   1.486   5.471  16.428  0.9999  0.9573  0.8602
 1639TIP3    H229113   1.495   5.322  16.404  0.2336  1.0828 -0.2456
 1640TIP3   OH229114   2.756   1.254  17.205 -0.0413  0.2127 -0.1256
 1640TIP3    H129115   2.767   1.336  17.253 -1.2374  0.7592 -0.7249
 1640TIP3    H229116   2.661   1.244  17.198  0.0425 -1.7401  0.7688
 1641TIP3   OH229117   2.349   1.045  16.108 -0.4902 -0.1155 -0.0828
 1641TIP3    H129118   2.326   1.137  16.118  1.5896  0.3831  0.4509
 1641TIP3    H229119   2.334   1.007  16.195 -1.0023 -0.2112 -0.2105
 1642TIP3   OH229120   1.978   0.954  15.718  0.3540  0.3785  0.0263
 1642TIP3    H129121   1.936   0.964  15.803 -0.0385  2.1043 -0.3240
 1642TIP3    H229122   1.957   0.864  15.691 -0.1493  0.0638  1.4062
 1643TIP3   OH229123   1.464   3.636  15.482 -0.1106  0.1746 -0.0156
 1643TIP3    H129124   1.559   3.639  15.492 -0.0941  1.1431 -0.3261
 1643TIP3    H229125   1.451   3.634  15.387 -0.4065  0.7862  0.0083
 1644TIP3   OH229126   0.015   5.484  17.539 -0.1184 -0.0859 -0.5816
 1644TIP3    H129127   0.021   5.505  17.632 -0.4045 -0.6435 -0.4361
 1644TIP3    H229128   0.015   5.388  17.536 -1.1114 -0.0738 -1.0920
 1645TIP3   OH229129   0.728   0.089  15.643 -0.4581  0.1647 -0.1651
 1645TIP3    H129130   0.680   0.160  15.686 -0.0597 -0.1856  0.8989
 1645TIP3    H229131   0.721   0.108  15.549 -2.9134 -0.0395 -0.0787
 1646TIP3   OH229132   3.122   5.699  17.092  0.2217 -0.1036 -0.3266
 1646TIP3    H129133   3.146   5.776  17.040  1.6528 -0.8626 -0.8428
 1646TIP3    H229134   3.170   5.627  17.051  0.7135 -0.8807  1.5201
 1647TIP3   OH229135   2.168   5.269  15.327 -0.3372 -0.4105  0.1835
 1647TIP3    H129136   2.190   5.177  15.337 -0.5491 -0.3451  1.3947
 1647TIP3    H229137   2.251   5.312  15.308 -0.2094 -0.8171 -0.2005
 1648TIP3   OH229138   6.212   0.820  15.481  0.3870 -0.0608 -0.2622
 1648TIP3    H129139   6.258   0.848  15.402 -0.0622 -2.3865 -1.4536
 1648TIP3    H229140   6.121   0.843  15.465  0.3699 -0.1104 -0.2378
 1649TIP3   OH229141   0.267   3.125  17.334 -0.2735 -0.2139  0.2907
 1649TIP3    H129142   0.314   3.181  17.395 -0.0206  0.4760 -0.5185
 1649TIP3    H229143   0.190   3.177  17.309  0.0655 -0.1463 -0.6175
 1650TIP3   OH229144   4.884   6.710  16.093  0.3037  0.0105 -0.1244
 1650TIP3    H129145   4.861   6.692  16.002  1.6848 -0.4984 -0.3894
 1650TIP3    H229146   4.850   6.635  16.141  1.4262 -0.7774 -0.5241
 1651TIP3   OH229147   4.683   4.295  14.883  0.3076  0.6772 -0.3126
 1651TIP3    H129148   4.754   4.334  14.833 -2.0009  1.8309 -3.0018
 1651TIP3    H229149   4.666   4.211  14.840  1.7379 -0.9696  2.0829
 1652TIP3   OH229150   2.151   6.280  16.055  0.2206  0.2162 -0.7825
 1652TIP3    H129151   2.207   6.221  16.004 -1.0530 -0.7132 -1.1490
 1652TIP3    H229152   2.150   6.361  16.004 -0.4083 -0.4482 -1.8801
 1653TIP3   OH229153   0.063   1.469  16.990 -0.1304 -0.3649  0.6606
 1653TIP3    H129154   0.140   1.524  17.000  0.3669 -0.9237  0.0347
 1653TIP3    H229155   0.051   1.461  16.895 -1.5998  0.5736  0.7373
 1654TIP3   OH229156   3.976   6.137  15.842  0.0404 -0.3782  0.8401
 1654TIP3    H129157   4.045   6.072  15.856 -0.1156 -0.5465  0.8305
 1654TIP3    H229158   3.923   6.134  15.922 -3.2332 -4.1899 -1.0949
 1655TIP3   OH229159   5.085   3.289  15.444 -0.0847  0.3291 -0.0377
 1655TIP3    H129160   5.165   3.254  15.484 -0.0417  0.1912 -0.2471
 1655TIP3    H229161   5.084   3.253  15.355 -0.3943  0.3067 -0.0275
 1656TIP3   OH229162   5.311   3.540  16.779  0.1709 -0.2099 -0.5061
 1656TIP3    H129163   5.231   3.531  16.830  0.4830  1.2734  0.3175
 1656TIP3    H229164   5.378   3.495  16.830 -0.0504 -1.1743 -1.0402
 1657TIP3   OH229165   2.853   0.690  17.147 -0.4026 -0.5411 -0.1102
 1657TIP3    H129166   2.911   0.635  17.200 -0.1555 -0.6929 -0.5285
 1657TIP3    H229167   2.766   0.652  17.158 -0.5882  0.2021  1.2112
 1658TIP3   OH229168   2.988   0.233  17.171  0.9169 -0.2911  0.4813
 1658TIP3    H129169   2.955   0.168  17.232 -0.2856  0.0821  0.2486
 1658TIP3    H229170   2.922   0.237  17.101  1.4391  0.4884  0.0074
 1659TIP3   OH229171   0.201   3.282  17.833  0.4837 -0.5260 -0.2907
 1659TIP3    H129172   0.282   3.322  17.802  0.3045 -0.5217 -0.7617
 1659TIP3    H229173   0.132   3.337  17.796  0.2157 -1.5336 -1.3493
 1660TIP3   OH229174   2.443   1.094  16.571 -0.3249 -0.0006 -0.6674
 1660TIP3    H129175   2.422   1.035  16.643 -0.8092 -1.8525 -2.2443
 1660TIP3    H229176   2.404   1.178  16.597 -1.3578 -0.8700  0.7624
 1661TIP3   OH229177   2.256   0.443  16.530 -0.3932  0.0410 -0.1239
 1661TIP3    H129178   2.185   0.392  16.571 -0.3290 -0.1176 -0.2097
 1661TIP3    H229179   2.221   0.532  16.524 -0.9835 -0.2496 -1.1095
 1662TIP3   OH229180   2.965   0.506  17.279  0.1879 -0.2206  0.1626
 1662TIP3    H129181   2.884   0.470  17.315  0.3321 -0.1488  0.5538
 1662TIP3    H229182   3.029   0.436  17.291  0.2680 -0.1468  0.1565
 1663TIP3   OH229183   5.859   1.912  15.413 -0.4706 -0.4295 -0.4758
 1663TIP3    H129184   5.929   1.882  15.355 -0.2098 -0.7126 -0.0131
 1663TIP3    H229185   5.903   1.943  15.491 -0.8900 -1.2028  0.0822
 1664TIP3   OH229186   2.178   6.215  17.644 -0.0387  0.4452 -0.5333
 1664TIP3    H129187   2.188   6.285  17.708 -1.0751  0.6414 -0.5660
 1664TIP3    H229188   2.224   6.248  17.566  1.2135  0.2095  0.0768
 1665TIP3   OH229189   3.317   0.101  17.951 -0.1737  0.1460 -0.0976
 1665TIP3    H129190   3.370   0.021  17.950  1.4138  1.1212  0.5857
 1665TIP3    H229191   3.227   0.071  17.961  0.5121 -1.5187  1.6698
 1666TIP3   OH229192   1.587   0.195  17.456  0.3288  0.0089  0.4873
 1666TIP3    H129193   1.567   0.118  17.402  0.8471  0.4253 -0.3274
 1666TIP3    H229194   1.682   0.195  17.463  0.3716  0.8320  0.0715
 1667TIP3   OH229195   3.188   1.182  17.412  0.3692 -0.5378  0.4268
 1667TIP3    H129196   3.149   1.212  17.331  0.9184 -1.6553 -0.2801
 1667TIP3    H229197   3.146   1.234  17.480 -1.7028 -1.0807 -0.3589
 1668TIP3   OH229198   5.157   5.690  16.351  0.0332  0.1548 -0.5440
 1668TIP3    H129199   5.172   5.677  16.257 -1.2088  1.0630 -0.8965
 1668TIP3    H229200   5.217   5.761  16.374  0.0990  0.1602 -0.7249
 1669TIP3   OH229201   2.481   0.689  13.679  0.0699 -0.0931  0.4173
 1669TIP3    H129202   2.510   0.754  13.615  0.5196  0.4785  1.1997
 1669TIP3    H229203   2.455   0.614  13.625 -0.7151  0.8068 -0.5218
 1670TIP3   OH229204   1.512   4.922  16.059  0.0555  0.3071 -0.2170
 1670TIP3    H129205   1.543   4.969  16.137  0.5475  1.0305 -0.8376
 1670TIP3    H229206   1.440   4.974  16.026 -0.2087 -0.0458 -0.2059
 1671TIP3   OH229207   1.837   5.340  15.338 -0.4959  0.1581  0.1559
 1671TIP3    H129208   1.862   5.394  15.413 -0.9437 -0.6177  0.8838
 1671TIP3    H229209   1.774   5.394  15.290 -0.0544  0.7414  0.2201
 1672TIP3   OH229210   1.568   2.882  15.270 -0.5151  0.0352 -0.5904
 1672TIP3    H129211   1.474   2.900  15.273 -0.4724  0.3010 -0.8954
 1672TIP3    H229212   1.584   2.846  15.183 -0.5184 -1.0633 -0.1566
 1673TIP3   OH229213   3.283   6.063  14.336  0.5051  0.1611  0.4411
 1673TIP3    H129214   3.254   5.975  14.360 -0.4941  0.3615 -0.0016
 1673TIP3    H229215   3.376   6.064  14.359  0.2663 -0.6229  1.5281
 1674TIP3   OH229216   0.718   4.053  15.362  0.5574  0.1303  0.1337
 1674TIP3    H129217   0.751   4.081  15.277 -0.8906  0.0360 -0.4851
 1674TIP3    H229218   0.648   3.991  15.342  1.0593 -0.9103  1.4261
 1675TIP3   OH229219   4.336   6.080  16.563 -0.2164  0.4673 -0.0377
 1675TIP3    H129220   4.349   6.171  16.590  2.7433 -0.4693  2.2668
 1675TIP3    H229221   4.398   6.067  16.491  1.4042 -0.3069  1.4122
 1676TIP3   OH229222   2.709   5.294  16.795  0.0980 -0.5902 -0.1512
 1676TIP3    H129223   2.647   5.301  16.722 -0.8763 -0.9418  0.6093
 1676TIP3    H229224   2.795   5.293  16.754 -0.2199  2.3397 -1.1375
 1677TIP3   OH229225   1.335   5.195  18.196 -0.0684  0.2167  0.0701
 1677TIP3    H129226   1.241   5.186  18.211  0.0629  0.0588  0.8465
 1677TIP3    H229227   1.342   5.266  18.132 -0.7061  0.3109  0.0925
 1678TIP3   OH229228   0.448   6.704  15.550 -0.1695 -0.3300  0.0468
 1678TIP3    H129229   0.441   6.796  15.522 -0.6130 -0.2332  0.4607
 1678TIP3    H229230   0.521   6.704  15.611 -1.0005  0.0165  1.0707
 1679TIP3   OH229231   2.554   4.909  16.487 -0.2285  0.6713  0.1505
 1679TIP3    H129232   2.591   4.909  16.399 -1.1770  1.0304 -0.2609
 1679TIP3    H229233   2.527   4.818  16.502 -2.0491  1.0107 -0.8088
 1680TIP3   OH229234   2.436   4.265  15.171  0.1069  0.5485  0.2660
 1680TIP3    H129235   2.361   4.266  15.112 -0.2909  2.0860  0.7561
 1680TIP3    H229236   2.485   4.345  15.149  0.1618  0.9419  1.7278
 1681TIP3   OH229237   0.021   5.201  18.084 -0.0219  1.0171 -0.1150
 1681TIP3    H129238   0.046   5.116  18.119 -1.7219  1.4194  2.2674
 1681TIP3    H229239  -0.012   5.182  17.996 -1.6062 -0.9951  0.8471
 1682TIP3   OH229240   5.038   1.414  17.160  0.4126 -0.1710 -0.2757
 1682TIP3    H129241   4.990   1.476  17.215  1.4365  0.1983  0.2171
 1682TIP3    H229242   5.008   1.433  17.071  0.6559  0.9786 -0.1250
 1683TIP3   OH229243   6.530   4.868  17.296 -0.0384  0.0909 -0.8030
 1683TIP3    H129244   6.550   4.835  17.209  0.0470  0.9784 -1.1290
 1683TIP3    H229245   6.612   4.859  17.344 -0.3055 -1.1973 -0.5323
 1684TIP3   OH229246   0.408   1.886  15.792 -0.5024  0.6548  0.2559
 1684TIP3    H129247   0.324   1.892  15.745 -1.3343  1.4132  1.7658
 1684TIP3    H229248   0.389   1.919  15.879  1.4025  0.8849  0.6282
 1685TIP3   OH229249   3.522   5.514  16.346  0.2698 -0.4512 -0.1270
 1685TIP3    H129250   3.471   5.444  16.388  1.1085 -1.1414 -0.2532
 1685TIP3    H229251   3.564   5.472  16.272  1.8897 -0.1574  0.5939
 1686TIP3   OH229252   1.391   2.296  17.580  0.3554  0.3147  0.1539
 1686TIP3    H129253   1.406   2.324  17.670 -0.2549  0.3637  0.2453
 1686TIP3    H229254   1.449   2.350  17.527  0.8890  0.1222  0.5373
 1687TIP3   OH229255   6.619   1.308  16.606 -0.0585 -0.6798 -0.4759
 1687TIP3    H129256   6.609   1.251  16.530 -0.6342  0.3727 -1.2112
 1687TIP3    H229257   6.536   1.301  16.653 -0.4767  0.2261 -1.0578
 1688TIP3   OH229258   4.578   4.778  16.380 -0.0484  0.2199  0.3961
 1688TIP3    H129259   4.548   4.692  16.411  1.0302 -0.4089 -0.2583
 1688TIP3    H229260   4.639   4.758  16.310  1.1725  1.4950  1.0500
 1689TIP3   OH229261   3.587   5.556  15.168  0.4706 -0.5531  0.7307
 1689TIP3    H129262   3.622   5.517  15.248  0.9863 -0.6995  0.4386
 1689TIP3    H229263   3.632   5.640  15.161 -0.2409 -0.1294  1.0710
 1690TIP3   OH229264   1.215   0.909  14.683  0.2372 -0.4153 -0.0722
 1690TIP3    H129265   1.275   0.868  14.746 -0.0654 -1.5068 -0.4654
 1690TIP3    H229266   1.210   0.846  14.611 -1.0953 -0.1663 -0.2137
 1691TIP3   OH229267   1.300   6.307  17.458  0.1357 -0.2544 -0.5306
 1691TIP3    H129268   1.334   6.376  17.400  1.3433 -1.8852 -1.8503
 1691TIP3    H229269   1.379   6.264  17.491 -0.5104  0.6398  2.4464
 1692TIP3   OH229270   2.040   5.057  17.128 -0.3401 -0.2711 -0.1753
 1692TIP3    H129271   2.050   4.981  17.185  0.2291 -0.3738 -0.3967
 1692TIP3    H229272   1.946   5.069  17.119 -0.4452 -1.3533 -0.6577
 1693TIP3   OH229273   2.635   0.180  16.050 -0.2831 -0.2166  0.2775
 1693TIP3    H129274   2.680   0.107  16.092 -1.3512 -0.4684  1.0182
 1693TIP3    H229275   2.663   0.257  16.100  0.4637 -0.1722 -0.1980
 1694TIP3   OH229276   2.432   5.244  17.876  0.5608  0.2521 -0.4209
 1694TIP3    H129277   2.503   5.238  17.812  0.0197  3.2034 -1.4479
 1694TIP3    H229278   2.464   5.305  17.942 -0.4559  0.4753 -0.1135
 1695TIP3   OH229279   0.202   2.142  15.376  0.2514  0.3657 -0.0200
 1695TIP3    H129280   0.132   2.157  15.440 -0.0569 -4.1654  1.0475
 1695TIP3    H229281   0.281   2.134  15.430  0.2738 -1.8030 -0.3015
 1696TIP3   OH229282   0.591   2.097  15.163  0.2017 -0.6267 -0.1353
 1696TIP3    H129283   0.523   2.098  15.095  0.5635 -1.6877 -0.5342
 1696TIP3    H229284   0.671   2.123  15.117  0.2444 -0.2846  0.1304
 1697TIP3   OH229285   2.483   5.820  15.522 -0.1847 -0.0627  0.0213
 1697TIP3    H129286   2.472   5.771  15.440  0.8808  1.7124 -1.2452
 1697TIP3    H229287   2.500   5.910  15.495  0.6422  0.5117  2.1886
 1698TIP3   OH229288   0.704   5.229  14.892  0.2251  0.5879  0.1791
 1698TIP3    H129289   0.773   5.187  14.944  0.8784 -0.4391 -1.4505
 1698TIP3    H229290   0.623   5.187  14.922  0.5603  0.1784  0.5269
 1699TIP3   OH229291   6.489   4.249  17.800  0.0106 -0.1519 -0.3815
 1699TIP3    H129292   6.520   4.255  17.710 -0.4447 -0.8721 -0.5981
 1699TIP3    H229293   6.395   4.232  17.792 -0.0445 -0.1645  0.2273
 1700TIP3   OH229294   3.343   3.298  16.921  0.3807 -0.8201 -0.3600
 1700TIP3    H129295   3.293   3.365  16.968  0.1871  0.1236 -1.8321
 1700TIP3    H229296   3.405   3.265  16.985  0.2795  0.5673  0.4981
 1701TIP3   OH229297   1.108   6.248  16.473  0.1581  0.4544  0.0932
 1701TIP3    H129298   1.014   6.261  16.459 -0.1427 -0.5352  1.0023
 1701TIP3    H229299   1.127   6.298  16.553  0.4392  0.7249 -0.1381
 1702TIP3   OH229300   5.658   3.255  16.430  0.6508 -0.0931  0.0845
 1702TIP3    H129301   5.611   3.302  16.499  1.3142 -0.5898  0.9014
 1702TIP3    H229302   5.634   3.300  16.349 -0.4514  0.2644  0.5931
 1703TIP3   OH229303   1.204   3.259  15.582  0.0723 -0.2333 -0.0664
 1703TIP3    H129304   1.145   3.287  15.512  0.6851 -0.1387 -0.5559
 1703TIP3    H229305   1.270   3.328  15.586  1.0794 -1.1368 -0.6578
 1704TIP3   OH229306   5.720   4.233  16.564  0.4637 -0.2324 -0.0144
 1704TIP3    H129307   5.686   4.174  16.631 -0.5423  1.2903  0.8850
 1704TIP3    H229308   5.815   4.225  16.571  0.3538 -1.7680  0.0273
 1705TIP3   OH229309   1.489   6.163  15.549  0.2979  0.1349  0.3364
 1705TIP3    H129310   1.463   6.122  15.631 -1.2661 -0.0918 -0.2230
 1705TIP3    H229311   1.584   6.160  15.549  0.3371  0.1910  2.1504
 1706TIP3   OH229312   5.988   2.653  15.920 -0.6115  0.1853  0.0692
 1706TIP3    H129313   6.081   2.632  15.934 -0.7465 -0.5962 -0.1339
 1706TIP3    H229314   5.947   2.633  16.004 -0.7131 -0.1848 -0.0688
 1707TIP3   OH229315   2.374   3.123  17.468 -0.1775  0.5267  0.5461
 1707TIP3    H129316   2.448   3.097  17.413 -0.4246  0.9615 -0.0029
 1707TIP3    H229317   2.299   3.123  17.409 -0.5005  0.7242  0.9492
 1708TIP3   OH229318   4.217   4.984  17.537 -0.4522 -0.1829  0.0569
 1708TIP3    H129319   4.242   4.985  17.445 -0.4461 -1.0218  0.0399
 1708TIP3    H229320   4.301   4.984  17.584 -0.3195 -2.8493 -0.0016
 1709TIP3   OH229321   6.290   4.243  16.011  0.3280  0.0241  0.1330
 1709TIP3    H129322   6.243   4.226  16.093 -0.2997 -1.6819 -0.5279
 1709TIP3    H229323   6.381   4.223  16.031  0.3984  0.9419  0.7692
 1710TIP3   OH229324   3.045   4.524  18.112 -0.1797  0.3391 -0.3409
 1710TIP3    H129325   3.009   4.578  18.182  0.7966 -0.1329  0.5473
 1710TIP3    H229326   3.138   4.518  18.130  0.1414  0.3734 -1.8131
 1711TIP3   OH229327   0.283   5.096  17.878  0.0273  0.2806  0.1382
 1711TIP3    H129328   0.287   5.183  17.918 -0.4046 -0.0174  0.8481
 1711TIP3    H229329   0.241   5.041  17.944 -1.1052 -0.1396 -0.8803
 1712TIP3   OH229330   2.957   5.777  16.222 -0.1451  0.6088  0.0983
 1712TIP3    H129331   2.888   5.735  16.274 -1.2211  0.0336 -1.6951
 1712TIP3    H229332   3.032   5.719  16.231 -0.2741  0.5649  1.0477
 1713TIP3   OH229333   3.106   0.830  15.867 -0.2786 -0.7673  0.7469
 1713TIP3    H129334   3.057   0.897  15.820  0.4441 -0.2420  0.7334
 1713TIP3    H229335   3.060   0.821  15.951  1.0938  1.6460  1.8453
 1714TIP3   OH229336   2.614   3.878  16.398  0.3828 -0.3060 -0.3302
 1714TIP3    H129337   2.595   3.841  16.312  0.7703  0.9699 -0.9979
 1714TIP3    H229338   2.691   3.829  16.428  1.2604  0.3094 -1.4624
 1715TIP3   OH229339   0.200   4.676  16.737  0.1980 -0.3172 -0.5186
 1715TIP3    H129340   0.110   4.654  16.715  0.5874 -1.9190 -0.6572
 1715TIP3    H229341   0.196   4.708  16.828 -0.5449 -0.0554 -0.6437
 1716TIP3   OH229342   1.328   5.964  17.114 -0.3424  0.1359 -0.1181
 1716TIP3    H129343   1.407   6.014  17.091  0.6351 -0.6325  1.4046
 1716TIP3    H229344   1.360   5.896  17.174 -2.0261 -0.7992 -0.2360
 1717TIP3   OH229345   3.987   1.558  18.171  0.0506 -0.0931 -0.3158
 1717TIP3    H129346   4.065   1.580  18.121  0.4337 -1.4987 -0.3801
 1717TIP3    H229347   3.915   1.594  18.120  0.5401 -0.2621 -1.1380
 1718TIP3   OH229348   2.049   3.253  16.226 -0.1333 -0.2945  0.1313
 1718TIP3    H129349   2.054   3.220  16.136  1.8420  0.3134 -0.0278
 1718TIP3    H229350   1.957   3.280  16.236 -0.0987  0.9792 -2.2099
 1719TIP3   OH229351   5.655   3.143  16.142 -0.4398  0.3543 -0.1493
 1719TIP3    H129352   5.668   3.228  16.099 -0.5805  0.1005 -0.6929
 1719TIP3    H229353   5.561   3.126  16.135 -0.3910  0.0851 -0.1608
 1720TIP3   OH229354   4.368   4.238  15.849 -0.3965 -0.2157 -0.7010
 1720TIP3    H129355   4.398   4.311  15.795 -0.9560  0.0512 -0.6604
 1720TIP3    H229356   4.282   4.216  15.815 -0.3297 -0.7119 -0.5643
 1721TIP3   OH229357   3.770   0.314  17.311  0.8578  0.4169 -0.0490
 1721TIP3    H129358   3.837   0.268  17.261 -0.8297  0.0847 -2.1495
 1721TIP3    H229359   3.696   0.322  17.250 -0.4317  2.1880  1.6326
 1722TIP3   OH229360   6.385   4.159  17.107 -0.3363  0.3617  0.0259
 1722TIP3    H129361   6.351   4.116  17.186 -0.2405 -1.3673 -0.8308
 1722TIP3    H229362   6.335   4.122  17.035  1.6679 -0.4732 -1.0376
 1723TIP3   OH229363   0.411   2.715  15.486 -0.0332  0.0566 -0.1815
 1723TIP3    H129364   0.361   2.724  15.404  0.3601 -0.1705 -0.4461
 1723TIP3    H229365   0.441   2.803  15.506  1.2241 -0.1331 -1.1416
 1724TIP3   OH229366   1.153   0.033  14.678 -0.1769 -0.2558  0.3337
 1724TIP3    H129367   1.227   0.072  14.632 -0.0038  1.7863  2.1694
 1724TIP3    H229368   1.192  -0.036  14.732  0.4143  0.6624  1.1216
 1725TIP3   OH229369   2.729   2.662  14.724 -0.3605  0.0181 -0.2266
 1725TIP3    H129370   2.808   2.608  14.719  0.3673  1.0624 -0.1194
 1725TIP3    H229371   2.695   2.662  14.634  0.1846  0.1895 -0.4337
 1726TIP3   OH229372   2.781   4.453  14.901 -0.2549 -0.2466  0.1459
 1726TIP3    H129373   2.838   4.386  14.938 -0.6184  0.8083  2.8379
 1726TIP3    H229374   2.804   4.456  14.808  2.4812 -1.3841  0.7110
 1727TIP3   OH229375   1.304   5.794  15.603 -0.6754  0.0676  0.0065
 1727TIP3    H129376   1.371   5.817  15.668 -0.5235  0.1342 -0.1723
 1727TIP3    H229377   1.341   5.824  15.520 -0.9673  0.1818 -0.0815
 1728TIP3   OH229378   0.005   2.962  15.974  0.4207 -0.2091 -0.2553
 1728TIP3    H129379  -0.004   2.936  15.882  0.8396 -1.3221 -0.0023
 1728TIP3    H229380  -0.030   3.051  15.977 -1.1222 -0.7318 -1.1757
 1729TIP3   OH229381   1.948   4.979  16.484 -0.3341 -0.4455  0.0330
 1729TIP3    H129382   1.883   5.028  16.535  0.3835  1.3849 -0.7276
 1729TIP3    H229383   1.915   4.981  16.394 -0.3156 -1.4563 -0.0098
 1730TIP3   OH229384   1.198   0.290  15.745  0.3978  0.0237 -0.1316
 1730TIP3    H129385   1.265   0.287  15.813  0.0393 -0.9114  0.1994
 1730TIP3    H229386   1.154   0.205  15.751  0.3717 -0.0967 -1.5460
 1731TIP3   OH229387   4.361   5.313  17.680 -0.5359 -0.0518 -0.2038
 1731TIP3    H129388   4.343   5.251  17.751  0.2028 -1.5268 -1.2539
 1731TIP3    H229389   4.428   5.372  17.716  1.0936 -1.8211 -0.1765
 1732TIP3   OH229390   4.233   0.156  17.632  0.9034  0.3151  0.1277
 1732TIP3    H129391   4.327   0.145  17.614  0.1685 -2.1286 -3.1285
 1732TIP3    H229392   4.201   0.208  17.559 -0.4188  0.4713  0.7989
 1733TIP3   OH229393   6.656   3.250  16.091  0.0820 -0.8711  0.2277
 1733TIP3    H129394   6.718   3.252  16.164  1.3886 -1.5901 -0.8229
 1733TIP3    H229395   6.570   3.255  16.133  0.7042 -3.0754  1.9634
 1734TIP3   OH229396   6.341   3.699  17.266  0.5038 -0.4789  0.2249
 1734TIP3    H129397   6.285   3.770  17.235 -2.7643 -1.8619  2.4155
 1734TIP3    H229398   6.321   3.625  17.208 -1.4080 -1.4541  1.9768
 1735TIP3   OH229399   1.104   3.117  16.756 -0.6521 -0.0156  0.3079
 1735TIP3    H129400   1.163   3.172  16.807 -0.5564  1.3053 -1.1294
 1735TIP3    H229401   1.135   3.028  16.770  2.0641  0.6536 -0.7823
 1736TIP3   OH229402   5.243   5.548  17.053  0.8863 -0.1540  0.5442
 1736TIP3    H129403   5.177   5.522  16.989  1.6295 -0.7996  0.0282
 1736TIP3    H229404   5.223   5.640  17.072  0.7781  0.1150 -0.7806
 1737TIP3   OH229405   5.249   5.517  14.787  0.2854 -0.3367 -0.5756
 1737TIP3    H129406   5.277   5.485  14.873  0.2593  3.0420  0.8127
 1737TIP3    H229407   5.286   5.605  14.781 -1.2465  0.2081 -3.2770
 1738TIP3   OH229408   2.550   4.336  14.785  0.0179 -0.0445 -0.0814
 1738TIP3    H129409   2.641   4.356  14.805 -0.2738 -0.6818  2.0676
 1738TIP3    H229410   2.547   4.241  14.772 -0.4789 -0.1405  0.6903
 1739TIP3   OH229411   2.289   1.910  16.584  0.3200  0.6975  0.1419
 1739TIP3    H129412   2.276   1.815  16.577  2.1573  0.2982  1.4404
 1739TIP3    H229413   2.228   1.947  16.520 -0.9667 -1.3069  0.1052
 1740TIP3   OH229414   0.341   1.882  15.404  0.4322  0.4271  0.4127
 1740TIP3    H129415   0.306   1.794  15.391  0.6170  0.2114  1.3219
 1740TIP3    H229416   0.267   1.940  15.390  0.4956  0.2050 -1.0732
 1741TIP3   OH229417   5.187   5.985  17.185 -0.0225 -0.1274  0.3722
 1741TIP3    H129418   5.201   5.988  17.090  1.2986 -3.1388  0.3658
 1741TIP3    H229419   5.274   6.002  17.222 -0.6987  1.9725  1.1716
 1742TIP3   OH229420   1.493   6.014  14.531  0.4998  0.3715 -0.5022
 1742TIP3    H129421   1.414   6.035  14.481  1.1555  0.0168 -1.7305
 1742TIP3    H229422   1.565   6.028  14.470  1.3511  0.0292  0.3845
 1743TIP3   OH229423   0.392   0.626  14.885  0.2102 -0.1048 -0.1003
 1743TIP3    H129424   0.297   0.617  14.884  0.0739  0.8964 -1.8227
 1743TIP3    H229425   0.408   0.705  14.937  0.0203  0.1706 -0.4513
 1744TIP3   OH229426   5.986   4.730  17.947  0.1107 -0.0243  0.5294
 1744TIP3    H129427   5.988   4.679  18.029  1.4122  0.6186  0.9310
 1744TIP3    H229428   6.043   4.681  17.888  0.4491  0.3393  0.5461
 1745TIP3   OH229429   6.115   2.846  16.256  0.2081 -0.0020  0.5208
 1745TIP3    H129430   6.020   2.857  16.260  0.0983 -1.0689  1.2579
 1745TIP3    H229431   6.134   2.780  16.323  1.2806 -0.9383 -0.6544
 1746TIP3   OH229432   3.898   0.848  17.641 -0.2580  0.3402 -0.1674
 1746TIP3    H129433   3.878   0.915  17.707  2.6076  3.1910 -1.9063
 1746TIP3    H229434   3.985   0.817  17.665 -0.7268 -1.3887 -0.5593
 1747TIP3   OH229435   4.402   0.864  16.299  0.0411  0.5562 -0.2692
 1747TIP3    H129436   4.316   0.889  16.265 -0.1244 -0.0961 -0.3400
 1747TIP3    H229437   4.443   0.947  16.324 -0.3428  0.9266 -0.8572
 1748TIP3   OH229438   6.321   1.961  15.162  0.4439  0.1805  0.3515
 1748TIP3    H129439   6.251   1.902  15.190  0.4993  0.7795  1.8420
 1748TIP3    H229440   6.286   2.004  15.084 -1.3846  1.3669  1.7434
 1749TIP3   OH229441   1.864   0.640  15.930  0.5796 -0.1184  0.2547
 1749TIP3    H129442   1.842   0.650  16.023 -0.6045  0.9909 -0.1066
 1749TIP3    H229443   1.952   0.603  15.929  0.5327 -0.3139  1.8150
 1750TIP3   OH229444   3.959   2.281  17.216 -0.1120  0.2014 -0.1774
 1750TIP3    H129445   3.865   2.290  17.201 -0.6652  0.1970  2.6484
 1750TIP3    H229446   3.982   2.199  17.173 -1.7239 -0.4857  0.1643
 1751TIP3   OH229447   0.511   5.555  15.023  0.1718  0.4269 -0.6590
 1751TIP3    H129448   0.460   5.627  14.985 -0.8577 -0.5969 -1.3094
 1751TIP3    H229449   0.601   5.571  14.993 -0.3055  0.6081 -2.1002
 1752TIP3   OH229450   1.467   6.093  17.564 -1.0560 -0.3928  0.5158
 1752TIP3    H129451   1.374   6.075  17.578 -0.6727 -2.0500  1.1413
 1752TIP3    H229452   1.492   6.035  17.492 -0.3472 -0.5138  0.8478
 1753TIP3   OH229453   1.106   5.901  15.743  0.4872 -0.6534 -0.5411
 1753TIP3    H129454   1.166   5.854  15.685  0.4115  0.8511 -1.8913
 1753TIP3    H229455   1.022   5.901  15.698  0.6411  1.3119 -0.9155
 1754TIP3   OH229456   2.523   1.471  15.448 -0.3484 -0.2706  0.3733
 1754TIP3    H129457   2.470   1.547  15.426  1.8902  1.5121  0.7067
 1754TIP3    H229458   2.586   1.464  15.376  0.1060 -1.1918  0.8444
 1755TIP3   OH229459   3.056   5.220  14.408 -0.0300  0.1215 -0.7974
 1755TIP3    H129460   3.098   5.207  14.323  1.5768 -0.8184  0.0876
 1755TIP3    H229461   3.051   5.132  14.446 -2.7628  0.2017 -0.7956
 1756TIP3   OH229462   2.043   1.410  15.494 -0.9441  0.1844 -0.4416
 1756TIP3    H129463   2.030   1.315  15.500  0.1169 -0.0304 -1.0879
 1756TIP3    H229464   2.101   1.430  15.567 -1.2578  0.3589 -0.2403
 1757TIP3   OH229465   5.202   5.692  16.797  0.0492 -0.1413 -0.1150
 1757TIP3    H129466   5.263   5.626  16.764 -0.4403  0.0800 -1.5564
 1757TIP3    H229467   5.125   5.642  16.825  0.4707 -0.3322  0.7374
 1758TIP3   OH229468   1.062   0.553  15.450  0.3507 -0.1110 -0.2760
 1758TIP3    H129469   1.131   0.573  15.514 -0.4796 -1.2500  1.0582
 1758TIP3    H229470   0.999   0.500  15.500  0.0001 -1.6420 -2.2230
 1759TIP3   OH229471   2.790   2.756  17.397 -0.0495  0.1899 -0.0927
 1759TIP3    H129472   2.841   2.826  17.437  0.0816 -0.6441  1.2708
 1759TIP3    H229473   2.806   2.680  17.453 -2.4827 -0.2036  0.1624
 1760TIP3   OH229474   2.848   2.481  16.452 -0.1898  0.5375  0.0539
 1760TIP3    H129475   2.938   2.451  16.455 -0.0620  0.8135 -0.8909
 1760TIP3    H229476   2.841   2.530  16.370 -1.4492 -0.2861 -0.3550
 1761TIP3   OH229477   4.922   6.662  15.805  0.4882 -0.0706 -0.2315
 1761TIP3    H129478   4.998   6.610  15.830 -0.4041 -1.8172 -1.0388
 1761TIP3    H229479   4.869   6.604  15.751 -1.3557  1.1509  0.1735
 1762TIP3   OH229480   2.509   3.999  15.174 -0.5452 -0.6040 -0.2861
 1762TIP3    H129481   2.501   4.092  15.197 -0.6186 -0.5996 -0.3293
 1762TIP3    H229482   2.568   3.999  15.098  0.2148 -0.6713  0.2890
 1763TIP3   OH229483   6.138   1.216  15.903 -0.1450  0.1473 -0.5231
 1763TIP3    H129484   6.172   1.134  15.940 -0.8410 -1.6862 -3.5548
 1763TIP3    H229485   6.102   1.263  15.978 -0.0479 -2.5125  1.3340
 1764TIP3   OH229486   1.680   3.100  17.211  0.0567  0.3981 -0.4466
 1764TIP3    H129487   1.629   3.064  17.283 -1.2518  1.7035 -0.6747
 1764TIP3    H229488   1.698   3.025  17.154 -2.2003 -0.0112 -0.7039
 1765TIP3   OH229489   6.553   1.816  16.320 -0.1507  0.7098  0.2651
 1765TIP3    H129490   6.640   1.795  16.286  0.0873  2.7084 -0.5194
 1765TIP3    H229491   6.495   1.806  16.244 -0.4347  0.3867  0.5238
 1766TIP3   OH229492   6.423   0.055  17.747 -0.4357 -0.6092  0.4408
 1766TIP3    H129493   6.372   0.136  17.744 -1.5201 -1.1904  2.0419
 1766TIP3    H229494   6.386   0.001  17.677 -1.7908 -0.8659  1.3230
 1767TIP3   OH229495   2.154   0.725  16.590  0.5344  0.4222  0.1455
 1767TIP3    H129496   2.095   0.801  16.589  0.5121  0.5846  3.1683
 1767TIP3    H229497   2.229   0.754  16.642  0.9455 -1.3407  0.5999
 1768TIP3   OH229498   1.168   2.838  16.305  0.2102  0.1018 -0.1264
 1768TIP3    H129499   1.214   2.766  16.347  0.9146  0.8403  0.4122
 1768TIP3    H229500   1.094   2.797  16.261  0.6709 -0.9613  0.0450
 1769TIP3   OH229501   2.570   2.805  14.910  0.0058  0.1091 -0.1030
 1769TIP3    H129502   2.599   2.725  14.867  0.6835  0.2927  0.0119
 1769TIP3    H229503   2.573   2.872  14.842 -1.2683 -0.1002 -0.3956
 1770TIP3   OH229504   6.652   4.943  16.215 -0.0042 -0.0137 -0.0135
 1770TIP3    H129505   6.706   4.875  16.256 -0.6293  1.0346  2.7249
 1770TIP3    H229506   6.624   4.998  16.287  0.4977  3.2336 -2.1078
 1771TIP3   OH229507   1.930   1.135  15.507  0.4242 -0.3734  0.0969
 1771TIP3    H129508   1.836   1.114  15.507  0.3928 -0.2876  1.1876
 1771TIP3    H229509   1.970   1.067  15.561  1.0220 -0.5190 -0.5230
 1772TIP3   OH229510   0.072   3.144  18.287 -0.0691  0.7473  0.9581
 1772TIP3    H129511   0.135   3.195  18.339  1.5882  1.9263 -1.9424
 1772TIP3    H229512   0.013   3.209  18.250 -3.2007 -0.3487  3.6204
 1773TIP3   OH229513   1.290   5.391  15.515  0.2314  0.1160  0.1302
 1773TIP3    H129514   1.369   5.442  15.495 -0.5267  0.6239 -1.8400
 1773TIP3    H229515   1.231   5.454  15.556  0.0850  0.2845 -0.3339
 1774TIP3   OH229516   4.607   5.655  15.365 -0.2929 -0.4392  0.1831
 1774TIP3    H129517   4.668   5.623  15.298 -1.0093 -0.4300 -0.4815
 1774TIP3    H229518   4.538   5.700  15.316 -1.4647 -1.4694  0.8243
 1775TIP3   OH229519   5.998   2.417  15.394 -0.2151 -0.3866 -0.1140
 1775TIP3    H129520   6.032   2.390  15.479 -0.4934 -0.9048 -0.1669
 1775TIP3    H229521   5.911   2.378  15.389 -0.1190 -0.5323 -0.7283
 1776TIP3   OH229522   4.715   5.633  15.633  0.0018 -0.4586  0.3305
 1776TIP3    H129523   4.673   5.665  15.554  0.9590 -0.1493 -0.0641
 1776TIP3    H229524   4.642   5.615  15.694 -0.6927 -0.0998 -0.3859
 1777TIP3   OH229525   1.764   6.223  14.591  0.6199  0.3997 -0.0992
 1777TIP3    H129526   1.805   6.205  14.507 -0.1296  0.1441 -0.4179
 1777TIP3    H229527   1.837   6.228  14.653  0.9782 -2.9627 -0.0953
 1778TIP3   OH229528   3.753   0.673  16.130 -0.6496  0.3500 -0.0472
 1778TIP3    H129529   3.810   0.723  16.071 -0.5683 -0.1544 -0.4005
 1778TIP3    H229530   3.681   0.644  16.075 -1.0046  0.5739  0.2935
 1779TIP3   OH229531   4.507   4.936  16.691 -0.1370  0.3006 -0.3051
 1779TIP3    H129532   4.535   4.844  16.692 -0.6936  0.1252  1.5495
 1779TIP3    H229533   4.576   4.981  16.642  0.1750 -1.0748 -1.2011
 1780TIP3   OH229534   6.532   2.467  16.026 -0.4574 -0.4773  0.5612
 1780TIP3    H129535   6.476   2.436  16.097 -0.1513  0.4975  1.2522
 1780TIP3    H229536   6.614   2.493  16.069  0.8231 -2.4798 -0.4907
 1781TIP3   OH229537   3.257   2.276  17.937 -0.6547  0.0384 -0.0208
 1781TIP3    H129538   3.225   2.359  17.974  0.4091  0.1298  0.7666
 1781TIP3    H229539   3.185   2.243  17.884 -1.5282  0.8927  0.6046
 1782TIP3   OH229540   5.235   2.638  16.863 -0.0053 -0.6672  0.0947
 1782TIP3    H129541   5.311   2.579  16.860  2.1032  1.8570 -0.1221
 1782TIP3    H229542   5.212   2.651  16.771 -1.3557 -2.0823  0.1806
 1783TIP3   OH229543   3.917   6.295  15.625  0.2542  0.8000  0.1137
 1783TIP3    H129544   3.923   6.219  15.684 -0.2707  0.0236 -0.8135
 1783TIP3    H229545   3.999   6.294  15.576 -0.0031  0.4606 -0.3214
 1784TIP3   OH229546   0.370   3.296  17.590 -0.5661 -0.1498  0.9041
 1784TIP3    H129547   0.414   3.366  17.639 -1.6590  1.0363  0.2672
 1784TIP3    H229548   0.294   3.339  17.551 -0.8376 -1.5359 -0.1645
 1785TIP3   OH229549   0.398   5.690  17.937  0.4600  0.5061  0.3251
 1785TIP3    H129550   0.473   5.731  17.981  0.6132 -0.6907  1.2239
 1785TIP3    H229551   0.357   5.637  18.005  0.1950 -0.7150 -0.7594
 1786TIP3   OH229552   4.080   2.895  17.628  0.0999  0.1147 -0.1123
 1786TIP3    H129553   4.063   2.929  17.716  0.9373  2.3848 -0.7668
 1786TIP3    H229554   4.165   2.852  17.635 -0.0319 -0.0933  0.2699
 1787TIP3   OH229555   2.506   3.990  15.682  0.6219 -0.2619 -0.3812
 1787TIP3    H129556   2.445   3.962  15.751  0.7492 -0.7381 -0.4575
 1787TIP3    H229557   2.453   4.045  15.625  0.2571 -0.6750 -0.4474
 1788TIP3   OH229558   1.166   2.102  14.692  0.5063  0.4281  0.0600
 1788TIP3    H129559   1.140   2.157  14.617  0.8368 -1.0715 -1.2221
 1788TIP3    H229560   1.086   2.095  14.745 -0.6643 -0.8602 -1.7346
 1789TIP3   OH229561   3.283   1.725  16.440 -0.0566 -0.4558  0.3211
 1789TIP3    H129562   3.284   1.792  16.508 -0.7899  0.3679 -0.4447
 1789TIP3    H229563   3.348   1.661  16.469  0.8609  0.7014  0.9681
 1790TIP3   OH229564   1.945   4.722  16.843  0.1013  0.1326 -0.1727
 1790TIP3    H129565   1.966   4.709  16.936 -0.1459  0.4447 -0.0704
 1790TIP3    H229566   1.851   4.704  16.837  0.0872  0.2626 -0.3353
 1791TIP3   OH229567   0.537   1.734  16.835  0.5171  0.2193  0.9800
 1791TIP3    H129568   0.486   1.670  16.784  2.7680  0.0391 -1.2923
 1791TIP3    H229569   0.561   1.687  16.915  0.8305 -1.3020  0.0438
 1792TIP3   OH229570   4.381   3.288  15.175 -0.2705  0.0592  0.4606
 1792TIP3    H129571   4.340   3.293  15.089  0.4181 -1.9731 -0.0276
 1792TIP3    H229572   4.465   3.334  15.165 -0.4034  0.2470  0.1948
 1793TIP3   OH229573   4.983   6.297  16.332 -0.2417 -0.1371 -0.1602
 1793TIP3    H129574   4.932   6.375  16.353  0.0341 -0.0395  0.1574
 1793TIP3    H229575   5.073   6.321  16.353 -0.1225 -0.4575 -0.2999
 1794TIP3   OH229576   1.537   5.891  15.740 -0.1035 -0.5121  0.3939
 1794TIP3    H129577   1.541   5.974  15.787  1.8586 -0.2484 -0.1426
 1794TIP3    H229578   1.493   5.831  15.800 -1.1572  0.7869  0.9677
 1795TIP3   OH229579   4.078   6.374  16.478 -0.2313  0.1690  0.2938
 1795TIP3    H129580   4.116   6.366  16.391 -0.4858  1.7828  0.0024
 1795TIP3    H229581   3.992   6.413  16.463 -0.1915  0.6670  1.2664
 1796TIP3   OH229582   3.913   5.041  15.430  0.0664 -0.2102 -0.3853
 1796TIP3    H129583   3.888   5.113  15.372  0.0908 -0.9003 -1.2773
 1796TIP3    H229584   3.992   5.004  15.389 -0.0078 -0.8115  0.0033
 1797TIP3   OH229585   0.085   1.978  17.628  0.3289 -0.0059 -0.1755
 1797TIP3    H129586   0.025   2.038  17.672  1.0158  0.2084  0.5032
 1797TIP3    H229587   0.028   1.914  17.585 -0.3998 -0.5135  1.4302
 1798TIP3   OH229588   3.106   5.258  15.608 -0.3631 -0.2100  0.5819
 1798TIP3    H129589   3.165   5.280  15.535 -0.3056 -0.0608  0.6734
 1798TIP3    H229590   3.036   5.323  15.603 -0.9719 -0.8936 -0.0396
 1799TIP3   OH229591   0.642   3.074  15.841  0.3638  0.1239 -0.0994
 1799TIP3    H129592   0.568   3.098  15.897  1.2111  2.7755  0.0061
 1799TIP3    H229593   0.719   3.091  15.895  1.1408  1.1130 -1.4806
 1800TIP3   OH229594   3.711   6.095  14.270 -0.4433 -0.2524 -0.1826
 1800TIP3    H129595   3.693   6.182  14.233  0.0551 -0.0619  0.0210
 1800TIP3    H229596   3.744   6.044  14.196  0.7156  0.1772  0.0273
 1801TIP3   OH229597   0.289   4.594  17.520 -0.3981  0.3786 -0.1523
 1801TIP3    H129598   0.323   4.506  17.537  1.6747  1.5926  2.7297
 1801TIP3    H229599   0.224   4.609  17.589 -1.3702  0.8321 -1.1371
 1802TIP3   OH229600   0.547   5.468  16.472  0.2693 -0.2734  0.1371
 1802TIP3    H129601   0.554   5.390  16.418  0.5287 -0.6727  0.7315
 1802TIP3    H229602   0.453   5.485  16.478  0.0104 -1.9570  1.9481
 1803TIP3   OH229603   5.135   0.221  15.426  0.3205  0.4133  0.2136
 1803TIP3    H129604   5.192   0.236  15.501  0.9870 -1.8084  0.2307
 1803TIP3    H229605   5.195   0.211  15.352  0.1273 -2.6692  0.3479
 1804TIP3   OH229606   5.108   1.545  14.347  0.4705  0.4520  0.1229
 1804TIP3    H129607   5.041   1.588  14.295  0.1051  1.5389  1.4183
 1804TIP3    H229608   5.191   1.579  14.313  0.2454  0.9991  0.1075
 1805TIP3   OH229609   6.003   0.311  14.575  0.6876  0.1244 -0.0019
 1805TIP3    H129610   6.023   0.275  14.662 -1.0471 -0.7677  0.0760
 1805TIP3    H229611   6.015   0.238  14.515  1.2084  0.5572 -0.4376
 1806TIP3   OH229612   0.313   0.262  15.869 -0.1142  0.3812  0.0694
 1806TIP3    H129613   0.244   0.259  15.802 -2.0509 -2.7767  1.9894
 1806TIP3    H229614   0.283   0.329  15.930  0.5958  1.7602 -1.0141
 1807TIP3   OH229615   2.939   2.934  15.582  0.4817 -0.3010 -0.1938
 1807TIP3    H129616   2.976   2.942  15.670  0.6125 -0.3159 -0.2482
 1807TIP3    H229617   2.916   3.024  15.558  0.8615 -0.2377 -0.3241
 1808TIP3   OH229618   4.453   2.668  16.511 -0.5141 -0.0107 -0.8211
 1808TIP3    H129619   4.412   2.611  16.577  2.6958 -0.5025  0.9680
 1808TIP3    H229620   4.511   2.610  16.462  1.4869  1.2814 -0.1411
 1809TIP3   OH229621   5.097   1.966  17.917  0.3928 -0.5747 -0.1684
 1809TIP3    H129622   5.152   2.036  17.883  1.3867 -1.2727 -0.0510
 1809TIP3    H229623   5.115   1.891  17.860 -2.1277 -0.2475 -1.5180
 1810TIP3   OH229624   1.314   6.665  15.696 -0.2237 -0.0148 -0.0725
 1810TIP3    H129625   1.309   6.576  15.662  0.9440 -0.7418  1.4642
 1810TIP3    H229626   1.227   6.702  15.684 -1.1312 -1.8706  0.5082
 1811TIP3   OH229627   4.297   5.805  17.481 -0.3326  0.1022 -0.4383
 1811TIP3    H129628   4.321   5.811  17.573  2.7187 -2.2022 -0.8940
 1811TIP3    H229629   4.202   5.792  17.481 -0.0702 -3.8781  2.7657
 1812TIP3   OH229630   1.767   6.071  16.610 -0.0695 -0.2315 -0.3636
 1812TIP3    H129631   1.721   6.153  16.628  0.2318  0.0238 -0.7502
 1812TIP3    H229632   1.729   6.038  16.529 -2.1474 -1.9070  1.1638
 1813TIP3   OH229633   0.706   6.231  16.057 -0.0850  0.1921 -0.0329
 1813TIP3    H129634   0.709   6.236  16.152 -1.0576  1.6803 -0.0418
 1813TIP3    H229635   0.651   6.155  16.038 -0.0618  0.0148  0.5994
 1814TIP3   OH229636   4.310   1.459  16.340 -0.2117 -0.0834 -0.0738
 1814TIP3    H129637   4.261   1.461  16.422 -1.0408  1.9258 -0.5636
 1814TIP3    H229638   4.401   1.444  16.366 -0.5702 -0.2134  1.1326
 1815TIP3   OH229639   6.049   5.080  15.850 -0.4665  0.4322 -0.1946
 1815TIP3    H129640   6.130   5.122  15.821  0.0044 -0.5511 -0.3477
 1815TIP3    H229641   6.024   5.129  15.929 -0.5231  1.6701 -0.9506
 1816TIP3   OH229642   3.598   6.140  17.355  0.1797  0.2187  0.3536
 1816TIP3    H129643   3.517   6.118  17.310  0.4078  0.0865 -0.0003
 1816TIP3    H229644   3.664   6.084  17.313  0.5600  0.7541  0.2265
 1817TIP3   OH229645   3.440   3.730  17.246  0.3149  0.0485  0.4222
 1817TIP3    H129646   3.516   3.776  17.281  0.1033  2.4864 -2.0316
 1817TIP3    H229647   3.371   3.797  17.242 -0.6867 -1.0152 -1.2587
 1818TIP3   OH229648   2.969   5.158  16.636  0.1146 -0.2132 -0.0630
 1818TIP3    H129649   2.972   5.074  16.683  0.9842 -0.3231 -0.3083
 1818TIP3    H229650   2.930   5.136  16.551  2.2970 -0.8121 -0.9798
 1819TIP3   OH229651   5.226   6.158  15.561  0.0237 -0.2432 -0.4397
 1819TIP3    H129652   5.302   6.181  15.507 -0.2207 -0.4269 -0.8684
 1819TIP3    H229653   5.161   6.226  15.541  1.3418  2.2522  2.7923
 1820TIP3   OH229654   0.257   0.851  17.508  0.2265  0.3918  0.2345
 1820TIP3    H129655   0.201   0.783  17.546 -0.3102  0.7882  0.1695
 1820TIP3    H229656   0.333   0.804  17.475 -1.0335 -0.4801 -1.6495
 1821TIP3   OH229657   6.668   1.120  15.270  0.5763  0.7346 -0.8511
 1821TIP3    H129658   6.619   1.082  15.197  0.5851 -0.5893 -0.2094
 1821TIP3    H229659   6.754   1.139  15.234  0.7424 -0.3809 -1.0722
 1822TIP3   OH229660   0.533   6.398  17.252 -0.1533 -0.5522 -0.3601
 1822TIP3    H129661   0.594   6.325  17.243 -0.6620 -1.0111 -0.1674
 1822TIP3    H229662   0.470   6.387  17.181  0.6367  0.5776 -1.2646
 1823TIP3   OH229663   1.274   4.952  17.604  0.8595  0.3723  0.0657
 1823TIP3    H129664   1.246   4.908  17.684  0.7607 -0.7099 -0.5501
 1823TIP3    H229665   1.238   4.898  17.533  0.8488  1.3718 -0.7141
 1824TIP3   OH229666   4.735   4.346  17.939  0.1334  0.5301 -0.5411
 1824TIP3    H129667   4.684   4.296  17.875 -1.9338 -0.8034  1.8877
 1824TIP3    H229668   4.820   4.303  17.942 -0.9389 -1.7175  0.0448
 1825TIP3   OH229669   6.202   4.029  16.201 -0.1438  0.0408  0.1262
 1825TIP3    H129670   6.107   4.021  16.202 -0.4158  2.2443 -1.3012
 1825TIP3    H229671   6.225   4.061  16.288 -0.5421 -1.4692  0.8232
 1826TIP3   OH229672   4.391   0.932  17.032  0.3640  0.1279  0.4131
 1826TIP3    H129673   4.334   0.863  17.068  0.8949 -0.6593 -0.2132
 1826TIP3    H229674   4.340   0.970  16.961  0.1683  0.2062  0.5954
 1827TIP3   OH229675   1.987   1.131  15.218  0.0023 -0.3785 -0.2394
 1827TIP3    H129676   2.000   1.116  15.311 -1.9230 -0.9359 -0.0025
 1827TIP3    H229677   1.984   1.226  15.209 -0.2910 -0.3255  0.3700
 1828TIP3   OH229678   3.878   0.029  18.023 -0.2205  0.4286 -0.6826
 1828TIP3    H129679   3.951  -0.017  17.981 -0.5910 -1.4454  0.5827
 1828TIP3    H229680   3.918   0.073  18.098 -0.0579  1.1688 -1.2001
 1829TIP3   OH229681   3.312   6.006  15.520  0.0579  0.2983  0.0277
 1829TIP3    H129682   3.397   6.047  15.539 -0.5522  0.4995  2.7943
 1829TIP3    H229683   3.334   5.922  15.479  1.5295  0.9545 -0.5749
 1830TIP3   OH229684   2.188   2.916  15.169  0.4991  0.4263  0.8040
 1830TIP3    H129685   2.217   2.992  15.118 -0.1085 -0.8851 -1.6731
 1830TIP3    H229686   2.257   2.851  15.157 -0.6502 -0.6612 -0.2518
 1831TIP3   OH229687   4.760   3.963  16.626  0.6634 -0.1600  0.6209
 1831TIP3    H129688   4.727   4.040  16.674  0.8555  0.0783  0.3762
 1831TIP3    H229689   4.852   3.957  16.651  1.3153  1.1527 -1.1831
 1832TIP3   OH229690   1.427   3.847  16.420  0.3132 -0.3290  0.0885
 1832TIP3    H129691   1.359   3.797  16.376 -2.0362  1.8744  0.9257
 1832TIP3    H229692   1.410   3.834  16.514  1.6920 -0.5268  0.3305
 1833TIP3   OH229693   3.155   4.273  17.210 -0.8639  0.2966 -0.2714
 1833TIP3    H129694   3.172   4.237  17.297 -1.3620 -0.0566 -0.3137
 1833TIP3    H229695   3.200   4.357  17.209 -0.8854  0.3182  0.3426
 1834TIP3   OH229696   2.453   5.239  15.375  0.1132  0.3873 -0.2492
 1834TIP3    H129697   2.545   5.261  15.364  0.6257  0.1064  2.6774
 1834TIP3    H229698   2.453   5.157  15.424 -1.7550 -0.7256 -1.9618
 1835TIP3   OH229699   4.150   0.213  15.779 -0.6997  0.0963  0.2700
 1835TIP3    H129700   4.221   0.162  15.741  1.2527  2.1247  0.9559
 1835TIP3    H229701   4.131   0.280  15.714 -1.5819 -0.0481  0.3630
 1836TIP3   OH229702   0.072   1.760  14.838  0.2924  0.1888  0.3444
 1836TIP3    H129703   0.162   1.753  14.808  0.3811  0.1028  0.6270
 1836TIP3    H229704   0.061   1.853  14.859 -0.3799  0.6608 -1.8283
 1837TIP3   OH229705   5.272   4.099  16.252  0.0222  0.6535 -0.3226
 1837TIP3    H129706   5.332   4.027  16.234  0.0809  0.6660 -0.1757
 1837TIP3    H229707   5.198   4.058  16.297 -0.8232  0.3657 -1.8873
 1838TIP3   OH229708   2.543   0.540  15.287  0.2524  0.1835 -0.2591
 1838TIP3    H129709   2.633   0.553  15.319 -0.0064 -1.2457  1.1318
 1838TIP3    H229710   2.490   0.539  15.366 -0.9713  0.6611 -1.0549
 1839TIP3   OH229711   6.251   0.789  15.754  0.6313 -0.1740 -0.2543
 1839TIP3    H129712   6.304   0.715  15.785  0.4104  0.0163  0.5967
 1839TIP3    H229713   6.258   0.784  15.659  0.6083 -1.3026 -0.2199
 1840TIP3   OH229714   0.793   5.628  16.528 -0.2629 -0.2361  0.1517
 1840TIP3    H129715   0.766   5.711  16.566  0.9619  0.8387 -1.1923
 1840TIP3    H229716   0.713   5.576  16.523 -1.2869  1.2977 -0.0115
 1841TIP3   OH229717   5.244   0.220  14.540 -0.2374 -0.4772  0.0035
 1841TIP3    H129718   5.222   0.270  14.462  2.5934  0.6418 -0.1818
 1841TIP3    H229719   5.299   0.149  14.508 -1.0387 -1.4711  0.7480
 1842TIP3   OH229720   3.531   4.962  15.380  0.4060 -0.2183  0.1744
 1842TIP3    H129721   3.598   4.957  15.312 -0.2113 -0.2088 -0.4532
 1842TIP3    H229722   3.532   4.876  15.421 -0.8332 -1.0744 -1.4539
 1843TIP3   OH229723   0.287   1.524  15.510 -0.2669  0.1331 -0.1568
 1843TIP3    H129724   0.237   1.448  15.480  0.7342 -0.1589 -1.1106
 1843TIP3    H229725   0.268   1.592  15.446 -0.1985  0.3164  0.0172
 1844TIP3   OH229726   3.346   2.328  17.597 -0.5193  0.0226 -0.8643
 1844TIP3    H129727   3.262   2.326  17.642 -0.2118  0.3344 -0.2663
 1844TIP3    H229728   3.327   2.368  17.512 -0.8802  0.5748 -0.5254
 1845TIP3   OH229729   0.934   5.372  17.594  0.0490  0.0502 -0.0298
 1845TIP3    H129730   0.871   5.443  17.605 -0.1487 -0.2188  0.6335
 1845TIP3    H229731   0.930   5.350  17.501 -1.4933 -0.5760  0.1656
 1846TIP3   OH229732   0.119   4.838  16.456 -0.1123  0.0892 -0.2562
 1846TIP3    H129733   0.143   4.900  16.387  0.4401  0.5031  0.2848
 1846TIP3    H229734   0.196   4.782  16.465 -0.0120  0.3064  0.3003
 1847TIP3   OH229735   1.666   3.873  16.009 -0.2204  0.0413  0.1642
 1847TIP3    H129736   1.736   3.937  16.020 -0.0576 -0.3616  1.6743
 1847TIP3    H229737   1.585   3.924  16.013 -0.1188  0.1061  2.1155
 1848TIP3   OH229738   6.215   2.246  18.014  0.0320 -0.1101  0.4048
 1848TIP3    H129739   6.142   2.287  18.060  0.2042  0.7997 -0.0989
 1848TIP3    H229740   6.293   2.288  18.051  0.1410  1.5400 -1.4739
 1849TIP3   OH229741   0.110   5.130  15.969 -0.0521 -0.2061 -0.0687
 1849TIP3    H129742   0.061   5.159  16.046  0.5462  0.0255  0.2307
 1849TIP3    H229743   0.068   5.047  15.944 -0.7364  0.0947  0.0400
 1850TIP3   OH229744   2.466   1.263  16.904 -0.4210  0.1317  0.4900
 1850TIP3    H129745   2.546   1.283  16.856 -0.0696  0.1034  1.0414
 1850TIP3    H229746   2.395   1.281  16.843  0.0544 -1.3576 -0.5697
 1851TIP3   OH229747   6.513   0.039  16.463 -0.3435 -0.2899 -0.0210
 1851TIP3    H129748   6.467   0.111  16.505 -0.4907 -1.1667  1.4155
 1851TIP3    H229749   6.584   0.081  16.415  0.7114  0.7551  2.2629
 1852TIP3   OH229750   0.708   4.743  15.137 -0.2110 -0.3199  0.0989
 1852TIP3    H129751   0.657   4.798  15.077 -0.2309 -0.8752 -0.4084
 1852TIP3    H229752   0.799   4.766  15.120 -0.2891  2.1634  2.4481
 1853TIP3   OH229753   1.691   4.440  15.106 -0.0186  0.2481  0.6025
 1853TIP3    H129754   1.733   4.363  15.145 -1.1621 -0.7692 -0.0980
 1853TIP3    H229755   1.649   4.483  15.180 -0.0337 -0.2415  0.8899
 1854TIP3   OH229756   0.105   5.022  15.201  0.7126 -0.2157  0.5644
 1854TIP3    H129757   0.063   4.995  15.283  0.1639 -2.7130 -0.4414
 1854TIP3    H229758   0.198   5.010  15.218  0.5560 -1.6678  0.5775
 1855TIP3   OH229759   6.287   6.257  17.998  0.5452  0.0507 -0.5707
 1855TIP3    H129760   6.312   6.350  18.000  0.7457 -0.0143  0.6983
 1855TIP3    H229761   6.356   6.213  18.048 -1.9750 -0.1424  3.1151
 1856TIP3   OH229762   1.408   0.839  16.460 -0.0808 -0.0713  0.7092
 1856TIP3    H129763   1.357   0.868  16.536  0.5981  4.2062 -0.1711
 1856TIP3    H229764   1.498   0.837  16.491  0.0088 -0.0166  0.4552
 1857TIP3   OH229765   0.833   0.097  17.440  0.3256 -0.2236 -0.0874
 1857TIP3    H129766   0.816   0.133  17.527  2.2574  0.0551  0.2209
 1857TIP3    H229767   0.751   0.053  17.416 -0.3794  0.0178  1.6917
 1858TIP3   OH229768   5.335   3.933  15.853  0.1942 -0.7074  0.8938
 1858TIP3    H129769   5.362   3.848  15.821 -1.0525 -0.0092 -2.4559
 1858TIP3    H229770   5.402   3.958  15.917  1.1868 -3.6383  1.1268
 1859TIP3   OH229771   6.389   5.139  17.463  0.3093 -0.3886  0.2887
 1859TIP3    H129772   6.329   5.102  17.528 -0.4608  2.6735  1.5085
 1859TIP3    H229773   6.344   5.130  17.380 -0.2876 -1.1755  0.6813
 1860TIP3   OH229774   1.998   3.341  16.944  0.4410  0.1747  0.3972
 1860TIP3    H129775   1.993   3.398  17.021  0.5515 -0.3658  0.8147
 1860TIP3    H229776   2.029   3.257  16.979  0.1010 -0.1936 -0.1771
 1861TIP3   OH229777   5.701   0.671  15.275 -0.0957 -0.2172 -0.2785
 1861TIP3    H129778   5.704   0.693  15.368  1.1806 -0.2869 -0.2944
 1861TIP3    H229779   5.673   0.579  15.274  2.4619 -1.0945  0.2204
 1862TIP3   OH229780   3.935   1.562  16.041 -1.2420 -0.0916  0.1009
 1862TIP3    H129781   4.011   1.598  16.086 -2.1715  1.3615  0.5542
 1862TIP3    H229782   3.914   1.482  16.090 -1.6769  0.9717  1.7341
 1863TIP3   OH229783   0.328   3.200  16.626 -0.3109  0.0375  0.5757
 1863TIP3    H129784   0.379   3.125  16.657 -0.2652  0.3138  1.1754
 1863TIP3    H229785   0.393   3.268  16.609 -0.4125  0.1551  0.6559
 1864TIP3   OH229786   3.829   6.506  16.045  0.3073  0.1978  0.3447
 1864TIP3    H129787   3.752   6.510  16.101  0.3643  0.6646  0.3936
 1864TIP3    H229788   3.897   6.550  16.096  0.5404  0.0110  0.1965
 1865TIP3   OH229789   0.329   4.674  15.209 -0.3672 -0.0292 -0.0032
 1865TIP3    H129790   0.241   4.682  15.172 -0.0682  1.4527 -0.4689
 1865TIP3    H229791   0.370   4.760  15.193  1.5872 -1.0512 -0.8953
 1866TIP3   OH229792   0.445   6.033  15.773  0.7410  0.7128 -0.6035
 1866TIP3    H129793   0.461   5.959  15.715 -0.5205  0.3842 -0.5505
 1866TIP3    H229794   0.450   5.996  15.861  0.2074  0.7060 -0.5736
 1867TIP3   OH229795   0.320   4.106  16.021 -0.0989  0.1985 -0.0443
 1867TIP3    H129796   0.353   4.153  15.945 -1.3871 -0.1367 -0.8370
 1867TIP3    H229797   0.316   4.172  16.090  0.4259  0.6695 -0.4540
 1868TIP3   OH229798   0.524   6.074  17.688 -0.4829  0.3006  0.3816
 1868TIP3    H129799   0.535   6.056  17.595 -1.9996  0.8884  0.0648
 1868TIP3    H229800   0.466   6.150  17.692  1.4228  1.7904  1.7834
 1869TIP3   OH229801   3.180   4.879  16.136 -0.3575 -0.0064 -0.6657
 1869TIP3    H129802   3.172   4.798  16.187 -0.9680  1.4245  1.7124
 1869TIP3    H229803   3.208   4.851  16.049 -0.6241 -2.7498  0.0479
 1870TIP3   OH229804   2.240   3.955  15.183  0.2598  0.3413  0.2236
 1870TIP3    H129805   2.226   3.892  15.254 -1.1405  2.0322  1.5284
 1870TIP3    H229806   2.334   3.972  15.183  0.9216 -2.6197 -1.0176
 1871TIP3   OH229807   6.545   3.926  17.442  0.3518 -0.2070 -0.0590
 1871TIP3    H129808   6.461   3.900  17.480  0.1000  2.1031  1.1613
 1871TIP3    H229809   6.599   3.951  17.517  1.8594 -0.8529 -0.8866
 1872TIP3   OH229810   1.319   4.209  17.645 -0.0554  0.2078 -0.0563
 1872TIP3    H129811   1.332   4.225  17.552  1.0008  1.2473  0.2492
 1872TIP3    H229812   1.358   4.285  17.688 -1.5203  0.3050  1.2043
 1873TIP3   OH229813   4.230   4.127  15.110  0.6492  0.0825 -0.0373
 1873TIP3    H129814   4.178   4.049  15.131  0.1356  0.5631  0.4827
 1873TIP3    H229815   4.219   4.185  15.185  1.1924  0.5787 -0.3320
 1874TIP3   OH229816   5.780   2.720  16.736 -0.4483  0.5365  0.3160
 1874TIP3    H129817   5.701   2.670  16.718  0.5471 -0.6888 -0.8855
 1874TIP3    H229818   5.782   2.729  16.831 -2.1927  0.9229  0.3498
 1875TIP3   OH229819   1.104   0.990  14.153  0.0986  0.3701  0.2893
 1875TIP3    H129820   1.068   0.917  14.103 -0.0399 -0.5382  1.6442
 1875TIP3    H229821   1.192   1.003  14.118 -0.0564 -0.1202 -0.2981
 1876TIP3   OH229822   1.611   6.669  16.368  0.1358  0.3799 -0.0640
 1876TIP3    H129823   1.578   6.757  16.349  0.0184  0.8930  2.2850
 1876TIP3    H229824   1.585   6.652  16.458  1.1046 -1.6584 -0.1098
 1877TIP3   OH229825   0.505   0.785  16.736  0.5258 -0.7438  0.8495
 1877TIP3    H129826   0.553   0.755  16.659  2.0264 -0.0596  1.4814
 1877TIP3    H229827   0.569   0.780  16.808 -0.5650 -0.4946  1.8765
 1878TIP3   OH229828   4.052   6.594  16.185  0.1456  0.3912 -0.1713
 1878TIP3    H129829   4.121   6.604  16.250  0.1931 -0.2113 -0.1212
 1878TIP3    H229830   4.005   6.677  16.187 -0.9620 -0.2020  1.9145
 1879TIP3   OH229831   4.667   4.164  15.702  0.6678  0.3834 -0.0810
 1879TIP3    H129832   4.627   4.167  15.615  2.7505  1.1603 -1.0790
 1879TIP3    H229833   4.594   4.182  15.762 -1.2793 -2.3298 -1.4323
 1880TIP3   OH229834   1.397   1.435  16.081  0.4092  0.0463 -0.1824
 1880TIP3    H129835   1.474   1.393  16.042 -1.1513 -2.7049 -0.6240
 1880TIP3    H229836   1.424   1.525  16.098  3.7612 -0.8337 -0.1064
 1881TIP3   OH229837   6.279   0.440  16.921  0.2696  0.0719 -0.5816
 1881TIP3    H129838   6.336   0.373  16.958 -1.5205 -1.5799 -0.5920
 1881TIP3    H229839   6.275   0.509  16.987  1.4750 -0.2267 -0.1845
 1882TIP3   OH229840   0.999   0.201  15.403  0.2526  0.2276  0.0608
 1882TIP3    H129841   0.997   0.107  15.417  2.7256 -0.0714 -1.0385
 1882TIP3    H229842   0.912   0.223  15.369 -0.1309 -1.7648 -0.3605
 1883TIP3   OH229843   3.528   4.303  14.486 -0.1198  0.5644 -0.5438
 1883TIP3    H129844   3.437   4.279  14.466 -0.2755  1.6929 -1.2923
 1883TIP3    H229845   3.526   4.333  14.577  0.0041 -1.7335  0.2815
 1884TIP3   OH229846   1.673   4.215  14.932  0.0634 -0.1173 -0.0639
 1884TIP3    H129847   1.767   4.230  14.921  0.3075 -1.0351  0.6867
 1884TIP3    H229848   1.643   4.289  14.986  0.4700 -0.1490  0.2062
 1885TIP3   OH229849   1.527   1.469  15.498  0.4166 -0.0752 -0.2315
 1885TIP3    H129850   1.614   1.499  15.472  0.5948 -1.6083 -1.5912
 1885TIP3    H229851   1.543   1.391  15.549 -0.1286  0.6301  1.0530
 1886TIP3   OH229852   2.585   5.275  14.153 -0.3397 -0.3658  0.9975
 1886TIP3    H129853   2.492   5.267  14.132 -0.2607 -0.8213  0.8065
 1886TIP3    H229854   2.613   5.354  14.107 -0.3904 -0.8189  0.1745
 1887TIP3   OH229855   4.573   1.636  16.010 -0.5332  0.7701 -0.1162
 1887TIP3    H129856   4.489   1.637  15.964 -0.2515  0.2138 -0.6492
 1887TIP3    H229857   4.633   1.680  15.951 -0.2121  0.2224 -0.2013
 1888TIP3   OH229858   2.563   4.421  14.387  0.2489  0.1511  0.1045
 1888TIP3    H129859   2.602   4.365  14.320  1.8440  0.0358  1.0621
 1888TIP3    H229860   2.551   4.506  14.344  2.1891  0.3748 -0.1026
 1889TIP3   OH229861   6.377   2.851  16.155  0.8661  0.7673 -0.1731
 1889TIP3    H129862   6.370   2.822  16.064  1.4677  0.4111 -0.1087
 1889TIP3    H229863   6.287   2.848  16.187  1.0333 -3.3003  0.5135
 1890TIP3   OH229864   3.547   2.236  15.534 -0.1230 -0.2821  0.3367
 1890TIP3    H129865   3.565   2.329  15.543  1.6273 -0.5408 -0.1813
 1890TIP3    H229866   3.572   2.198  15.618 -2.4064 -0.1146  1.1609
 1891TIP3   OH229867   0.058   3.277  17.278 -0.6649  0.1643 -0.7074
 1891TIP3    H129868   0.001   3.287  17.202 -0.4106  1.4469 -0.7488
 1891TIP3    H229869   0.008   3.312  17.352  0.4285  2.4313 -0.9361
 1892TIP3   OH229870   1.880   1.942  16.784 -0.7414  0.0547 -0.0484
 1892TIP3    H129871   1.955   1.986  16.823 -0.5446  1.1708 -1.6273
 1892TIP3    H229872   1.897   1.941  16.690 -1.6928 -1.6333 -0.2658
 1893TIP3   OH229873   4.538   5.489  16.265 -0.6319  0.0373 -0.0607
 1893TIP3    H129874   4.534   5.551  16.192  0.7987  1.6507  1.1771
 1893TIP3    H229875   4.464   5.513  16.321 -0.3103  0.3566  0.2229
 1894TIP3   OH229876   3.485   4.543  16.597 -0.5940  0.0178 -0.0609
 1894TIP3    H129877   3.426   4.469  16.615 -0.0029 -0.2778  0.7121
 1894TIP3    H229878   3.557   4.504  16.548 -0.5832  0.2044 -0.1944
 1895TIP3   OH229879   1.442   0.242  16.700  0.1494 -0.7701 -0.3561
 1895TIP3    H129880   1.396   0.216  16.780 -0.2432 -2.3698 -1.0663
 1895TIP3    H229881   1.405   0.327  16.677  0.6100 -0.0462  1.4005
 1896TIP3   OH229882   5.078   4.303  15.618 -0.0006 -0.7233  0.0078
 1896TIP3    H129883   5.013   4.253  15.667 -1.8678  0.0149 -1.5704
 1896TIP3    H229884   5.137   4.237  15.582 -1.4721 -1.7244 -0.6953
 1897TIP3   OH229885   3.588   0.036  16.091 -0.1087 -0.3631  0.0167
 1897TIP3    H129886   3.662   0.094  16.105  0.2614 -0.5410 -1.0729
 1897TIP3    H229887   3.579   0.031  15.996 -0.5324 -1.5719  0.0940
 1898TIP3   OH229888   5.262   4.295  17.766 -0.0848 -0.0939  0.7917
 1898TIP3    H129889   5.343   4.259  17.801  1.3745  0.4535 -1.7213
 1898TIP3    H229890   5.248   4.248  17.683 -0.8378  1.6558 -0.1384
 1899TIP3   OH229891   3.507   4.180  17.764 -0.2949 -0.2793  0.1550
 1899TIP3    H129892   3.522   4.244  17.695 -0.2459  1.0950  1.3941
 1899TIP3    H229893   3.427   4.209  17.807 -0.8932 -1.7007  0.0567
 1900TIP3   OH229894   2.123   4.959  15.117 -0.1913 -0.4499  0.3328
 1900TIP3    H129895   2.126   4.863  15.111 -0.4127 -0.4334 -0.1597
 1900TIP3    H229896   2.166   4.980  15.199 -0.3853 -0.9941  0.5799
 1901TIP3   OH229897   6.083   6.646  15.657 -0.1277 -0.0808 -0.2966
 1901TIP3    H129898   6.027   6.635  15.733 -0.5453  1.1933 -0.3952
 1901TIP3    H229899   6.035   6.706  15.600  0.4692 -0.5016 -1.2757
 1902TIP3   OH229900   0.072   2.260  17.405 -0.6089  0.4369  0.2717
 1902TIP3    H129901   0.155   2.212  17.403  0.4092  2.1253  0.6140
 1902TIP3    H229902   0.062   2.288  17.495 -0.6766  1.6931 -0.1088
 1903TIP3   OH229903   1.481   4.204  16.715 -0.1999  0.1061 -0.1675
 1903TIP3    H129904   1.561   4.187  16.665  0.3809 -0.6087  0.9549
 1903TIP3    H229905   1.427   4.256  16.656  0.1777 -1.2380 -1.7779
 1904TIP3   OH229906   6.405   2.724  16.392  0.3094  0.0689  0.2421
 1904TIP3    H129907   6.395   2.724  16.296 -0.1865  2.0000  0.2715
 1904TIP3    H229908   6.409   2.816  16.416 -2.1063 -0.2662  2.3355
 1905TIP3   OH229909   0.964   6.379  17.294 -0.2560  0.3317 -0.1331
 1905TIP3    H129910   0.992   6.470  17.306 -1.2473  0.7152 -0.6014
 1905TIP3    H229911   1.040   6.335  17.256  1.0472  0.3864  2.2474
 1906TIP3   OH229912   4.983   0.311  17.345  0.7500 -0.5656  0.7006
 1906TIP3    H129913   4.954   0.398  17.373 -1.0058 -0.4030 -1.3232
 1906TIP3    H229914   4.985   0.259  17.426 -4.1227 -0.1864  1.4087
 1907TIP3   OH229915   4.051   3.033  16.794 -0.0009  0.4126 -0.3615
 1907TIP3    H129916   4.035   3.041  16.700 -1.5132 -0.9103 -0.2632
 1907TIP3    H229917   4.132   2.983  16.800  0.1569  0.5921 -0.9748
 1908TIP3   OH229918   5.287   2.690  17.156 -0.0407  0.1944 -0.4508
 1908TIP3    H129919   5.380   2.693  17.178  0.0515 -1.3244 -0.5696
 1908TIP3    H229920   5.285   2.679  17.061 -0.2680 -1.8510 -0.2549
 1909TIP3   OH229921   4.116   6.108  14.204  0.2411 -0.3372 -0.1728
 1909TIP3    H129922   4.055   6.172  14.240  1.4939  1.2717 -0.7265
 1909TIP3    H229923   4.073   6.074  14.126  0.5642  1.8647 -1.3908
 1910TIP3   OH229924   0.001   3.386  17.671 -0.4150 -0.1203 -0.1963
 1910TIP3    H129925   0.064   3.428  17.613  2.3294 -1.3152  1.6879
 1910TIP3    H229926  -0.069   3.355  17.614 -0.1507  2.6433 -2.1994
 1911TIP3   OH229927   0.180   2.735  16.032  0.4594  0.0181  0.0708
 1911TIP3    H129928   0.187   2.820  16.076  0.7543 -0.4520  0.9365
 1911TIP3    H229929   0.182   2.757  15.938 -0.1909  1.0229  0.2784
 1912TIP3   OH229930   1.422   5.765  17.331  0.5573  0.1681  0.7595
 1912TIP3    H129931   1.333   5.738  17.356 -0.5723  2.5580 -0.3293
 1912TIP3    H229932   1.475   5.687  17.345 -1.5520 -1.1341  2.2029
 1913TIP3   OH229933   0.793   0.854  16.070 -0.2465 -0.7202 -0.2672
 1913TIP3    H129934   0.871   0.804  16.092 -1.2235 -2.5167 -0.6622
 1913TIP3    H229935   0.750   0.871  16.154  0.1482 -0.4148 -0.1236
 1914TIP3   OH229936   5.582   3.612  17.536 -0.5189  0.2085  0.7210
 1914TIP3    H129937   5.632   3.688  17.506 -0.7809  0.5383  1.1073
 1914TIP3    H229938   5.492   3.645  17.544 -1.0686 -0.7086 -1.2285
 1915TIP3   OH229939   5.142   0.105  17.790 -0.4119  0.4711 -0.0872
 1915TIP3    H129940   5.190   0.181  17.759 -1.0936  0.4282 -1.3232
 1915TIP3    H229941   5.202   0.031  17.778 -0.0916  0.6791  0.2253
 1916TIP3   OH229942   0.608   4.634  15.868 -0.0478  0.2635 -0.2953
 1916TIP3    H129943   0.674   4.607  15.805  0.9835  0.9783  0.4494
 1916TIP3    H229944   0.586   4.553  15.915  0.4243  0.0482 -0.4357
 1917TIP3   OH229945   3.288   0.800  17.380 -0.6149  0.1533 -0.2598
 1917TIP3    H129946   3.244   0.736  17.436 -1.9466  0.6417 -0.6863
 1917TIP3    H229947   3.367   0.825  17.428 -0.2075 -1.5934  0.0268
 1918TIP3   OH229948   5.192   0.568  14.674  0.0645  0.0291  0.2889
 1918TIP3    H129949   5.171   0.517  14.596  3.3092 -0.9484 -0.0956
 1918TIP3    H229950   5.264   0.625  14.646 -0.3148  1.4192  1.9834
 1919TIP3   OH229951   2.691   6.048  17.160  0.1040  0.2958  0.4016
 1919TIP3    H129952   2.743   5.971  17.135  0.7287  1.0389 -0.6755
 1919TIP3    H229953   2.604   6.012  17.179  0.3685 -0.6839 -0.1286
 1920TIP3   OH229954   6.346   2.923  16.888 -0.2339 -0.0781  0.5017
 1920TIP3    H129955   6.348   2.908  16.793 -1.1335 -0.9681  0.5999
 1920TIP3    H229956   6.344   3.018  16.898 -0.6313  0.0185 -0.3933
 1921TIP3   OH229957   6.040   0.213  16.793  0.0360 -0.0018  0.0068
 1921TIP3    H129958   5.984   0.266  16.848 -0.8882 -0.0198 -0.8959
 1921TIP3    H229959   6.115   0.191  16.849 -0.0370  1.4128  0.6904
 1922TIP3   OH229960   5.461   0.657  14.605  0.1310  0.0473 -0.8877
 1922TIP3    H129961   5.514   0.650  14.525 -0.2614  1.1653 -1.2577
 1922TIP3    H229962   5.481   0.744  14.640  1.3974 -0.9501  1.0526
 1923TIP3   OH229963   4.860   5.175  16.685 -0.0199  0.2164 -0.1650
 1923TIP3    H129964   4.811   5.258  16.682  0.8280  0.7284 -0.2049
 1923TIP3    H229965   4.843   5.134  16.600 -2.1905 -0.7049  0.6440
 1924TIP3   OH229966   4.029   4.690  16.597  0.1517 -0.1139 -0.0644
 1924TIP3    H129967   4.123   4.704  16.605 -0.0029  0.4885  0.8050
 1924TIP3    H229968   3.994   4.776  16.575 -0.1387 -0.4655 -1.0346
 1925TIP3   OH229969   1.384   5.606  16.139 -0.0791 -0.9160  0.2546
 1925TIP3    H129970   1.403   5.514  16.156 -1.3350 -1.2931 -0.2792
 1925TIP3    H229971   1.304   5.624  16.190 -0.0698 -0.2268  0.0420
 1926TIP3   OH229972   1.460   4.102  15.218  0.2061  0.2725  0.7084
 1926TIP3    H129973   1.493   4.012  15.208 -2.6531 -1.0582  2.1217
 1926TIP3    H229974   1.427   4.125  15.131  2.3900  0.6637 -0.0791
 1927TIP3   OH229975   3.476   4.104  15.323  0.7875  0.0282  0.3067
 1927TIP3    H129976   3.459   4.027  15.269 -0.7910 -0.1352  0.9946
 1927TIP3    H229977   3.396   4.157  15.317  1.5149  1.2077  0.5347
 1928TIP3   OH229978   6.318   3.908  18.044 -0.2982  0.2523  0.4070
 1928TIP3    H129979   6.332   3.946  17.957  0.1240  0.0609  0.3861
 1928TIP3    H229980   6.310   3.984  18.102  1.7429  0.4324  0.5572
 1929TIP3   OH229981   4.620   5.538  17.517  0.3055  0.5174  0.5045
 1929TIP3    H129982   4.616   5.580  17.431 -1.1862  0.9895  0.7735
 1929TIP3    H229983   4.589   5.449  17.502 -0.8817  0.8811  0.6918
 1930TIP3   OH229984   4.593   2.704  17.828 -0.0535  0.8466  0.3813
 1930TIP3    H129985   4.660   2.639  17.807  1.3263  1.9946  1.0454
 1930TIP3    H229986   4.515   2.673  17.783  0.0158 -2.2220  2.0984
 1931TIP3   OH229987   2.725   5.836  16.806 -0.0045 -0.1440  0.2527
 1931TIP3    H129988   2.667   5.761  16.816  1.3280 -1.2255 -0.0267
 1931TIP3    H229989   2.757   5.853  16.895 -1.0176  0.7090  0.4779
 1932TIP3   OH229990   0.579   1.091  17.134  0.6044 -0.5392  0.7450
 1932TIP3    H129991   0.536   1.104  17.218  3.0780 -1.4178  2.2358
 1932TIP3    H229992   0.548   1.005  17.104 -1.0391  0.1994  0.2115
 1933TIP3   OH229993   5.270   3.316  15.129 -0.0785 -0.4019 -0.2028
 1933TIP3    H129994   5.247   3.379  15.061  0.9584  2.1759  1.6582
 1933TIP3    H229995   5.190   3.267  15.144 -1.2408  1.1322 -1.1091
 1934TIP3   OH229996   5.802   2.583  16.123  0.5631  0.2893  0.1959
 1934TIP3    H129997   5.724   2.637  16.132  0.0371 -0.4422  0.0325
 1934TIP3    H229998   5.779   2.515  16.061  1.3440  0.0871  0.1068
 1935TIP3   OH229999   5.857   3.097  17.760  0.6940 -0.2606 -0.0082
 1935TIP3    H130000   5.864   3.004  17.738 -1.1088 -0.4196 -0.0555
 1935TIP3    H230001   5.810   3.098  17.844 -0.4211  0.6241 -0.6079
 1936TIP3   OH230002   3.421   2.600  15.501 -0.5072 -0.2336  0.5897
 1936TIP3    H130003   3.330   2.613  15.529 -0.0214  0.0649  2.1009
 1936TIP3    H230004   3.471   2.664  15.551  0.4670  0.1336 -0.7995
 1937TIP3   OH230005   2.566   2.404  14.966  0.4754 -0.0224  0.5080
 1937TIP3    H130006   2.646   2.380  14.919  0.3325 -0.1781  0.3441
 1937TIP3    H230007   2.496   2.387  14.904  0.2059 -1.0768  1.0832
 1938TIP3   OH230008   4.331   2.655  16.125  0.0531 -0.3871 -0.3059
 1938TIP3    H130009   4.260   2.621  16.070  0.7926 -2.1445 -0.2536
 1938TIP3    H230010   4.303   2.637  16.215 -0.9295  2.0382 -0.0492
 1939TIP3   OH230011   2.085   1.803  15.426 -0.3066 -0.5407 -0.1417
 1939TIP3    H130012   2.080   1.863  15.352  0.1734 -0.9098 -0.4786
 1939TIP3    H230013   2.164   1.830  15.473 -0.0875 -0.9039 -0.2954
 1940TIP3   OH230014   0.891   2.255  17.882 -0.1931 -0.1413  0.2646
 1940TIP3    H130015   0.913   2.163  17.867 -1.6950 -0.7499  1.4974
 1940TIP3    H230016   0.944   2.280  17.958  0.5708  0.1888 -0.3558
 1941TIP3   OH230017   1.995   5.473  17.589  0.0988 -0.2338  0.3264
 1941TIP3    H130018   2.016   5.500  17.679  0.1375 -1.0067  0.5580
 1941TIP3    H230019   1.899   5.475  17.585  0.0748 -0.7068  0.5557
 1942TIP3   OH230020   5.473   2.220  17.642  0.4607 -0.1772  0.9671
 1942TIP3    H130021   5.530   2.173  17.582 -0.8346 -0.1366 -0.3610
 1942TIP3    H230022   5.495   2.312  17.628  0.4362 -0.1916  0.8258
 1943TIP3   OH230023   0.832   4.063  17.464 -0.4167 -0.4955  0.1568
 1943TIP3    H130024   0.829   4.101  17.552  0.4939 -1.6190  0.6992
 1943TIP3    H230025   0.922   4.076  17.435 -1.1425  1.5832 -1.4503
 1944TIP3   OH230026   3.847   1.391  15.810  0.0653 -0.0776 -0.3545
 1944TIP3    H130027   3.897   1.446  15.871  0.1005 -1.0033  0.4837
 1944TIP3    H230028   3.864   1.429  15.724  0.1183  1.1920  0.1858
 1945TIP3   OH230029   0.108   1.317  16.389  0.3589 -0.6451 -0.1852
 1945TIP3    H130030   0.027   1.368  16.396  0.6665  0.0863 -1.6545
 1945TIP3    H230031   0.174   1.371  16.434  0.5060 -0.1089 -1.0157
 1946TIP3   OH230032   4.678   2.558  18.206  0.3080 -0.3714  0.6436
 1946TIP3    H130033   4.685   2.570  18.301 -0.8362  1.3778  0.5570
 1946TIP3    H230034   4.767   2.574  18.174  0.6606 -0.7572  1.3980
 1947TIP3   OH230035   0.657   0.659  15.513 -0.3612  0.1079  0.6311
 1947TIP3    H130036   0.622   0.743  15.544 -0.8516 -0.1852  0.8774
 1947TIP3    H230037   0.597   0.632  15.444 -0.7960 -0.5466  1.2612
 1948TIP3   OH230038   5.254   1.492  17.670 -0.0928 -0.0774 -0.5264
 1948TIP3    H130039   5.305   1.411  17.675  0.9804  0.6502  0.8191
 1948TIP3    H230040   5.164   1.462  17.653 -0.1452 -1.7251  2.0586
 1949TIP3   OH230041   1.914   1.038  14.294  0.4490  0.0196 -0.0485
 1949TIP3    H130042   1.976   0.967  14.280  0.9172  0.4084  0.0123
 1949TIP3    H230043   1.901   1.076  14.207  1.2337  0.6970  0.1179
 1950TIP3   OH230044   1.694   3.052  16.919  0.0862 -0.2543  0.3608
 1950TIP3    H130045   1.772   2.996  16.916 -0.1397 -0.7973  2.7320
 1950TIP3    H230046   1.723   3.134  16.879  1.9457 -0.3993  1.2842
 1951TIP3   OH230047   4.105   1.252  17.587 -0.3996 -0.3640 -0.0314
 1951TIP3    H130048   4.033   1.280  17.643 -0.3059 -1.4341  0.6605
 1951TIP3    H230049   4.176   1.233  17.648  0.5772  0.9265 -0.7231
 1952TIP3   OH230050   1.120   2.662  16.044 -0.0787  0.4155 -0.0795
 1952TIP3    H130051   1.069   2.664  16.125  0.2949 -1.7114  0.2727
 1952TIP3    H230052   1.105   2.574  16.009  1.6682  0.4612 -1.0482
 1953TIP3   OH230053   2.300   3.136  15.032  0.3318 -0.4781  0.3185
 1953TIP3    H130054   2.279   3.149  14.940  0.6137 -2.5602 -0.0953
 1953TIP3    H230055   2.380   3.084  15.031  0.9428  0.3637  1.7770
 1954TIP3   OH230056   1.519   5.196  15.303 -0.4834  0.2615  0.0212
 1954TIP3    H130057   1.424   5.191  15.295 -0.4525 -1.3514  0.3695
 1954TIP3    H230058   1.550   5.219  15.216 -1.1877  0.9423 -0.0599
 1955TIP3   OH230059   4.966   5.707  15.437  0.5349  0.6717  0.3672
 1955TIP3    H130060   5.004   5.718  15.350 -0.2404  2.3680  0.1909
 1955TIP3    H230061   4.886   5.658  15.423 -0.5381  2.5026 -0.1799
 1956TIP3   OH230062   3.683   0.962  14.047  0.6274 -0.0737  0.0012
 1956TIP3    H130063   3.730   0.985  13.967  1.3148 -2.5619 -0.4146
 1956TIP3    H230064   3.729   1.010  14.116  2.6526 -0.9825 -0.6383
 1957TIP3   OH230065   4.648   6.512  15.517  0.1973  0.0239 -0.2468
 1957TIP3    H130066   4.584   6.445  15.541 -0.7807  1.1178  0.2861
 1957TIP3    H230067   4.712   6.465  15.462  0.4775 -1.7172  1.4489
 1958TIP3   OH230068   2.511   0.373  16.723  0.0365 -0.3629 -0.5117
 1958TIP3    H130069   2.443   0.413  16.669  0.0435  0.8026  0.3110
 1958TIP3    H230070   2.552   0.308  16.666 -1.3674 -0.6768 -1.2128
 1959TIP3   OH230071   5.885   2.797  17.037  0.2523  0.2144 -0.8089
 1959TIP3    H130072   5.977   2.779  17.014  0.1257  0.2980 -1.4149
 1959TIP3    H230073   5.867   2.740  17.112  0.4015 -0.8273 -1.5377
 1960TIP3   OH230074   3.653   2.594  16.537  0.1948 -0.5508 -0.2698
 1960TIP3    H130075   3.684   2.647  16.612 -0.7611  1.0190 -0.9307
 1960TIP3    H230076   3.643   2.506  16.573 -1.7763  0.4568  1.9165
 1961TIP3   OH230077   2.715   6.382  15.857 -0.5524 -0.0068  0.0601
 1961TIP3    H130078   2.748   6.362  15.769  1.7605 -1.2428  1.1094
 1961TIP3    H230079   2.768   6.326  15.915 -1.6324  1.1672  2.2832
 1962TIP3   OH230080   2.081   1.645  16.219 -0.2168  0.3514  0.6452
 1962TIP3    H130081   2.089   1.561  16.263  0.7572  0.3837  0.5531
 1962TIP3    H230082   1.988   1.667  16.226 -0.5922 -0.9735  0.2103
 1963TIP3   OH230083   6.593   2.847  16.935 -0.4333  0.4752  0.0547
 1963TIP3    H130084   6.501   2.874  16.934 -0.1413  1.4997 -0.8109
 1963TIP3    H230085   6.622   2.855  16.844  0.2215 -0.9206  0.1084
 1964TIP3   OH230086   6.664   6.690  15.319  0.7211  0.2667  0.1512
 1964TIP3    H130087   6.688   6.783  15.310  1.2889 -0.0707 -3.0501
 1964TIP3    H230088   6.633   6.665  15.232  1.1046 -2.6963  0.7692
 1965TIP3   OH230089   3.723   1.735  15.983  0.3809 -0.4758  0.0267
 1965TIP3    H130090   3.799   1.681  16.006 -0.4386 -1.5512  0.2780
 1965TIP3    H230091   3.658   1.673  15.950 -0.4265  0.4202 -0.1236
 1966TIP3   OH230092   2.016   1.369  16.769 -0.0419 -1.0144 -0.4925
 1966TIP3    H130093   2.041   1.277  16.776 -1.0388 -1.3349 -0.9048
 1966TIP3    H230094   2.087   1.409  16.719  0.0507 -1.7211 -0.9417
 1967TIP3   OH230095   0.814   1.304  17.320 -0.5580  0.1321  0.2166
 1967TIP3    H130096   0.769   1.234  17.368  1.7682 -3.7587 -2.7445
 1967TIP3    H230097   0.893   1.321  17.372 -0.3122 -0.7064  0.1403
 1968TIP3   OH230098   5.362   2.981  14.880  0.1562 -0.4801 -0.8811
 1968TIP3    H130099   5.275   3.008  14.853  0.1165  0.1230 -0.1711
 1968TIP3    H230100   5.379   2.902  14.830 -1.4175 -1.4776  0.0725
 1969TIP3   OH230101   5.120   1.481  16.393 -0.0404 -0.0859  0.0841
 1969TIP3    H130102   5.051   1.509  16.453  1.6120  1.0261  1.5712
 1969TIP3    H230103   5.174   1.421  16.444  1.5404  1.0740 -0.1457
 1970TIP3   OH230104   3.241   6.370  14.149 -0.3837 -0.2747 -0.1880
 1970TIP3    H130105   3.220   6.277  14.140  0.1772 -0.3358 -0.9826
 1970TIP3    H230106   3.335   6.376  14.129 -0.4331  0.4710 -0.2426
 1971TIP3   OH230107   4.262   1.646  17.792  0.1698  0.2809 -0.2530
 1971TIP3    H130108   4.215   1.622  17.871  2.1139 -0.3342  0.8015
 1971TIP3    H230109   4.276   1.740  17.799 -0.0984  0.3092 -0.1198
 1972TIP3   OH230110   1.519   6.626  16.607  0.0006  0.2935  0.2474
 1972TIP3    H130111   1.559   6.558  16.661  1.0988  1.2539  0.6944
 1972TIP3    H230112   1.497   6.696  16.668 -1.4929  0.1912 -0.1468
 1973TIP3   OH230113   3.669   2.274  16.925  0.0227 -0.4777  0.0204
 1973TIP3    H130114   3.675   2.358  16.970 -0.6846  0.4601 -1.5438
 1973TIP3    H230115   3.577   2.268  16.898 -0.1460 -2.2045  0.9047
 1974TIP3   OH230116   2.308   3.294  16.294 -0.1476  0.4365 -0.6309
 1974TIP3    H130117   2.323   3.261  16.382  0.0849 -0.4354 -0.9897
 1974TIP3    H230118   2.217   3.273  16.275  0.4853 -1.7817 -1.5649
 1975TIP3   OH230119   5.018   6.426  16.955  0.3288 -0.1528 -0.5406
 1975TIP3    H130120   5.102   6.381  16.957 -0.2663 -1.3003 -0.5503
 1975TIP3    H230121   4.986   6.424  17.045 -0.9288 -2.2036 -0.9659
 1976TIP3   OH230122   0.833   3.364  17.864  0.1272  0.0825  0.0335
 1976TIP3    H130123   0.911   3.317  17.894 -0.3973 -1.2733 -0.6274
 1976TIP3    H230124   0.798   3.309  17.794 -0.6684  1.3576 -0.6100
 1977TIP3   OH230125   2.872   4.090  15.437 -0.1352 -0.4374  0.0064
 1977TIP3    H130126   2.864   4.086  15.342  0.8800 -2.5519 -0.0377
 1977TIP3    H230127   2.955   4.047  15.456 -0.1436  0.2699  1.8486
 1978TIP3   OH230128   2.891   4.945  18.012  0.4756  0.0019  0.1127
 1978TIP3    H130129   2.811   4.988  18.043 -0.6163 -1.8777  0.0059
 1978TIP3    H230130   2.867   4.908  17.927  1.6001 -0.2433 -0.1087
 1979TIP3   OH230131   0.119   4.273  15.767  0.0097  0.3072 -0.5213
 1979TIP3    H130132   0.034   4.260  15.809  0.6891 -1.1638  0.4782
 1979TIP3    H230133   0.144   4.185  15.737  1.7696  0.4620  0.3899
 1980TIP3   OH230134   4.564   2.829  16.091 -0.0517  0.1650  0.4156
 1980TIP3    H130135   4.507   2.755  16.073  2.0363 -1.3507 -0.4463
 1980TIP3    H230136   4.587   2.820  16.183  0.0064 -0.1373  0.3735
 1981TIP3   OH230137   2.988   4.599  17.549 -0.2706 -0.2296  0.1639
 1981TIP3    H130138   3.026   4.516  17.577  0.6987 -0.1533 -0.8601
 1981TIP3    H230139   3.063   4.658  17.540 -0.3816 -0.4590 -3.2993
 1982TIP3   OH230140   6.098   4.474  16.149 -0.1118  0.1881  0.9007
 1982TIP3    H130141   6.010   4.509  16.141 -1.0093 -1.7107  1.8382
 1982TIP3    H230142   6.102   4.439  16.238  0.6392 -2.0795  0.0628
 1983TIP3   OH230143   5.843   0.370  16.965  0.3566  0.5556  0.5831
 1983TIP3    H130144   5.876   0.407  17.047 -0.1366  3.2291 -0.3195
 1983TIP3    H230145   5.755   0.341  16.986  0.8824 -0.5265  1.4113
 1984TIP3   OH230146   2.719   2.890  15.984 -0.1238  0.5629  0.2435
 1984TIP3    H130147   2.740   2.975  16.023  1.3021 -0.0275  0.8015
 1984TIP3    H230148   2.743   2.826  16.050 -0.6240 -0.3096 -0.4036
 1985TIP3   OH230149   0.880   3.061  16.615 -0.1441  0.7370  0.1500
 1985TIP3    H130150   0.840   2.997  16.674 -0.1147  1.2244  0.7127
 1985TIP3    H230151   0.961   3.086  16.659  0.0116  0.9076 -0.2297
 1986TIP3   OH230152   1.410   3.262  14.847  0.1386  0.3109 -0.0451
 1986TIP3    H130153   1.472   3.327  14.882 -0.7825 -0.0606  2.5523
 1986TIP3    H230154   1.325   3.305  14.854 -0.3950 -0.8574  0.9719
 1987TIP3   OH230155   6.166   3.004  16.611  0.0218 -0.2055 -0.3611
 1987TIP3    H130156   6.135   2.946  16.680  1.7972  0.5092  1.1134
 1987TIP3    H230157   6.099   3.071  16.604  0.1473  0.1173  1.2153
 1988TIP3   OH230158   6.583   6.510  17.576  0.0099 -0.3978  0.3490
 1988TIP3    H130159   6.520   6.455  17.622 -0.2297 -0.6719 -0.2931
 1988TIP3    H230160   6.536   6.542  17.499  0.4061  0.0462  0.2851
 1989TIP3   OH230161   4.616   0.246  14.333  0.2254  0.6486  0.2590
 1989TIP3    H130162   4.657   0.321  14.375 -0.5811  1.8778 -1.0429
 1989TIP3    H230163   4.544   0.222  14.391  0.8032  0.5139  0.9434
 1990TIP3   OH230164   4.685   1.725  18.082  0.0462  0.0041 -0.4091
 1990TIP3    H130165   4.766   1.769  18.109 -0.4937  0.3596  0.6524
 1990TIP3    H230166   4.714   1.638  18.054  0.6768 -0.3298  1.1528
 1991TIP3   OH230167   0.498   0.324  16.300  0.2573  0.1192  0.1212
 1991TIP3    H130168   0.519   0.266  16.374  0.7475  1.9840  1.5339
 1991TIP3    H230169   0.406   0.346  16.312  0.2545  0.1705  0.0084
 1992TIP3   OH230170   1.581   3.737  16.717 -0.5288  0.0394  0.0813
 1992TIP3    H130171   1.618   3.825  16.708  0.0971 -0.3519 -1.5072
 1992TIP3    H230172   1.487   3.751  16.720 -0.4057  0.9347  2.6663
 1993TIP3   OH230173   0.481   5.782  16.869  0.4009  0.4570 -0.0970
 1993TIP3    H130174   0.448   5.750  16.953 -3.8651  0.8442 -1.4105
 1993TIP3    H230175   0.533   5.860  16.893 -0.1616  0.2091  2.1893
 1994TIP3   OH230176   0.100   0.257  15.019 -0.4123  0.1178  0.0647
 1994TIP3    H130177   0.052   0.176  15.001  1.3684 -1.1834  0.8411
 1994TIP3    H230178   0.145   0.277  14.938 -0.8074  0.3177 -0.1101
 1995TIP3   OH230179   2.596   4.752  15.594 -0.1989 -0.0428  0.0603
 1995TIP3    H130180   2.522   4.703  15.631 -0.4861  1.4084  1.5280
 1995TIP3    H230181   2.634   4.693  15.529 -1.5033 -1.5535  0.6079
 1996TIP3   OH230182   3.726   4.876  16.704 -0.0203 -0.0233 -0.1344
 1996TIP3    H130183   3.743   4.807  16.768 -1.7398 -0.1858  0.1892
 1996TIP3    H230184   3.783   4.948  16.730 -1.2566  0.2152  2.1064
 1997TIP3   OH230185   0.569   6.419  15.385 -1.1495 -0.6568 -0.5731
 1997TIP3    H130186   0.582   6.328  15.360  0.7232 -0.6440  0.1965
 1997TIP3    H230187   0.560   6.418  15.480 -0.0391  0.0245 -0.4369
 1998TIP3   OH230188   2.313   1.107  14.384 -0.0779  0.1562  0.7521
 1998TIP3    H130189   2.313   1.180  14.322 -1.8856  0.5198  1.1257
 1998TIP3    H230190   2.294   1.030  14.330 -3.1929  0.6661  0.9451
 1999TIP3   OH230191   1.639   1.624  17.082 -0.0474 -0.2421 -0.2769
 1999TIP3    H130192   1.712   1.670  17.123 -0.1742  1.1196 -1.4952
 1999TIP3    H230193   1.656   1.631  16.988 -2.5897  1.6739 -0.7028
 2000TIP3   OH230194   3.297   4.733  15.467 -0.1058  0.1978 -0.3437
 2000TIP3    H130195   3.346   4.777  15.536  0.0772 -1.3488  0.5573
 2000TIP3    H230196   3.287   4.799  15.398  0.3673  1.5340  0.8359
 2001TIP3   OH230197   1.212   4.748  17.410  0.8096  0.0162 -0.1553
 2001TIP3    H130198   1.164   4.667  17.426  0.0895  0.2691 -0.9200
 2001TIP3    H230199   1.162   4.791  17.340  1.6224  0.7458 -0.2968
 2002TIP3   OH230200   3.267   2.857  15.370  0.3417 -0.5151 -0.1567
 2002TIP3    H130201   3.352   2.822  15.346  0.5391  0.4972 -0.9976
 2002TIP3    H230202   3.237   2.801  15.442  1.1724 -1.6170 -0.6481
 2003TIP3   OH230203   0.188   3.218  15.399 -0.6977 -0.2515  1.1553
 2003TIP3    H130204   0.236   3.221  15.316 -0.9989  1.0397  0.9996
 2003TIP3    H230205   0.109   3.270  15.382 -2.2619 -2.4289  1.3473
 2004TIP3   OH230206   5.068   4.672  15.146 -0.5812 -0.2507  0.7390
 2004TIP3    H130207   5.087   4.580  15.163  1.3814 -0.1125 -0.4004
 2004TIP3    H230208   5.076   4.682  15.051 -1.1893  1.0272  0.7860
 2005TIP3   OH230209   5.386   5.002  18.018 -0.4537 -0.6525  0.0013
 2005TIP3    H130210   5.324   5.051  17.964  0.3462 -1.4190 -1.6621
 2005TIP3    H230211   5.345   5.000  18.105 -0.4087  3.1950  0.2885
 2006TIP3   OH230212   1.448   3.991  17.594 -0.9129  0.0924 -0.6621
 2006TIP3    H130213   1.468   4.031  17.510 -0.8205  0.1237 -0.6255
 2006TIP3    H230214   1.382   4.048  17.634 -1.4634 -0.2938 -1.0072
 2007TIP3   OH230215   0.800   5.594  15.813  0.0702  0.7557 -0.3155
 2007TIP3    H130216   0.820   5.682  15.844  0.4311  0.3492  0.6347
 2007TIP3    H230217   0.743   5.557  15.881  0.2721  0.1051 -0.4940
 2008TIP3   OH230218   0.142   1.352  14.469  0.2770  0.4616 -0.3979
 2008TIP3    H130219   0.196   1.350  14.390  1.1434  0.4269  0.1900
 2008TIP3    H230220   0.204   1.355  14.541 -0.4585  2.7783  0.2445
 2009TIP3   OH230221   2.532   0.676  14.418 -0.1281  0.5159 -0.2785
 2009TIP3    H130222   2.450   0.649  14.376 -0.1767  0.2925 -0.0459
 2009TIP3    H230223   2.519   0.769  14.438 -0.3750  0.4499 -0.1307
 2010TIP3   OH230224   1.441   0.379  17.251 -0.3890  0.2901  0.4343
 2010TIP3    H130225   1.491   0.336  17.321 -0.7656  0.3240  0.7321
 2010TIP3    H230226   1.398   0.307  17.204  1.2370  0.1166 -0.8762
 2011TIP3   OH230227   5.599   0.280  17.374 -0.3811  0.4089 -0.7279
 2011TIP3    H130228   5.641   0.246  17.295 -0.2100  1.7408 -1.2479
 2011TIP3    H230229   5.667   0.333  17.417 -0.3859 -0.5283  0.4801
 2012TIP3   OH230230   6.371   4.498  16.142 -0.2031 -0.1544  0.9585
 2012TIP3    H130231   6.276   4.486  16.137 -0.0081 -1.6017  0.5006
 2012TIP3    H230232   6.404   4.417  16.181  0.7393  0.8715  2.3923
 2013TIP3   OH230233   2.857   6.518  17.609  0.2254  0.1990  0.0076
 2013TIP3    H130234   2.950   6.524  17.630  0.2090 -0.2642  0.2373
 2013TIP3    H230235   2.825   6.608  17.615  0.0853  0.0562  2.7299
 2014TIP3   OH230236   5.072   5.692  15.170  0.1320 -0.6766 -0.2239
 2014TIP3    H130237   5.047   5.656  15.085 -1.2121  0.9342 -0.5428
 2014TIP3    H230238   5.162   5.661  15.183  0.2092 -1.3102 -2.0097
 2015TIP3   OH230239   4.491   1.723  15.067 -0.0949 -0.3158  0.3828
 2015TIP3    H130240   4.415   1.664  15.065 -0.4496  0.0641  1.5650
 2015TIP3    H230241   4.521   1.727  14.976  0.6149 -3.1418  0.3959
 2016TIP3   OH230242   0.839   2.335  15.672  0.0177  0.6874 -0.3312
 2016TIP3    H130243   0.912   2.277  15.693 -0.6359 -0.2115 -0.4869
 2016TIP3    H230244   0.784   2.284  15.613 -1.3658  0.8941  0.7329
 2017TIP3   OH230245   3.119   5.908  17.965  0.3755 -0.1135 -0.2560
 2017TIP3    H130246   3.108   5.886  17.872  0.3484 -0.4843 -0.1662
 2017TIP3    H230247   3.205   5.950  17.969 -0.1260  0.9880 -0.6373
 2018TIP3   OH230248   3.263   0.389  17.947  0.4790 -0.0604  0.4164
 2018TIP3    H130249   3.279   0.372  17.854 -0.4110 -0.9450  0.4000
 2018TIP3    H230250   3.274   0.304  17.989 -0.2698  0.0940  0.9426
 2019TIP3   OH230251   6.297   5.416  17.215 -0.3460 -0.1099 -0.0900
 2019TIP3    H130252   6.306   5.439  17.123  2.6888  0.1438  0.1796
 2019TIP3    H230253   6.367   5.353  17.232 -0.8076 -0.1359  2.0510
 2020TIP3   OH230254   4.806   4.221  16.359  0.6142  0.8343  0.1685
 2020TIP3    H130255   4.846   4.307  16.365 -1.7237  1.9413  1.0994
 2020TIP3    H230256   4.825   4.179  16.443  0.9134  0.8296  0.0993
 2021TIP3   OH230257   1.403   4.190  15.474  0.0058  0.3108 -0.3971
 2021TIP3    H130258   1.314   4.222  15.467  0.1701  1.0938  0.9388
 2021TIP3    H230259   1.426   4.163  15.384 -1.1475  1.1853 -0.9710
 2022TIP3   OH230260   4.199   4.512  15.867  0.1735  0.0170  0.4291
 2022TIP3    H130261   4.287   4.497  15.833  0.0626 -0.6329  0.4199
 2022TIP3    H230262   4.212   4.521  15.962  0.0178 -2.2291  0.7095
 2023TIP3   OH230263   6.665   3.652  17.556  0.6433  0.3473 -0.4036
 2023TIP3    H130264   6.667   3.616  17.645 -0.3158  0.3610 -0.3693
 2023TIP3    H230265   6.723   3.728  17.559  0.3570  0.5440  0.3074
 2024TIP3   OH230266   3.157   4.395  17.656  0.7585  0.3699  0.2796
 2024TIP3    H130267   3.096   4.342  17.706  0.6851 -0.0278 -0.2270
 2024TIP3    H230268   3.203   4.447  17.722 -0.4003  0.9710  0.6408
 2025TIP3   OH230269   4.723   6.061  17.450  0.5460  0.1307  0.0775
 2025TIP3    H130270   4.651   6.039  17.509  0.6916 -0.5521 -0.0004
 2025TIP3    H230271   4.786   6.106  17.507  0.1642  0.5428  0.1899
 2026TIP3   OH230272   1.351   3.691  17.462  0.0653  0.1442  0.3712
 2026TIP3    H130273   1.439   3.654  17.454 -0.2171 -0.6704  0.8819
 2026TIP3    H230274   1.363   3.771  17.514  0.5508  0.2389  0.1200
 2027TIP3   OH230275   3.973   5.926  14.809  0.2565 -0.0570  0.3651
 2027TIP3    H130276   3.993   6.016  14.835  0.8677  0.3288 -1.3105
 2027TIP3    H230277   4.040   5.873  14.851 -0.6844  0.0990  2.1804
 2028TIP3   OH230278   0.618   1.883  15.331  0.0615 -0.0986 -0.1198
 2028TIP3    H130279   0.528   1.854  15.349 -0.1387  0.3837 -0.3134
 2028TIP3    H230280   0.607   1.967  15.286  0.6246  0.6903  1.1512
 2029TIP3   OH230281   5.251   1.731  16.389  0.0288 -0.0289  0.7092
 2029TIP3    H130282   5.241   1.637  16.371  1.1127  0.1688 -1.2004
 2029TIP3    H230283   5.198   1.746  16.467  0.6939 -2.4382  1.7310
 2030TIP3   OH230284   5.965   3.167  16.505  0.0906  0.0626 -0.2880
 2030TIP3    H130285   5.947   3.258  16.527  0.9238  0.1329  0.1169
 2030TIP3    H230286   5.903   3.147  16.435  0.3695  1.1486 -0.8694
 2031TIP3   OH230287   3.228   5.196  15.056 -0.4038 -0.1715  0.5554
 2031TIP3    H130288   3.262   5.282  15.031 -1.1297  0.1416  0.6371
 2031TIP3    H230289   3.219   5.149  14.973 -0.4136 -0.0196  0.4698
 2032TIP3   OH230290   2.743   1.247  16.855  0.1304  0.0189 -0.1391
 2032TIP3    H130291   2.749   1.209  16.943  1.0310 -1.5283 -0.8283
 2032TIP3    H230292   2.754   1.173  16.796 -0.6389  0.9994 -1.5838
 2033TIP3   OH230293   4.766   0.678  15.367  0.4489  0.1027 -0.7589
 2033TIP3    H130294   4.812   0.594  15.379 -0.2386 -0.2421 -0.4818
 2033TIP3    H230295   4.834   0.744  15.379  0.8170 -0.3912 -0.0149
 2034TIP3   OH230296   3.860   1.147  14.735 -0.3450  0.2527  0.3286
 2034TIP3    H130297   3.907   1.190  14.664 -2.5172 -1.8249 -2.5941
 2034TIP3    H230298   3.768   1.159  14.713 -1.0673 -3.2690  0.9390
 2035TIP3   OH230299   0.847   3.818  16.799  0.5395 -0.3317 -0.3225
 2035TIP3    H130300   0.843   3.899  16.748  2.1823 -0.0540 -0.0672
 2035TIP3    H230301   0.899   3.841  16.876 -1.4201 -0.8879  1.2481
 2036TIP3   OH230302   3.217   3.655  17.547 -0.0694  0.1355 -0.2270
 2036TIP3    H130303   3.141   3.680  17.496  0.5068  0.3978 -0.9790
 2036TIP3    H230304   3.275   3.731  17.544  0.6523 -0.4117 -0.5103
 2037TIP3   OH230305   4.195   5.538  17.685  0.2663 -0.7410 -0.3484
 2037TIP3    H130306   4.255   5.609  17.706 -0.1678 -0.5287  0.2102
 2037TIP3    H230307   4.250   5.460  17.682  0.3760 -0.8258  1.8015
 2038TIP3   OH230308   0.861   5.965  15.629  0.3478  0.2997  0.7431
 2038TIP3    H130309   0.791   5.921  15.581  0.4066  1.2523 -0.2517
 2038TIP3    H230310   0.818   6.035  15.676  0.7194  1.4759 -0.6055
 2039TIP3   OH230311   5.649   1.262  16.516 -0.1499 -0.1242  0.0779
 2039TIP3    H130312   5.615   1.351  16.512 -0.7082 -0.3658 -0.5913
 2039TIP3    H230313   5.733   1.271  16.561  0.1516  0.8495 -0.6462
 2040TIP3   OH230314   6.714   4.893  15.925 -0.8632 -0.0988  0.1140
 2040TIP3    H130315   6.653   4.833  15.968 -1.2705  0.5093  0.4020
 2040TIP3    H230316   6.714   4.866  15.833  1.9767 -3.1024  0.8256
 2041TIP3   OH230317   5.259   1.283  16.510  0.3399 -0.2360  0.0304
 2041TIP3    H130318   5.326   1.312  16.572  0.8584 -0.2381 -0.5181
 2041TIP3    H230319   5.307   1.228  16.448 -0.1845 -0.2864 -0.3305
 2042TIP3   OH230320   4.037   1.995  16.409  0.6784  0.3288 -0.1914
 2042TIP3    H130321   4.018   1.903  16.393  1.4341 -0.1228  1.2896
 2042TIP3    H230322   4.050   2.000  16.503 -2.4981  2.5818  0.2753
 2043TIP3   OH230323   6.269   5.263  16.970 -0.1565  0.5778  0.5687
 2043TIP3    H130324   6.248   5.252  16.877  0.3281 -0.5248  0.5829
 2043TIP3    H230325   6.307   5.180  16.996  2.6138  1.8749  0.9963
 2044TIP3   OH230326   1.705   4.964  14.158  0.1597  0.3151  0.2389
 2044TIP3    H130327   1.750   4.959  14.242 -1.2279 -1.1312  0.9538
 2044TIP3    H230328   1.733   4.885  14.111 -1.3788 -0.4920  0.6102
 2045TIP3   OH230329   5.913   6.672  15.872 -0.3296  0.0679 -0.4070
 2045TIP3    H130330   5.961   6.736  15.926  0.2173 -0.7135  0.0461
 2045TIP3    H230331   5.825   6.670  15.910 -0.7376  1.4731 -1.2101
 2046TIP3   OH230332   6.446   5.829  16.365 -0.2267 -0.3323  0.2299
 2046TIP3    H130333   6.506   5.782  16.306  1.5573  0.8114  1.0542
 2046TIP3    H230334   6.476   5.920  16.362 -2.6532  0.5372 -0.1566
 2047TIP3   OH230335   5.982   3.797  16.363 -0.1751 -0.0540  0.3540
 2047TIP3    H130336   6.009   3.705  16.368  0.2082 -0.1902 -2.4719
 2047TIP3    H230337   5.887   3.794  16.366 -0.1563 -0.5035  0.6309
 2048TIP3   OH230338   0.972   1.699  16.033 -0.3730  0.0856 -0.0770
 2048TIP3    H130339   1.026   1.621  16.021 -1.9607 -0.7733 -2.1042
 2048TIP3    H230340   0.883   1.670  16.015 -0.9675  2.4468 -1.3210
 2049TIP3   OH230341   1.158   6.133  17.241 -0.1436 -0.1872  0.3162
 2049TIP3    H130342   1.200   6.179  17.314 -1.7216  0.2940  0.9610
 2049TIP3    H230343   1.223   6.068  17.214  0.6820 -0.0615  1.8322
 2050TIP3   OH230344   4.896   3.822  15.750 -0.0765  0.1294 -0.4013
 2050TIP3    H130345   4.962   3.763  15.714 -0.6620 -0.9306  0.2205
 2050TIP3    H230346   4.945   3.900  15.776  1.0489 -0.8500  0.5608
 2051TIP3   OH230347   2.665   1.925  16.267  0.0244  0.3584 -0.2067
 2051TIP3    H130348   2.660   1.834  16.296  1.1604  0.6241  0.8872
 2051TIP3    H230349   2.654   1.976  16.347  2.3989  1.1263 -0.2929
 2052TIP3   OH230350   2.693   6.365  15.179 -0.8950 -0.1145 -0.2052
 2052TIP3    H130351   2.652   6.445  15.146  1.8413  1.0349 -1.0956
 2052TIP3    H230352   2.768   6.396  15.230  0.4608 -2.0854 -0.8984
 2053TIP3   OH230353   4.863   4.521  17.613 -0.3513 -0.3143  0.1246
 2053TIP3    H130354   4.899   4.526  17.525 -0.3892  1.6878  0.1812
 2053TIP3    H230355   4.939   4.519  17.670 -0.1504  3.2753  0.2121
 2054TIP3   OH230356   4.381   6.382  17.030  0.1135  0.5308  0.1746
 2054TIP3    H130357   4.390   6.303  17.083 -0.0663 -0.4590 -1.2293
 2054TIP3    H230358   4.286   6.396  17.023  0.0792 -0.2972 -1.2316
 2055TIP3   OH230359   5.888   1.185  17.864 -0.3993 -0.3054 -0.2232
 2055TIP3    H130360   5.930   1.257  17.816 -1.2471 -0.2247 -0.8810
 2055TIP3    H230361   5.887   1.214  17.955  1.9705 -0.8016  0.0259
 2056TIP3   OH230362   0.055   1.399  15.416  0.8948 -0.1472  0.0496
 2056TIP3    H130363  -0.008   1.419  15.348  0.5203 -0.9059  0.1587
 2056TIP3    H230364   0.078   1.307  15.402  1.8439  0.0630  0.1210
 2057TIP3   OH230365   0.360   0.935  14.844  0.0485  0.1204  0.5174
 2057TIP3    H130366   0.300   0.990  14.794  0.0881 -1.0196 -0.8357
 2057TIP3    H230367   0.441   0.935  14.792  1.2919  1.6671  2.3222
 2058TIP3   OH230368   6.402   2.994  16.476 -0.6353  0.5152  0.6309
 2058TIP3    H130369   6.403   3.053  16.400 -0.9791 -1.3624 -0.8915
 2058TIP3    H230370   6.327   3.023  16.527 -0.1480  2.0893  0.5374
 2059TIP3   OH230371   0.073   4.586  17.706  0.3326  0.8454 -0.5137
 2059TIP3    H130372  -0.020   4.565  17.712  0.3914  0.6413 -0.2972
 2059TIP3    H230373   0.117   4.502  17.724  0.5636  1.0465 -0.1318
 2060TIP3   OH230374   6.716   6.005  15.754  0.1955  0.2083  0.4825
 2060TIP3    H130375   6.740   5.912  15.760 -1.3672 -0.1406  1.8787
 2060TIP3    H230376   6.622   6.007  15.773  0.0784  2.0365 -0.0918
 2061TIP3   OH230377   6.549   4.677  15.994  0.1350 -0.0036 -0.0558
 2061TIP3    H130378   6.475   4.636  16.038  1.0772 -0.1341  1.4734
 2061TIP3    H230379   6.614   4.608  15.988  1.0325  0.7334  0.8383
 2062TIP3   OH230380   0.876   1.583  15.669  0.3943  0.0160  0.0784
 2062TIP3    H130381   0.811   1.560  15.736 -0.5630  1.3499 -0.3448
 2062TIP3    H230382   0.885   1.678  15.677 -0.6285  0.3873 -2.4304
 2063TIP3   OH230383   1.329   0.088  14.424 -0.1485 -0.2683  0.2109
 2063TIP3    H130384   1.339  -0.001  14.459  0.8566 -0.5137 -0.6206
 2063TIP3    H230385   1.270   0.077  14.349 -0.9014 -0.0370  0.7587
 2064TIP3   OH230386   2.490   6.676  15.785 -0.7743 -0.1520  0.4469
 2064TIP3    H130387   2.541   6.753  15.760 -2.1486  0.4584 -0.5844
 2064TIP3    H230388   2.542   6.634  15.854  0.0227  1.6593  1.0008
 2065TIP3   OH230389   2.873   1.107  17.509  0.1018 -0.3277  0.5722
 2065TIP3    H130390   2.812   1.162  17.558 -0.0137 -0.4213  0.5344
 2065TIP3    H230391   2.960   1.132  17.541  0.0357 -0.2744  0.7091
 2066TIP3   OH230392   3.432   0.993  15.299 -0.2837  0.0152 -0.3763
 2066TIP3    H130393   3.438   1.068  15.358  1.4313  0.1754 -0.6932
 2066TIP3    H230394   3.494   0.930  15.336  0.2539 -0.1784 -1.5745
 2067TIP3   OH230395   4.946   2.596  16.204 -0.0414  0.3169 -0.6155
 2067TIP3    H130396   4.979   2.677  16.243  0.5618 -0.8170  1.3455
 2067TIP3    H230397   5.008   2.576  16.134  1.3455  0.1593  0.6335
 2068TIP3   OH230398   5.573   4.656  16.300  0.2958 -0.0082  0.2019
 2068TIP3    H130399   5.499   4.632  16.355 -0.4713 -2.1756 -1.6307
 2068TIP3    H230400   5.616   4.728  16.347 -2.5328  0.8634  1.6704
 2069TIP3   OH230401   2.177   1.668  14.870 -0.3726  0.1790  0.4756
 2069TIP3    H130402   2.140   1.672  14.782 -0.8723 -1.6142  0.5670
 2069TIP3    H230403   2.104   1.688  14.928 -0.0955  1.1348  0.5216
 2070TIP3   OH230404   4.174   1.031  16.102 -0.4727  0.5259  0.5790
 2070TIP3    H130405   4.236   1.099  16.130 -0.5837 -0.2568  2.9282
 2070TIP3    H230406   4.141   1.063  16.018 -0.7786  3.5775  1.7190
 2071TIP3   OH230407   4.703   5.801  15.982 -0.1350 -0.1078 -0.2556
 2071TIP3    H130408   4.746   5.883  16.003 -1.8585  1.0793 -1.1538
 2071TIP3    H230409   4.683   5.807  15.888 -3.9416  0.3445  0.4313
 2072TIP3   OH230410   5.252   0.496  16.328  0.2424 -0.1770 -0.0267
 2072TIP3    H130411   5.290   0.453  16.405  2.9356 -0.6597 -1.5112
 2072TIP3    H230412   5.249   0.428  16.261  3.7238  1.4463 -2.1487
 2073TIP3   OH230413   4.421   3.492  17.886 -0.0296 -0.0865  0.2869
 2073TIP3    H130414   4.413   3.478  17.981 -1.6296  1.5216  0.4595
 2073TIP3    H230415   4.341   3.456  17.849  0.1056  0.2216 -0.3249
 2074TIP3   OH230416   3.049   5.016  15.416 -0.2076  0.8699 -0.0235
 2074TIP3    H130417   3.096   4.954  15.359 -0.5431  1.2086 -0.6752
 2074TIP3    H230418   3.077   4.992  15.504 -1.2642 -1.0229 -0.1562
 2075TIP3   OH230419   3.656   4.692  16.999 -0.4916  0.2872  0.2556
 2075TIP3    H130420   3.730   4.681  16.940 -0.2397  2.3848  0.1277
 2075TIP3    H230421   3.654   4.610  17.050  1.5389 -0.0503 -0.1273
 2076TIP3   OH230422   5.810   6.440  15.389 -0.2635  0.0325 -0.7220
 2076TIP3    H130423   5.806   6.386  15.310  0.2051  0.8573 -1.3215
 2076TIP3    H230424   5.825   6.528  15.357 -2.6294  0.8203  0.1395
 2077TIP3   OH230425   1.054   6.466  15.142 -0.7088  0.0659  0.0393
 2077TIP3    H130426   1.046   6.371  15.136  1.0167 -0.1074  0.0780
 2077TIP3    H230427   0.991   6.491  15.209 -0.1648 -1.2241  1.0728
 2078TIP3   OH230428   1.609   5.817  17.979 -0.4110 -0.6307  0.1363
 2078TIP3    H130429   1.546   5.884  18.008 -0.2651 -0.3943 -0.0898
 2078TIP3    H230430   1.564   5.772  17.907  0.1564  0.3630 -0.8656
 2079TIP3   OH230431   0.810   1.776  16.714  0.2606 -0.1066 -0.2188
 2079TIP3    H130432   0.732   1.723  16.731  1.7837 -2.1122  0.9110
 2079TIP3    H230433   0.775   1.858  16.678 -2.4343 -0.4401  1.3089
 2080TIP3   OH230434   1.064   1.862  17.045 -0.1745  0.3861 -0.4966
 2080TIP3    H130435   1.125   1.894  17.111  1.6597  0.6573 -2.2390
 2080TIP3    H230436   1.026   1.942  17.007 -0.6095  0.2530 -0.3519
 2081TIP3   OH230437   3.691   1.405  16.535  0.0848 -0.1232 -0.4689
 2081TIP3    H130438   3.665   1.447  16.617 -1.6157  0.4070 -1.2299
 2081TIP3    H230439   3.658   1.316  16.541  0.9867 -0.4432 -0.1175
 2082TIP3   OH230440   0.371   4.897  16.702 -0.0720  0.4558  0.3061
 2082TIP3    H130441   0.390   4.960  16.633 -2.0107  2.3920  1.4434
 2082TIP3    H230442   0.301   4.842  16.666 -0.2675  0.7040  0.3095
 2083TIP3   OH230443   4.216   0.193  16.687 -0.8087 -0.6385 -0.4887
 2083TIP3    H130444   4.205   0.282  16.723 -0.1148 -0.5688 -0.4380
 2083TIP3    H230445   4.288   0.155  16.738 -1.1145 -1.2407 -0.4987
 2084TIP3   OH230446   3.519   0.301  13.844 -0.0544 -0.6186  0.4713
 2084TIP3    H130447   3.451   0.250  13.888 -0.5458  0.0652  0.5168
 2084TIP3    H230448   3.500   0.290  13.750 -0.5030 -0.0702  0.4926
 2085TIP3   OH230449   5.648   0.183  17.123  0.2648  0.2035 -0.4934
 2085TIP3    H130450   5.579   0.117  17.126 -0.2322  0.7343  0.1839
 2085TIP3    H230451   5.728   0.134  17.105  0.1195 -0.7653  1.2510
 2086TIP3   OH230452   2.808   5.698  17.459  0.1291  0.1359 -0.3195
 2086TIP3    H130453   2.887   5.746  17.433 -0.4367  1.6134  0.6010
 2086TIP3    H230454   2.823   5.675  17.551 -0.9669  1.4359  0.2078
 2087TIP3   OH230455   1.995   0.958  16.587 -0.3650  0.2110 -0.0491
 2087TIP3    H130456   1.930   1.003  16.534  0.0475 -0.5087 -1.1982
 2087TIP3    H230457   2.060   1.026  16.608  0.6285  0.0678 -2.3677
 2088TIP3   OH230458   4.104   5.928  15.617 -1.0395 -0.0621 -0.0995
 2088TIP3    H130459   4.146   5.973  15.691 -1.0506  0.1510 -0.2203
 2088TIP3    H230460   4.152   5.846  15.608 -1.3510 -0.3081  0.4548
 2089TIP3   OH230461   3.706   2.019  17.048  0.6513  0.0653 -0.3079
 2089TIP3    H130462   3.681   2.098  16.999  0.6903  0.6710  0.6316
 2089TIP3    H230463   3.739   1.959  16.981  0.0791  0.6225 -1.1101
 2090TIP3   OH230464   1.803   0.935  16.795 -0.4491  0.0245  0.2036
 2090TIP3    H130465   1.884   0.916  16.749  0.8212  0.5346  2.1092
 2090TIP3    H230466   1.793   1.030  16.789 -1.7846 -0.1825 -1.3589
 2091TIP3   OH230467   2.296   0.523  16.177 -0.0744 -0.3631 -0.1260
 2091TIP3    H130468   2.278   0.430  16.164 -1.1554  0.0683 -2.2345
 2091TIP3    H230469   2.367   0.526  16.241  0.0047 -2.6288 -0.0544
 2092TIP3   OH230470   1.785   6.327  17.741  0.0647  0.8609 -0.7644
 2092TIP3    H130471   1.827   6.355  17.823  0.9821 -0.4867 -0.7356
 2092TIP3    H230472   1.822   6.240  17.724 -0.7926  0.7371 -2.1433
 2093TIP3   OH230473   0.288   4.591  15.843  0.5758 -0.6235 -0.6177
 2093TIP3    H130474   0.316   4.673  15.803 -0.7088 -0.0841 -0.4564
 2093TIP3    H230475   0.341   4.524  15.800  1.1752  0.2143 -1.2214
 2094TIP3   OH230476   0.131   0.427  16.927 -0.0105 -0.0602  0.4022
 2094TIP3    H130477   0.180   0.382  16.997  1.8830  1.0700 -0.1268
 2094TIP3    H230478   0.152   0.378  16.848 -1.0948 -0.5456  0.3992
 2095TIP3   OH230479   4.933   1.146  16.772  0.3054 -0.4084 -0.1880
 2095TIP3    H130480   4.959   1.171  16.861 -0.8439 -1.4238  0.4764
 2095TIP3    H230481   5.010   1.102  16.736 -0.0924 -2.6658  1.4387
 2096TIP3   OH230482   5.459   4.038  16.765  0.2640  0.2444 -0.4102
 2096TIP3    H130483   5.397   3.982  16.719  0.0387  0.2864 -0.1640
 2096TIP3    H230484   5.529   3.979  16.793 -0.0091  0.0694 -0.0878
 2097TIP3   OH230485   3.406   1.692  16.721 -0.7365 -0.1792  0.6057
 2097TIP3    H130486   3.312   1.697  16.741 -1.9311 -0.1545 -3.8556
 2097TIP3    H230487   3.427   1.599  16.725 -1.6386 -0.4624 -0.5871
 2098TIP3   OH230488   4.292   1.926  17.734  0.3879 -0.0660  0.1209
 2098TIP3    H130489   4.324   1.954  17.648  2.3330 -0.8426  0.5385
 2098TIP3    H230490   4.199   1.907  17.720  0.2272  1.5699 -1.3554
 2099TIP3   OH230491   2.590   1.716  15.900  0.1636 -0.3620 -0.3706
 2099TIP3    H130492   2.531   1.779  15.940 -0.1498 -1.4342  0.9282
 2099TIP3    H230493   2.671   1.723  15.951 -0.5271 -2.3598  1.1823
 2100TIP3   OH230494   0.035   0.245  14.653  0.0999  0.0664  0.0436
 2100TIP3    H130495   0.126   0.215  14.655  0.0101 -0.4282 -1.6181
 2100TIP3    H230496   0.041   0.337  14.626  0.0598 -0.5256 -2.1801
 2101TIP3   OH230497   5.082   2.045  16.361 -0.7725 -0.0257 -0.2599
 2101TIP3    H130498   5.039   2.127  16.337 -1.5042 -0.7121 -1.3550
 2101TIP3    H230499   5.010   1.985  16.378 -0.2539 -0.9470 -1.2422
 2102TIP3   OH230500   5.641   6.605  15.767 -0.3697 -0.0642 -0.0826
 2102TIP3    H130501   5.608   6.566  15.848  0.0640  0.0131  0.1348
 2102TIP3    H230502   5.579   6.577  15.700 -0.3401 -0.7143  0.1525
 2103TIP3   OH230503   5.425   4.283  15.706  0.1418  0.1457 -0.1851
 2103TIP3    H130504   5.412   4.294  15.611 -0.2170  2.7029  0.0788
 2103TIP3    H230505   5.507   4.329  15.725  0.6804 -1.0967  0.6664
 2104TIP3   OH230506   5.222   4.035  15.624 -0.0155 -0.2753 -0.1677
 2104TIP3    H130507   5.272   3.980  15.565 -0.1435 -0.9634  0.3411
 2104TIP3    H230508   5.276   4.041  15.703 -0.2331 -0.0946 -0.0306
 2105TIP3   OH230509   0.354   5.018  17.628  0.2599 -0.1686  0.2118
 2105TIP3    H130510   0.398   5.096  17.595 -0.4971 -0.2308 -0.9860
 2105TIP3    H230511   0.317   5.045  17.713 -0.4664  0.9504 -0.4431
 2106TIP3   OH230512   5.320   3.623  15.520 -0.2417  0.3435 -0.4489
 2106TIP3    H130513   5.366   3.696  15.478 -1.1333  0.8884 -0.5119
 2106TIP3    H230514   5.386   3.554  15.527  0.8622  1.4284  0.3493
 2107TIP3   OH230515   2.860   6.328  16.900  0.6158  0.3023 -0.2220
 2107TIP3    H130516   2.771   6.362  16.906  0.1123 -0.5104 -2.4341
 2107TIP3    H230517   2.916   6.404  16.914 -0.3738  0.8031  1.3187
 2108TIP3   OH230518   6.093   5.568  15.801 -0.6650  0.0997  0.6215
 2108TIP3    H130519   6.139   5.564  15.717 -0.4290  0.3072  0.7418
 2108TIP3    H230520   6.162   5.566  15.867 -0.8521 -0.1147  0.8151
 2109TIP3   OH230521   4.442   0.170  15.105 -0.8397  0.7102 -0.1740
 2109TIP3    H130522   4.479   0.234  15.167 -0.7283 -1.2869  1.9513
 2109TIP3    H230523   4.508   0.163  15.037  0.9287  0.2030  1.4852
 2110TIP3   OH230524   2.850   3.315  17.751  0.1040  0.1568 -0.3949
 2110TIP3    H130525   2.879   3.310  17.660 -0.2144  2.1835 -0.6666
 2110TIP3    H230526   2.755   3.300  17.747  0.0446  0.5272 -0.4546
 2111TIP3   OH230527   5.234   1.099  15.571  0.2512 -0.2333 -0.5459
 2111TIP3    H130528   5.171   1.064  15.635  1.9104 -1.7725  0.3181
 2111TIP3    H230529   5.261   1.183  15.608  0.2535 -0.5253  0.1305
 2112TIP3   OH230530   5.020   5.501  16.886  0.3722  0.0429  0.7344
 2112TIP3    H130531   5.014   5.421  16.939  2.2222 -0.3477  0.4200
 2112TIP3    H230532   4.939   5.502  16.836  0.9472 -2.5428 -0.4110
 2113TIP3   OH230533   0.512   3.940  15.183 -0.2247 -0.2706 -0.0687
 2113TIP3    H130534   0.463   3.864  15.153 -0.9763  0.4138 -0.6081
 2113TIP3    H230535   0.445   4.005  15.203  0.4304  0.3933 -0.0056
 2114TIP3   OH230536   6.150   2.860  17.765 -0.2471 -0.2757 -0.0538
 2114TIP3    H130537   6.167   2.911  17.844  1.6609  0.4274 -0.8613
 2114TIP3    H230538   6.086   2.795  17.792 -0.3834  0.5679  1.8160
 2115TIP3   OH230539   1.940   3.475  16.461  0.2967 -0.0058 -0.2601
 2115TIP3    H130540   1.866   3.535  16.465  0.6728  0.5303 -0.9908
 2115TIP3    H230541   1.906   3.398  16.416 -0.2015 -0.3684  0.7232
 2116TIP3   OH230542   5.409   6.020  17.386  0.8447 -0.0164  0.0687
 2116TIP3    H130543   5.496   6.030  17.424  0.3014  2.2954  0.8798
 2116TIP3    H230544   5.350   6.054  17.453 -0.8044 -2.2443 -0.1332
 2117TIP3   OH230545   6.712   4.769  17.471 -0.4317  0.4065 -0.1397
 2117TIP3    H130546   6.741   4.697  17.416 -2.3834  0.1081 -0.8644
 2117TIP3    H230547   6.735   4.743  17.560 -0.3335 -0.7144 -0.4840
 2118TIP3   OH230548   6.438   5.641  15.499 -0.7643 -0.4983 -0.3730
 2118TIP3    H130549   6.528   5.627  15.529 -1.1756  0.6395  1.5211
 2118TIP3    H230550   6.447   5.659  15.405  1.0768  0.4781 -0.0569
 2119TIP3   OH230551   0.892   3.260  16.425 -0.2528 -0.1555  0.3524
 2119TIP3    H130552   0.983   3.274  16.454 -0.4290  0.1084  0.7826
 2119TIP3    H230553   0.858   3.194  16.485 -0.9149  1.0767  1.3773
 2120TIP3   OH230554   1.947   2.921  16.985 -0.1539 -0.0926 -0.9522
 2120TIP3    H130555   2.025   2.939  17.036 -0.1493 -1.7167 -0.3352
 2120TIP3    H230556   1.970   2.946  16.896  0.6273  0.6148 -0.5630
 2121TIP3   OH230557   4.558   2.189  17.814 -0.3781  0.6086  0.3122
 2121TIP3    H130558   4.587   2.244  17.888 -1.0001 -1.0688  1.8833
 2121TIP3    H230559   4.638   2.149  17.781 -0.0734  1.4989 -0.0464
 2122TIP3   OH230560   6.561   3.167  15.475  0.0801 -0.4646 -0.6031
 2122TIP3    H130561   6.641   3.200  15.436  1.4545 -3.5906 -0.6899
 2122TIP3    H230562   6.550   3.219  15.555  1.1825  1.1772 -1.4634
 2123TIP3   OH230563   0.006   1.062  15.681 -0.1681  0.4912 -0.4962
 2123TIP3    H130564  -0.039   1.143  15.655 -0.1341  1.1377  1.3335
 2123TIP3    H230565  -0.039   1.034  15.760 -0.1416 -1.2902 -1.0656
 2124TIP3   OH230566   0.897   3.100  15.954  0.4500  0.4201 -0.1253
 2124TIP3    H130567   0.904   3.181  16.004  0.1082 -0.5368  1.5324
 2124TIP3    H230568   0.982   3.091  15.911  0.7963  1.2126  0.3611
 2125TIP3   OH230569   4.122   0.128  17.875  0.5095 -0.3454 -0.0147
 2125TIP3    H130570   4.211   0.106  17.850  0.1251 -0.6559 -1.1599
 2125TIP3    H230571   4.079   0.151  17.793 -0.5087 -0.3408  0.5047
 2126TIP3   OH230572   3.167   5.674  18.115  0.0895  0.0405  0.0732
 2126TIP3    H130573   3.163   5.765  18.086  1.7824  0.8855  2.1974
 2126TIP3    H230574   3.091   5.633  18.074 -2.5845  3.1268  1.3782
 2127TIP3   OH230575   1.624   3.860  17.018  0.4206  0.0928  0.0473
 2127TIP3    H130576   1.553   3.873  16.955 -0.2423  0.5478  0.8753
 2127TIP3    H230577   1.589   3.892  17.101  0.2368 -2.9643  1.2850
 2128TIP3   OH230578   1.337   0.366  15.099  0.4425  0.1193 -0.6101
 2128TIP3    H130579   1.400   0.295  15.108  0.1135 -0.0937  0.1200
 2128TIP3    H230580   1.347   0.418  15.179 -0.3656  0.0144 -0.4229
 2129TIP3   OH230581   4.513   0.769  15.466  0.2409  0.3080  0.3087
 2129TIP3    H130582   4.584   0.712  15.436 -0.8410 -1.0048  0.1679
 2129TIP3    H230583   4.486   0.730  15.549 -1.7101 -0.5089 -0.6482
 2130TIP3   OH230584   2.809   5.722  15.068  0.3006  1.0227 -0.3815
 2130TIP3    H130585   2.875   5.699  15.133 -0.9306  1.7232  1.1786
 2130TIP3    H230586   2.840   5.804  15.030 -0.8385  2.8342  2.2447
 2131TIP3   OH230587   5.703   5.087  15.988 -0.1090  0.6472 -0.1449
 2131TIP3    H130588   5.615   5.099  16.024 -0.6388  0.0700 -1.1936
 2131TIP3    H230589   5.705   5.144  15.911 -0.3826 -0.9840 -1.4236
 2132TIP3   OH230590   2.760   1.648  15.213  0.3597  0.0590 -0.1487
 2132TIP3    H130591   2.702   1.679  15.282 -0.3103  0.1816 -0.7549
 2132TIP3    H230592   2.845   1.687  15.234  0.7389 -1.7263  1.8573
 2133TIP3   OH230593   2.213   2.467  16.938 -0.3448  0.2088  0.1224
 2133TIP3    H130594   2.168   2.409  16.877  1.4965  0.1318 -1.2621
 2133TIP3    H230595   2.306   2.453  16.919  0.2223  1.5288  1.7345
 2134TIP3   OH230596   1.236   5.354  16.781  0.0392  0.4123  0.0006
 2134TIP3    H130597   1.171   5.285  16.771 -0.1114  0.7849 -1.9191
 2134TIP3    H230598   1.190   5.434  16.753  0.9063  0.9132 -0.0201
 2135TIP3   OH230599   4.242   5.696  15.669 -0.2081 -0.2023  0.2062
 2135TIP3    H130600   4.307   5.741  15.614 -1.2973  2.3907  0.9065
 2135TIP3    H230601   4.197   5.637  15.609  0.3161  0.7061 -1.1248
 2136TIP3   OH230602   4.267   1.324  17.376  0.2885  0.0859 -0.4831
 2136TIP3    H130603   4.287   1.242  17.332  0.7842 -0.4654  0.7390
 2136TIP3    H230604   4.213   1.299  17.451  0.9219  0.8097  0.2276
 2137TIP3   OH230605   2.093   5.765  15.025  0.2438  0.4057  0.9864
 2137TIP3    H130606   2.174   5.750  15.074  0.9991  0.3495 -0.2320
 2137TIP3    H230607   2.036   5.693  15.050  0.7190  0.2154  1.5409
 2138TIP3   OH230608   3.777   2.910  15.134 -0.0215 -0.8760 -0.0228
 2138TIP3    H130609   3.847   2.963  15.173 -1.9770  1.8685  0.0623
 2138TIP3    H230610   3.822   2.859  15.066  2.4210 -1.1503  1.6487
 2139TIP3   OH230611   2.812   6.016  17.473  0.0063 -0.0029 -0.2489
 2139TIP3    H130612   2.746   6.040  17.408 -0.1241 -0.8147 -0.4352
 2139TIP3    H230613   2.895   6.020  17.426  0.0850  0.9678 -0.0318
 2140TIP3   OH230614   1.079   3.380  17.694  0.2133  0.0022 -0.5084
 2140TIP3    H130615   1.099   3.470  17.720 -0.6013  0.0114  0.1336
 2140TIP3    H230616   1.030   3.343  17.768  1.2937 -1.2553 -0.3836
 2141TIP3   OH230617   1.702   6.363  16.372  0.2460 -0.2236  0.3632
 2141TIP3    H130618   1.735   6.396  16.456  1.2692 -2.0399  0.7501
 2141TIP3    H230619   1.781   6.347  16.321 -0.2190 -1.3184 -0.0499
 2142TIP3   OH230620   1.581   5.819  16.123 -0.2782 -0.0197 -0.2593
 2142TIP3    H130621   1.502   5.871  16.104 -0.0029  0.0383 -1.3099
 2142TIP3    H230622   1.552   5.728  16.113  0.1449  0.0198 -2.3066
 2143TIP3   OH230623   0.023   4.500  16.003 -0.1016  0.2181  0.5006
 2143TIP3    H130624   0.103   4.539  15.967 -0.6273  0.3579 -0.5401
 2143TIP3    H230625   0.046   4.478  16.093  0.8694  0.9708  0.4524
 2144TIP3   OH230626   0.991   5.059  17.981  0.0605 -0.1326 -0.0612
 2144TIP3    H130627   1.056   5.124  18.007 -0.1374 -0.1899  0.5911
 2144TIP3    H230628   1.042   4.979  17.964  0.2256 -0.0077 -0.1515
 2145TIP3   OH230629   2.558   2.846  17.130  0.3290  0.0134  0.1158
 2145TIP3    H130630   2.527   2.788  17.199  1.5150 -0.3634  0.3439
 2145TIP3    H230631   2.557   2.792  17.051  1.2106 -0.2557  0.2836
 2146TIP3   OH230632   1.767   6.323  16.762  0.1475 -0.3121 -0.6389
 2146TIP3    H130633   1.681   6.361  16.778  0.2145  0.2771 -1.6200
 2146TIP3    H230634   1.829   6.381  16.806  0.0381 -0.9416  0.3911
 2147TIP3   OH230635   3.617   0.814  15.396  0.0504  0.2860  0.2948
 2147TIP3    H130636   3.662   0.844  15.474  0.5777  0.9339 -0.2502
 2147TIP3    H230637   3.681   0.758  15.352 -0.2763 -0.1486  0.3637
 2148TIP3   OH230638   4.399   1.131  14.616 -0.2772  0.6156 -0.1367
 2148TIP3    H130639   4.452   1.209  14.599  0.0777  0.5140  0.4636
 2148TIP3    H230640   4.348   1.119  14.536  1.6565 -0.1259 -1.3463
 2149TIP3   OH230641   2.324   5.616  14.372  0.1235 -0.3073  0.3079
 2149TIP3    H130642   2.280   5.601  14.288  1.3360 -3.1114  0.0561
 2149TIP3    H230643   2.330   5.528  14.412 -0.3670  0.9025  3.3418
 2150TIP3   OH230644   3.478   0.346  16.449  0.5497 -0.0279 -0.2402
 2150TIP3    H130645   3.494   0.404  16.375  2.5489 -0.6307 -0.3267
 2150TIP3    H230646   3.389   0.368  16.477  0.0866  0.8794 -2.2048
 2151TIP3   OH230647   2.153   4.414  16.821  0.1250  0.6904 -0.0983
 2151TIP3    H130648   2.246   4.394  16.833  0.1735  2.0156  2.7587
 2151TIP3    H230649   2.131   4.466  16.899 -2.9981  0.4733 -0.7465
 2152TIP3   OH230650   2.669   4.030  16.636  0.2605 -0.6592  0.5927
 2152TIP3    H130651   2.662   3.977  16.557  2.0434  1.8406 -1.4164
 2152TIP3    H230652   2.762   4.024  16.661  0.3835  1.0023  0.6336
 2153TIP3   OH230653   4.050   1.011  15.152  0.2517  0.0551 -0.2172
 2153TIP3    H130654   3.977   1.009  15.090 -1.4242 -0.0273  1.6588
 2153TIP3    H230655   4.121   0.965  15.107 -1.1478 -0.6962 -1.7504
 2154TIP3   OH230656   2.274   4.882  17.533 -0.2774  0.3982  0.4602
 2154TIP3    H130657   2.227   4.896  17.615 -0.3541  0.1158  0.4662
 2154TIP3    H230658   2.365   4.902  17.554  0.1337 -2.0409  1.2854
 2155TIP3   OH230659   5.015   1.643  17.982  0.5668  0.4715 -0.5343
 2155TIP3    H130660   4.994   1.712  18.046 -0.7014  1.9795 -2.4605
 2155TIP3    H230661   4.947   1.577  17.995  1.4464 -0.1930  0.9292
 2156TIP3   OH230662   3.940   4.698  16.254 -0.0639 -0.5802 -0.0407
 2156TIP3    H130663   3.921   4.779  16.301  1.0583 -1.1949  1.5877
 2156TIP3    H230664   3.856   4.653  16.250 -1.0709  1.2765 -2.3977
 2157TIP3   OH230665   3.482   3.094  16.312 -0.1411 -0.3477  0.5954
 2157TIP3    H130666   3.434   3.012  16.323 -2.8042  1.1218  0.9822
 2157TIP3    H230667   3.461   3.146  16.390 -1.0888  1.8030 -0.9667
 2158TIP3   OH230668   4.235   1.086  16.868  0.0629  0.4309  0.1534
 2158TIP3    H130669   4.224   1.075  16.774  0.7588  1.1374 -0.0150
 2158TIP3    H230670   4.211   1.177  16.885  1.6864  0.8557  0.3621
 2159TIP3   OH230671   4.886   1.473  16.932  0.2285 -0.3182 -0.1156
 2159TIP3    H130672   4.847   1.435  16.853  1.3878 -0.8374 -0.4678
 2159TIP3    H230673   4.816   1.470  16.997 -1.1612  1.2464 -1.4253
 2160TIP3   OH230674   2.268   0.939  16.362 -0.1325 -0.5805 -0.1790
 2160TIP3    H130675   2.175   0.918  16.354 -0.6141  0.2458  2.3690
 2160TIP3    H230676   2.270   1.032  16.385  1.3377 -0.5598 -0.2595
 2161TIP3   OH230677   0.402   4.824  15.751  0.5757  1.1939  0.1757
 2161TIP3    H130678   0.416   4.917  15.767 -0.7232  1.0705  2.4523
 2161TIP3    H230679   0.489   4.786  15.752  1.1117  2.3459 -0.6808
 2162TIP3   OH230680   1.963   5.831  16.539 -0.1850 -0.0004  0.1399
 2162TIP3    H130681   1.903   5.889  16.585 -1.5977 -1.0620 -0.2994
 2162TIP3    H230682   2.026   5.804  16.606 -0.1713  1.1156  0.6064
 2163TIP3   OH230683   2.217   1.635  16.475 -0.2011  0.0810 -0.4034
 2163TIP3    H130684   2.238   1.568  16.540  0.1574  0.6415  0.0665
 2163TIP3    H230685   2.156   1.591  16.415 -2.5461  0.2284  1.6719
 2164TIP3   OH230686   5.050   0.848  16.959  0.3822  0.6823 -0.6311
 2164TIP3    H130687   5.089   0.895  16.886  2.8673  1.7805  1.2511
 2164TIP3    H230688   4.980   0.906  16.990  0.5313  1.0735 -1.0207
 2165TIP3   OH230689   2.317   2.463  17.361  0.1504 -0.1513  0.6332
 2165TIP3    H130690   2.280   2.413  17.433 -1.9179 -0.9271 -0.8575
 2165TIP3    H230691   2.389   2.409  17.328 -0.0058 -0.6077  1.0265
 2166TIP3   OH230692   6.583   3.498  15.619 -0.0044  0.6266  0.7395
 2166TIP3    H130693   6.656   3.539  15.572  0.6025 -0.8318  0.3639
 2166TIP3    H230694   6.526   3.571  15.642  0.6376  1.5939 -0.5997
 2167TIP3   OH230695   1.594   0.095  16.051 -0.8135 -0.3637 -0.5392
 2167TIP3    H130696   1.622   0.148  15.976 -0.3005  0.0996 -0.0317
 2167TIP3    H230697   1.630   0.008  16.034 -0.4656 -0.1911 -0.6925
 2168TIP3   OH230698   5.866   4.646  15.869 -0.1940  0.4369 -0.2474
 2168TIP3    H130699   5.853   4.582  15.939 -0.5242  0.7617 -0.0059
 2168TIP3    H230700   5.937   4.702  15.900  2.5669 -1.8503 -1.9334
 2169TIP3   OH230701   4.925   4.599  15.757 -0.0314 -0.0337 -0.4996
 2169TIP3    H130702   5.008   4.566  15.722  0.6090  1.4248 -0.4355
 2169TIP3    H230703   4.941   4.609  15.851 -0.0121  0.9539 -0.5960
 2170TIP3   OH230704   0.719   4.717  16.506 -0.4714  0.2484 -0.9046
 2170TIP3    H130705   0.686   4.767  16.431 -0.8345 -0.7034 -1.3950
 2170TIP3    H230706   0.679   4.631  16.497  2.3592 -1.1162 -1.7368
 2171TIP3   OH230707   0.358   5.720  18.233  0.3771  0.2079  0.4480
 2171TIP3    H130708   0.268   5.749  18.249 -0.3856 -1.2560 -0.9542
 2171TIP3    H230709   0.407   5.801  18.215 -1.3130  0.8183 -1.7523
 2172TIP3   OH230710   0.464   0.222  14.894 -0.3803  0.0216 -0.3632
 2172TIP3    H130711   0.539   0.282  14.893  0.5596 -1.0271  1.2853
 2172TIP3    H230712   0.454   0.194  14.803  0.1306  1.4587 -0.8990
 2173TIP3   OH230713   1.100   2.323  18.064 -0.1961 -0.1592  0.2724
 2173TIP3    H130714   1.126   2.397  18.009 -0.2415 -1.0913 -1.0561
 2173TIP3    H230715   1.182   2.294  18.104  0.0300 -0.1550 -0.1750
 2174TIP3   OH230716   5.036   5.751  17.075 -0.0680 -0.1283  0.6188
 2174TIP3    H130717   5.045   5.847  17.074 -1.8489  0.0924  1.6110
 2174TIP3    H230718   4.949   5.735  17.039 -1.3933 -1.0718  3.8863
 2175TIP3   OH230719   0.492   0.207  14.632 -0.0359 -0.1457  0.6540
 2175TIP3    H130720   0.451   0.176  14.551  0.1276  0.7979  0.1868
 2175TIP3    H230721   0.548   0.280  14.603 -0.8892  0.9973  1.7544
 2176TIP3   OH230722   5.766   5.071  16.640  0.1178  0.2836 -0.0995
 2176TIP3    H130723   5.724   5.034  16.718  0.4079  0.1032 -0.0289
 2176TIP3    H230724   5.762   5.166  16.653 -1.6078  0.3449 -0.7794
 2177TIP3   OH230725   4.511   4.044  17.940 -0.4306  0.1195 -0.3183
 2177TIP3    H130726   4.490   4.100  17.865 -0.5340 -0.3663 -0.6550
 2177TIP3    H230727   4.491   4.099  18.017 -2.4873 -0.1332 -0.6167
 2178TIP3   OH230728   3.629   2.420  16.216  0.6212 -0.2326 -0.4245
 2178TIP3    H130729   3.572   2.404  16.291  1.1884 -1.1790 -0.1766
 2178TIP3    H230730   3.658   2.333  16.189 -1.0355 -0.0943 -2.9170
 2179TIP3   OH230731   3.515   4.926  18.011  0.0871 -0.0260  0.4651
 2179TIP3    H130732   3.432   4.950  18.052  0.1310 -0.4543  0.8104
 2179TIP3    H230733   3.537   5.001  17.956 -1.0224 -0.3137 -0.4061
 2180TIP3   OH230734   3.744   1.226  16.827 -0.0925 -0.1727  0.4510
 2180TIP3    H130735   3.747   1.259  16.917  1.8856  1.1550 -0.0312
 2180TIP3    H230736   3.833   1.196  16.810 -0.3674 -0.1340 -1.1434
 2181TIP3   OH230737   6.097   4.866  17.191 -0.7948 -0.1966 -0.5290
 2181TIP3    H130738   6.121   4.827  17.107 -1.7103  0.2665 -1.0135
 2181TIP3    H230739   6.147   4.816  17.256 -0.9566 -1.3071 -1.2448
 2182TIP3   OH230740   3.961   2.632  17.781 -0.5808  0.1442 -0.0449
 2182TIP3    H130741   4.040   2.602  17.827  0.7810  1.9138 -1.0896
 2182TIP3    H230742   3.907   2.554  17.774  0.3986 -0.8234  2.0107
 2183TIP3   OH230743   3.798   1.733  18.027 -0.6824  0.1502 -0.1445
 2183TIP3    H130744   3.739   1.807  18.010 -0.3707  0.0421 -1.9745
 2183TIP3    H230745   3.878   1.772  18.061 -0.6871  0.6288 -0.6653
 2184TIP3   OH230746   0.189   2.668  17.530 -0.5352 -0.1184  0.0644
 2184TIP3    H130747   0.260   2.694  17.589 -0.8335 -0.5621  0.6348
 2184TIP3    H230748   0.121   2.634  17.589 -1.8911  1.7747 -0.3104
 2185TIP3   OH230749   0.371   2.132  14.948  0.4430 -0.5901  0.0592
 2185TIP3    H130750   0.320   2.157  14.871  0.6104  0.2027  0.1926
 2185TIP3    H230751   0.312   2.148  15.022 -0.7993 -4.0767  0.0105
 2186TIP3   OH230752   0.078   2.414  14.884  0.1456 -0.3623  0.1332
 2186TIP3    H130753   0.013   2.475  14.846 -0.8238 -1.1643  0.4677
 2186TIP3    H230754   0.082   2.438  14.976  0.5765 -0.1124  0.0542
 2187TIP3   OH230755   5.709   1.834  17.132  0.4294 -0.0825 -0.7120
 2187TIP3    H130756   5.714   1.879  17.217  2.3553 -2.0290  0.3016
 2187TIP3    H230757   5.712   1.741  17.154  1.9679 -0.6287 -2.9463
 2188TIP3   OH230758   3.350   6.552  17.553 -0.5822 -0.3551  0.0174
 2188TIP3    H130759   3.273   6.540  17.609 -0.7810 -2.2455 -0.5722
 2188TIP3    H230760   3.356   6.470  17.503  0.1834  0.8382 -1.9736
 2189TIP3   OH230761   2.142   2.563  17.594  0.3234 -0.1891  0.3176
 2189TIP3    H130762   2.067   2.540  17.539 -0.0125 -0.4166  0.8595
 2189TIP3    H230763   2.187   2.633  17.546 -1.0430  0.9629  0.6687
 2190TIP3   OH230764   5.526   5.835  17.227  0.1751  0.0523  0.1085
 2190TIP3    H130765   5.473   5.843  17.307  2.6626  1.8961  1.7093
 2190TIP3    H230766   5.504   5.912  17.176 -1.1013 -0.9176 -0.8989
 2191TIP3   OH230767   3.012   0.248  13.916  0.1094 -0.3976  0.0408
 2191TIP3    H130768   2.979   0.326  13.871  0.7761 -0.3268 -0.3432
 2191TIP3    H230769   3.071   0.282  13.983  0.8518 -0.5841 -0.5064
 2192TIP3   OH230770   3.059   1.949  17.182  0.4992  0.0484  0.3895
 2192TIP3    H130771   3.147   1.982  17.166 -0.1169  2.0148  0.6918
 2192TIP3    H230772   3.050   1.951  17.278  0.4053 -0.9714  0.4125
 2193TIP3   OH230773   6.369   0.961  17.160  0.2867  0.3722 -0.2864
 2193TIP3    H130774   6.454   0.928  17.130  0.2018 -0.3098  0.2062
 2193TIP3    H230775   6.386   1.053  17.182  0.7791  0.3732 -0.6524
 2194TIP3   OH230776   5.820   4.933  17.758 -0.4466 -0.1512 -0.0911
 2194TIP3    H130777   5.853   4.861  17.812 -2.1613  0.4954  1.9718
 2194TIP3    H230778   5.778   4.891  17.683  0.0625 -1.2051  0.2080
 2195TIP3   OH230779   5.097   5.283  15.786 -0.1545 -0.1428  0.0145
 2195TIP3    H130780   5.178   5.330  15.807  0.0686 -0.6515  0.2980
 2195TIP3    H230781   5.031   5.323  15.843 -0.1876  0.5233 -0.4772
 2196TIP3   OH230782   0.949   4.975  15.265  0.0339  1.1767 -0.2063
 2196TIP3    H130783   0.985   4.904  15.213 -1.9351 -0.2914  0.3257
 2196TIP3    H230784   0.956   4.945  15.356 -1.5587  1.2675 -0.0266
 2197TIP3   OH230785   3.294   3.876  15.772 -0.1498  0.0396  1.3015
 2197TIP3    H130786   3.293   3.913  15.684  0.5549 -3.3246 -0.2781
 2197TIP3    H230787   3.351   3.934  15.822 -1.3052  2.5663 -0.1253
 2198TIP3   OH230788   0.200   3.787  15.748 -0.4222  0.6447  0.7528
 2198TIP3    H130789   0.287   3.772  15.786  0.2860 -0.3420 -1.1423
 2198TIP3    H230790   0.161   3.700  15.743 -0.3807  0.6941 -0.9675
 2199TIP3   OH230791   5.501   2.589  15.866 -0.0589  0.0310 -0.2801
 2199TIP3    H130792   5.428   2.644  15.894  0.9633  0.7090  1.1896
 2199TIP3    H230793   5.511   2.525  15.936 -0.0179 -0.8472 -1.0656
 2200TIP3   OH230794   4.874   4.418  14.710  0.0234 -0.3978  0.1731
 2200TIP3    H130795   4.885   4.513  14.716 -2.3280 -0.0427 -0.4883
 2200TIP3    H230796   4.962   4.386  14.688  1.1752  1.4490  1.7559
 2201TIP3   OH230797   6.606   4.283  15.911 -0.1128 -0.2306  0.1734
 2201TIP3    H130798   6.607   4.373  15.944 -1.8263 -0.8805  2.2426
 2201TIP3    H230799   6.612   4.228  15.990  0.6498 -1.9642 -1.0147
 2202TIP3   OH230800   1.550   4.494  15.578  0.1688 -0.3904  0.3776
 2202TIP3    H130801   1.492   4.446  15.519 -0.8718 -0.9331  1.7686
 2202TIP3    H230802   1.628   4.439  15.585  1.1055  0.5363 -1.8222
 2203TIP3   OH230803   6.530   5.500  17.020  0.1577  0.4720 -0.0413
 2203TIP3    H130804   6.525   5.410  16.987  1.3352  0.5099 -0.3770
 2203TIP3    H230805   6.580   5.492  17.102 -0.4031  0.7314  0.3350
 2204TIP3   OH230806   3.870   4.362  15.434  0.1266  0.1912  1.0337
 2204TIP3    H130807   3.963   4.349  15.452  0.3539  0.6383  0.2254
 2204TIP3    H230808   3.828   4.283  15.467  0.8973 -0.4050  0.6182
 2205TIP3   OH230809   4.377   2.882  17.606 -0.5817  0.0302 -0.1587
 2205TIP3    H130810   4.388   2.905  17.699  4.2880  1.9708 -0.9562
 2205TIP3    H230811   4.387   2.787  17.604 -0.2011  0.0101  1.2275
 2206TIP3   OH230812   4.537   6.654  14.168 -0.1553  0.3436  0.0959
 2206TIP3    H130813   4.552   6.705  14.088 -0.4540  0.3254  0.0262
 2206TIP3    H230814   4.452   6.683  14.199 -0.1155  0.2251  0.3155
 2207TIP3   OH230815   6.706   4.596  15.352 -0.3301  0.1499 -0.1796
 2207TIP3    H130816   6.721   4.516  15.402 -1.2175  0.1211  0.0592
 2207TIP3    H230817   6.740   4.576  15.265 -1.1546 -0.7454 -0.3186
 2208TIP3   OH230818   0.989   2.410  17.677  0.6814  0.3000 -0.2083
 2208TIP3    H130819   1.013   2.325  17.640 -4.2428 -0.9795 -1.1932
 2208TIP3    H230820   0.952   2.389  17.763 -1.5720  1.1874 -0.8952
 2209TIP3   OH230821   3.371   4.473  18.109 -0.4793  0.4482  0.3185
 2209TIP3    H130822   3.438   4.510  18.052  2.5053 -3.4691  0.9120
 2209TIP3    H230823   3.400   4.496  18.198  0.3410 -1.5092  0.5961
 2210TIP3   OH230824   5.045   0.979  15.081  0.2968  0.4059  0.5114
 2210TIP3    H130825   5.052   1.031  15.161  1.1100 -0.3177  0.9169
 2210TIP3    H230826   5.114   1.014  15.024  1.6546 -0.9843  1.2369
 2211TIP3   OH230827   6.313   3.457  17.137 -0.5801 -0.1235  0.3441
 2211TIP3    H130828   6.380   3.397  17.105  0.6274  1.2764  0.1504
 2211TIP3    H230829   6.248   3.400  17.178  0.8022 -1.5179  0.7052
 2212TIP3   OH230830   2.253   1.567  16.935 -0.3457 -0.0927  0.2935
 2212TIP3    H130831   2.280   1.512  16.862 -1.6839 -0.6096  0.1476
 2212TIP3    H230832   2.179   1.617  16.901 -1.4784 -0.8890  1.4747
 2213TIP3   OH230833   3.767   6.173  15.295  0.5975 -0.2057 -0.4665
 2213TIP3    H130834   3.757   6.264  15.324  1.3658  0.4259 -2.0563
 2213TIP3    H230835   3.852   6.146  15.330  1.5223  0.5540 -2.0346
 2214TIP3   OH230836   6.308   4.202  15.348  0.0557  0.2771 -0.0387
 2214TIP3    H130837   6.351   4.210  15.263  0.6775 -1.3140  0.0915
 2214TIP3    H230838   6.272   4.289  15.365 -0.4715  0.4986 -2.1135
 2215TIP3   OH230839   6.429   2.232  15.636 -0.1900  0.1862 -0.0665
 2215TIP3    H130840   6.484   2.302  15.672  1.0277 -0.2839 -0.9572
 2215TIP3    H230841   6.482   2.192  15.567 -2.1374  0.5497 -1.8767
 2216TIP3   OH230842   5.716   1.902  17.718  0.1647 -0.2281  0.2951
 2216TIP3    H130843   5.684   1.859  17.638  0.9108 -2.7562  1.2465
 2216TIP3    H230844   5.648   1.885  17.783  0.3309  0.3421  0.6249
 2217TIP3   OH230845   1.828   4.385  16.488  0.8980 -0.5184  0.1135
 2217TIP3    H130846   1.768   4.453  16.459 -0.2632 -0.7819  1.7512
 2217TIP3    H230847   1.914   4.412  16.455  0.3739  1.4347  0.2427
 2218TIP3   OH230848   6.645   2.171  17.178  0.1242 -0.0102  0.1869
 2218TIP3    H130849   6.666   2.201  17.267 -2.0160 -1.7956  1.4273
 2218TIP3    H230850   6.729   2.150  17.139  1.0860 -1.8198  2.8819
 2219TIP3   OH230851   1.241   5.267  17.710  0.0372 -0.4196  0.5662
 2219TIP3    H130852   1.301   5.195  17.731  2.1653  1.4172  1.2195
 2219TIP3    H230853   1.234   5.266  17.615  0.8199 -0.9374  0.5015
 2220TIP3   OH230854   1.682   5.719  15.572  0.2218 -1.0380 -0.0710
 2220TIP3    H130855   1.653   5.777  15.642  0.2225 -0.8941 -0.1904
 2220TIP3    H230856   1.620   5.733  15.501 -0.4227 -1.9899  0.2937
 2221TIP3   OH230857   2.778   1.974  15.817 -0.1285  0.0290 -0.1709
 2221TIP3    H130858   2.841   1.913  15.779 -1.6433 -1.3693 -0.5671
 2221TIP3    H230859   2.809   1.988  15.907  2.2395  1.6075 -1.1406
 2222TIP3   OH230860   5.136   3.452  17.230  0.0667 -0.4258  0.0138
 2222TIP3    H130861   5.124   3.501  17.148  1.1879 -0.6715 -0.3236
 2222TIP3    H230862   5.080   3.375  17.220 -0.2529 -0.1590 -0.2715
 2223TIP3   OH230863   5.555   3.429  16.059 -0.1407 -0.8349 -0.2021
 2223TIP3    H130864   5.497   3.381  16.000  0.6019 -2.0166 -0.0007
 2223TIP3    H230865   5.507   3.434  16.141 -0.7933  0.0054 -0.6146
 2224TIP3   OH230866   4.144   1.323  16.988 -0.3445 -0.0171  0.0862
 2224TIP3    H130867   4.083   1.396  16.980  0.6729  0.6540 -4.3395
 2224TIP3    H230868   4.231   1.364  16.991  0.1496 -1.0454  2.6499
 2225TIP3   OH230869   6.576   0.664  15.064 -0.3442 -0.3048 -0.4622
 2225TIP3    H130870   6.575   0.721  14.987 -0.8881 -0.0079 -0.2364
 2225TIP3    H230871   6.507   0.600  15.048 -0.9866  0.2283  0.1273
 2226TIP3   OH230872   6.247   4.076  17.346  0.9808  0.1934  0.1519
 2226TIP3    H130873   6.303   4.039  17.414  1.4096  1.6482  0.6213
 2226TIP3    H230874   6.179   4.123  17.394  0.6395  0.2989 -0.4246
 2227TIP3   OH230875   5.497   5.681  16.749 -0.6159 -0.0122  0.3506
 2227TIP3    H130876   5.540   5.766  16.737  0.4691 -0.5542  0.2581
 2227TIP3    H230877   5.506   5.663  16.842  0.3731 -0.6308  0.1522
 2228TIP3   OH230878   2.948   0.978  15.696  0.0862 -0.4850 -0.0241
 2228TIP3    H130879   2.932   1.071  15.709  1.9896 -0.1254  0.1255
 2228TIP3    H230880   2.914   0.959  15.609  1.8772  0.9825 -1.1193
 2229TIP3   OH230881   5.565   3.601  15.040 -0.2269 -0.3687 -0.4028
 2229TIP3    H130882   5.659   3.582  15.033  0.2969  1.3254  1.1761
 2229TIP3    H230883   5.531   3.588  14.952  1.7554  0.2332 -1.3092
 2230TIP3   OH230884   4.866   1.138  15.975  0.4655 -0.1593 -0.5701
 2230TIP3    H130885   4.873   1.203  16.045  2.4121 -0.0712 -0.7936
 2230TIP3    H230886   4.924   1.066  16.003  0.7172 -0.4329 -1.7410
 2231TIP3   OH230887   2.538   3.875  16.887  0.6482  0.0563 -0.3187
 2231TIP3    H130888   2.579   3.933  16.822  0.2656  1.1679  0.4038
 2231TIP3    H230889   2.445   3.872  16.861  0.7239 -0.5283 -0.5503
 2232TIP3   OH230890   6.717   0.733  17.609 -0.0939  0.0567  0.1032
 2232TIP3    H130891   6.647   0.671  17.629  0.8884 -1.1589 -0.0800
 2232TIP3    H230892   6.716   0.794  17.682 -0.7053 -0.5352  0.6068
 2233TIP3   OH230893   5.824   2.153  16.197 -0.1798 -0.3961  0.1218
 2233TIP3    H130894   5.851   2.062  16.205 -0.6707 -0.5245  0.4061
 2233TIP3    H230895   5.889   2.202  16.247 -0.5353 -0.7130  0.9174
 2234TIP3   OH230896   0.216   2.194  17.125  0.1658 -0.0807 -0.1264
 2234TIP3    H130897   0.242   2.282  17.097  1.2202 -0.2900  0.1703
 2234TIP3    H230898   0.254   2.184  17.212 -0.3270 -0.6670  0.0260
 2235TIP3   OH230899   5.619   6.207  17.707  0.1357  0.0969 -0.3794
 2235TIP3    H130900   5.591   6.124  17.745 -0.4285 -0.1089 -1.2162
 2235TIP3    H230901   5.691   6.237  17.764  0.0107 -0.7066  0.2154
 2236TIP3   OH230902   4.221   6.665  16.427  0.2801  0.6214  0.2614
 2236TIP3    H130903   4.277   6.600  16.385 -0.7096  1.7561 -3.1423
 2236TIP3    H230904   4.279   6.739  16.443  0.7369  0.0633  1.2815
 2237TIP3   OH230905   2.065   0.313  16.641  0.5093  0.3818 -0.5571
 2237TIP3    H130906   1.981   0.340  16.676  0.5249 -0.9974  0.6727
 2237TIP3    H230907   2.050   0.224  16.608  1.6777 -0.2850  0.6025
 2238TIP3   OH230908   3.948   3.025  15.302  0.8531  0.1650 -0.1565
 2238TIP3    H130909   4.023   3.057  15.252  0.0047  2.6993  0.0376
 2238TIP3    H230910   3.967   3.050  15.393  1.0417 -1.7782  0.3921
 2239TIP3   OH230911   0.811   4.451  14.866 -0.5740  0.3133  0.0219
 2239TIP3    H130912   0.824   4.373  14.920 -1.5275 -1.0490 -1.6122
 2239TIP3    H230913   0.747   4.424  14.800 -0.7925  2.4431 -0.7182
 2240TIP3   OH230914   4.249   0.512  16.681 -0.0953 -0.1284 -0.0603
 2240TIP3    H130915   4.205   0.596  16.693 -0.2740 -0.3566  1.0100
 2240TIP3    H230916   4.300   0.499  16.761 -0.6625 -1.3693  0.1417
 2241TIP3   OH230917   6.529   6.475  15.425  0.0170 -0.1034 -0.4091
 2241TIP3    H130918   6.597   6.431  15.476 -1.0535 -2.2426 -0.7162
 2241TIP3    H230919   6.577   6.527  15.360  1.3526 -0.8598 -0.0588
 2242TIP3   OH230920   4.668   1.520  15.653 -0.2826 -0.7240 -0.0179
 2242TIP3    H130921   4.710   1.443  15.692  1.7249 -0.7373 -2.0183
 2242TIP3    H230922   4.740   1.580  15.634 -1.5221  0.5728 -0.8649
 2243TIP3   OH230923   1.686   3.169  15.704 -0.1229  0.6701  0.4342
 2243TIP3    H130924   1.641   3.163  15.619  0.1049  1.2255  0.2750
 2243TIP3    H230925   1.623   3.212  15.761  0.5258  2.2829 -0.0264
 2244TIP3   OH230926   3.343   2.468  15.767 -0.7514  0.5514  0.9049
 2244TIP3    H130927   3.355   2.522  15.845  0.4835 -0.4917  1.4604
 2244TIP3    H230928   3.428   2.471  15.723 -0.8452 -0.4479  0.6309
 2245TIP3   OH230929   3.151   2.258  17.381 -0.3101  0.4476 -0.2412
 2245TIP3    H130930   3.109   2.180  17.416 -0.2787  0.5629  0.0585
 2245TIP3    H230931   3.099   2.281  17.304 -0.4742  0.2829 -0.1801
 2246TIP3   OH230932   5.155   0.583  15.935  0.1279 -0.3082 -0.3948
 2246TIP3    H130933   5.073   0.550  15.971 -1.0353  0.9072 -1.7825
 2246TIP3    H230934   5.165   0.670  15.975  0.9724 -0.6285  0.0982
 2247TIP3   OH230935   1.934   5.639  15.251  0.2562 -0.0345  0.0182
 2247TIP3    H130936   1.883   5.587  15.190 -1.8371  0.9463  0.8438
 2247TIP3    H230937   1.895   5.622  15.336  0.3395  1.8646  0.4844
 2248TIP3   OH230938   5.315   1.240  17.547  0.5471 -0.2909 -0.1673
 2248TIP3    H130939   5.268   1.165  17.585 -0.7200  0.4392 -0.2387
 2248TIP3    H230940   5.274   1.253  17.462 -0.0904  1.2135  0.3308
 2249TIP3   OH230941   2.988   4.008  17.280 -0.0061 -0.0872 -0.1317
 2249TIP3    H130942   2.975   3.927  17.330 -0.0460  0.8097  1.3438
 2249TIP3    H230943   3.010   3.978  17.192 -1.0664 -1.7113  0.1082
 2250TIP3   OH230944   2.761   3.423  16.591 -0.0413 -0.5397  0.2969
 2250TIP3    H130945   2.729   3.432  16.501 -0.1917 -2.6399  0.0706
 2250TIP3    H230946   2.854   3.402  16.581  0.2858  0.6625  0.7216
 2251TIP3   OH230947   3.167   5.973  16.621 -0.6599 -0.5448  0.3741
 2251TIP3    H130948   3.139   5.882  16.610  1.0560 -1.2200  1.2103
 2251TIP3    H230949   3.233   5.986  16.553  0.0678 -0.3758  1.0959
 2252TIP3   OH230950   5.340   6.213  15.166 -0.1939  0.0932 -0.2340
 2252TIP3    H130951   5.265   6.155  15.152 -1.2183  1.2578  0.2811
 2252TIP3    H230952   5.382   6.178  15.244 -0.6044 -0.1649 -0.1236
 2253TIP3   OH230953   1.106   5.557  15.633 -0.3510  0.4261  0.6415
 2253TIP3    H130954   1.165   5.626  15.663 -0.8931  0.4510  1.6910
 2253TIP3    H230955   1.070   5.519  15.713  1.0961 -2.1497  0.1909
 2254TIP3   OH230956   4.528   1.525  17.829  0.1660  0.5034  0.7030
 2254TIP3    H130957   4.434   1.520  17.847  0.0380  1.1070  0.2302
 2254TIP3    H230958   4.548   1.619  17.830  0.6874  0.4015  0.4009
 2255TIP3   OH230959   5.302   0.142  16.034  0.1003 -0.2374  0.1503
 2255TIP3    H130960   5.320   0.048  16.034 -0.2617 -0.3101  0.1806
 2255TIP3    H230961   5.264   0.159  16.120  0.1771 -0.0633  0.1491
 2256TIP3   OH230962   0.308   0.331  17.612 -0.0395 -0.4173  0.1877
 2256TIP3    H130963   0.396   0.300  17.592 -0.3425 -0.2479 -1.5783
 2256TIP3    H230964   0.251   0.257  17.591 -0.5097  0.2999 -1.2248
 2257TIP3   OH230965   3.690   4.158  15.500  0.4454 -0.6178 -0.8392
 2257TIP3    H130966   3.646   4.130  15.420  1.4388  2.2339 -2.5367
 2257TIP3    H230967   3.624   4.208  15.548 -0.0372 -2.0070  0.0015
 2258TIP3   OH230968   5.549   2.078  16.262  0.5572  0.0325  0.0545
 2258TIP3    H130969   5.632   2.076  16.215  0.5334  3.4454 -0.4151
 2258TIP3    H230970   5.574   2.092  16.354  0.4937 -2.9978  0.6415
 2259TIP3   OH230971   6.042   3.406  15.614 -0.4129 -0.0414 -0.2421
 2259TIP3    H130972   6.070   3.337  15.674 -0.9246 -1.8050 -1.9123
 2259TIP3    H230973   6.110   3.407  15.546 -0.7114  0.6957 -0.5342
 2260TIP3   OH230974   1.221   3.710  15.858  0.0331 -0.4409 -0.0210
 2260TIP3    H130975   1.202   3.751  15.774 -1.3573  0.4081  0.6778
 2260TIP3    H230976   1.178   3.624  15.853  1.4634 -1.1591 -0.8121
 2261TIP3   OH230977   3.280   0.357  17.681 -0.4299  0.6062  0.8999
 2261TIP3    H130978   3.192   0.384  17.652 -0.2980  1.0928  0.9399
 2261TIP3    H230979   3.320   0.317  17.604 -1.3777 -1.4090  1.3838
 2262TIP3   OH230980   3.316   5.354  15.470 -0.2692 -0.0668 -0.0915
 2262TIP3    H130981   3.348   5.423  15.412  2.1730 -0.3698  0.7656
 2262TIP3    H230982   3.337   5.273  15.425 -2.3064 -0.3192 -0.6776
 2263TIP3   OH230983   1.357   2.244  15.273 -0.4965  0.2381  0.1784
 2263TIP3    H130984   1.380   2.202  15.356  1.7239  0.8958 -0.0328
 2263TIP3    H230985   1.355   2.172  15.210 -2.0454 -0.2449  0.7121
 2264TIP3   OH230986   0.927   3.082  17.443 -0.2382 -0.2016 -0.6517
 2264TIP3    H130987   0.960   3.144  17.507  0.3766 -0.4886 -0.6852
 2264TIP3    H230988   0.871   3.022  17.493  0.0779 -0.3033 -0.4225
 2265TIP3   OH230989   1.659   5.392  14.558  0.3855 -0.4163  0.0411
 2265TIP3    H130990   1.660   5.308  14.513 -0.6108 -0.4619  0.0846
 2265TIP3    H230991   1.744   5.431  14.537 -0.2290 -0.1747 -2.3829
 2266TIP3   OH230992   3.537   2.902  15.539 -0.3329  0.4232  0.7141
 2266TIP3    H130993   3.548   2.983  15.588 -0.0696  0.2928  0.8739
 2266TIP3    H230994   3.510   2.930  15.451  0.6023  0.7282  0.5090
 2267TIP3   OH230995   0.370   2.401  15.580  0.1380  0.1044  0.4917
 2267TIP3    H130996   0.399   2.492  15.593  0.3380  0.4288 -1.7625
 2267TIP3    H230997   0.413   2.374  15.499  0.7316 -2.3280  1.5291
 2268TIP3   OH230998   6.207   5.042  17.663  0.6414 -0.5534  0.2003
 2268TIP3    H130999   6.145   5.002  17.725 -0.5149  1.1870  0.2513
 2268TIP3    H231000   6.162   5.121  17.634  2.0370 -0.2914 -1.3328
 2269TIP3   OH231001   3.713   3.601  16.647 -0.1438  0.0949  0.0698
 2269TIP3    H131002   3.770   3.665  16.605  0.8091 -0.9926 -0.3149
 2269TIP3    H231003   3.697   3.638  16.735 -0.5159  1.3779 -0.5000
 2270TIP3   OH231004   1.509   0.658  15.532 -0.3586 -0.3826  0.1407
 2270TIP3    H131005   1.475   0.729  15.476 -0.4203 -0.8859 -0.4759
 2270TIP3    H231006   1.430   0.615  15.565 -0.3707 -1.5787 -1.3249
 2271TIP3   OH231007   2.970   4.831  14.791  0.4957  0.1687  0.0234
 2271TIP3    H131008   3.040   4.896  14.789  1.5125 -0.8172 -3.4909
 2271TIP3    H231009   3.002   4.759  14.736 -2.6863 -0.9851 -0.5486
 2272TIP3   OH231010   6.360   5.038  17.155  0.6205 -0.2597  0.0597
 2272TIP3    H131011   6.290   4.974  17.140  1.5127 -1.8205  2.1334
 2272TIP3    H231012   6.430   4.987  17.195  2.4916  1.5074 -0.8451
 2273TIP3   OH231013   4.461   5.696  16.080 -0.0733 -0.0097  0.7136
 2273TIP3    H131014   4.520   5.751  16.027 -0.2976  0.4325  0.9239
 2273TIP3    H231015   4.394   5.668  16.018 -0.7246  1.0739  0.9070
 2274TIP3   OH231016   1.216   0.178  17.176  0.0986 -0.6464 -0.0179
 2274TIP3    H131017   1.265   0.124  17.238  0.5539 -0.9749 -0.6535
 2274TIP3    H231018   1.144   0.213  17.228  0.0120 -1.5510  0.5103
 2275TIP3   OH231019   1.918   5.709  16.298 -0.0298 -0.2718  0.1898
 2275TIP3    H131020   1.916   5.747  16.386 -0.4562 -1.1529  0.5814
 2275TIP3    H231021   1.922   5.784  16.239  3.0920  0.3478  0.9829
 2276TIP3   OH231022   1.725   0.821  15.787 -0.6187  0.3438  0.7069
 2276TIP3    H131023   1.789   0.781  15.847  2.0481 -0.1846 -2.2022
 2276TIP3    H231024   1.640   0.789  15.817  0.7610 -1.5684  2.8846
 2277TIP3   OH231025   5.591   0.249  17.684 -0.8449 -0.3602 -0.4341
 2277TIP3    H131026   5.571   0.293  17.601 -1.6016 -0.9221 -0.5627
 2277TIP3    H231027   5.526   0.283  17.745  0.9853  1.6353  0.5198
 2278TIP3   OH231028   2.601   0.642  16.811  0.5021 -0.1958  0.5136
 2278TIP3    H131029   2.595   0.558  16.856  0.4530 -0.5717 -0.1810
 2278TIP3    H231030   2.510   0.672  16.805  0.5875  0.3006  1.4680
 2279TIP3   OH231031   1.863   0.081  17.423 -0.2119 -0.6743  0.1634
 2279TIP3    H131032   1.802   0.107  17.354 -0.0846 -0.8077 -0.0023
 2279TIP3    H231033   1.884  -0.010  17.403  0.4874 -0.4598 -0.1192
 2280TIP3   OH231034   4.835   0.839  17.387 -0.3195 -0.4075 -0.5356
 2280TIP3    H131035   4.840   0.904  17.458  2.0151 -0.5126 -0.5148
 2280TIP3    H231036   4.749   0.854  17.347 -1.8633 -0.5199  2.4514
 2281TIP3   OH231037   6.166   3.104  17.646 -0.3050 -0.1389  0.1093
 2281TIP3    H131038   6.079   3.140  17.627  0.0902  0.0637 -1.4233
 2281TIP3    H231039   6.149   3.015  17.678 -1.1667  0.5818  1.8018
 2282TIP3   OH231040   4.441   1.889  17.104 -0.0088  0.0312 -0.0926
 2282TIP3    H131041   4.449   1.981  17.129  0.0016 -0.1377  0.5380
 2282TIP3    H231042   4.407   1.845  17.182  1.5215 -0.7857  0.1581
 2283TIP3   OH231043   0.475   4.653  17.898 -0.2773  0.4257  0.6728
 2283TIP3    H131044   0.488   4.747  17.895  2.6644  0.0849  0.1779
 2283TIP3    H231045   0.382   4.642  17.919 -0.3794  3.4060  2.2780
 2284TIP3   OH231046   4.245   4.854  17.105  1.1944  0.3177  0.1277
 2284TIP3    H131047   4.296   4.773  17.114  0.4785 -0.2703 -0.9185
 2284TIP3    H231048   4.270   4.889  17.019 -2.0915 -1.4631 -1.7725
 2285TIP3   OH231049   2.825   1.946  17.022 -0.1821  0.2546  0.1338
 2285TIP3    H131050   2.808   1.852  17.034 -2.7323  0.7398  0.9191
 2285TIP3    H231051   2.907   1.961  17.069  0.6026 -1.6604 -0.5209
 2286TIP3   OH231052   3.033   1.291  18.196 -0.4664 -0.3071  0.0627
 2286TIP3    H131053   3.039   1.324  18.286  1.6177  0.5317 -0.3349
 2286TIP3    H231054   2.941   1.301  18.173 -0.5197  2.3145  1.0819
 2287TIP3   OH231055   2.940   5.471  15.231  0.1141  0.6744 -0.2812
 2287TIP3    H131056   3.001   5.544  15.225  1.1918 -0.2151 -0.6105
 2287TIP3    H231057   2.994   5.394  15.213 -0.7606 -0.3135  1.1239
 2288TIP3   OH231058   2.154   5.403  17.263 -0.4696 -0.1355 -0.2172
 2288TIP3    H131059   2.195   5.392  17.177  0.1222 -0.1098  0.0542
 2288TIP3    H231060   2.203   5.474  17.303 -1.1283  0.2480 -0.0818
 2289TIP3   OH231061   5.388   0.129  17.498 -0.2033  0.2723 -0.5124
 2289TIP3    H131062   5.473   0.161  17.468  0.4286  0.8237  1.7042
 2289TIP3    H231063   5.342   0.206  17.530 -0.9632 -0.2270 -0.3521
 2290TIP3   OH231064   0.796   2.573  15.990  0.3279  0.2127 -0.1328
 2290TIP3    H131065   0.791   2.582  15.895 -0.3570  1.6478  0.0255
 2290TIP3    H231066   0.771   2.658  16.024 -1.2899 -0.7943  1.3906
 2291TIP3   OH231067   3.446   2.165  17.355  0.3947  1.0535 -0.3979
 2291TIP3    H131068   3.424   2.101  17.287  1.2616  1.3547 -0.9772
 2291TIP3    H231069   3.367   2.172  17.408 -0.2142  0.6249 -1.2313
 2292TIP3   OH231070   2.976   3.678  17.905  0.5149 -0.0180  0.3195
 2292TIP3    H131071   3.051   3.622  17.889  1.5469  1.1609  0.8665
 2292TIP3    H231072   2.912   3.652  17.838  0.3522 -2.7988  1.4258
 2293TIP3   OH231073   6.298   2.667  16.637  0.3196 -0.1559 -0.5492
 2293TIP3    H131074   6.348   2.682  16.557 -1.3091  0.0373 -1.5604
 2293TIP3    H231075   6.222   2.725  16.629  1.1025  1.4223  2.0900
 2294TIP3   OH231076   4.689   0.229  17.789 -0.4979 -0.1833  0.4725
 2294TIP3    H131077   4.659   0.312  17.827 -0.7217  0.5925 -1.3375
 2294TIP3    H231078   4.780   0.222  17.818  0.5895  2.3586 -1.9159
 2295TIP3   OH231079   1.737   1.185  16.826 -0.3080 -0.0907 -0.0278
 2295TIP3    H131080   1.723   1.216  16.916  1.5652  1.3225 -0.1455
 2295TIP3    H231081   1.717   1.261  16.772  1.9441  0.2364 -0.5158
 2296TIP3   OH231082   1.745   5.242  17.374  0.1793 -0.1714  0.4587
 2296TIP3    H131083   1.808   5.206  17.437 -0.3882  0.3636  1.3660
 2296TIP3    H231084   1.666   5.257  17.427 -1.1073 -1.8433 -0.8600
 2297TIP3   OH231085   5.619   3.840  16.885  0.2858 -0.6294  0.1613
 2297TIP3    H131086   5.554   3.842  16.955 -0.5140 -0.1596 -0.5693
 2297TIP3    H231087   5.702   3.828  16.930 -0.1177  0.4817  1.2691
 2298TIP3   OH231088   2.125   6.107  14.540 -0.4644  0.1591  0.5848
 2298TIP3    H131089   2.192   6.039  14.547 -0.9772 -0.3383  0.6184
 2298TIP3    H231090   2.129   6.135  14.448 -1.1181 -0.7975  0.2564
 2299TIP3   OH231091   1.934   5.140  14.728 -0.1061  0.3332 -0.0354
 2299TIP3    H131092   1.999   5.146  14.797  0.0583 -2.3402  0.1767
 2299TIP3    H231093   1.975   5.087  14.660 -1.5365 -0.2286 -0.5182
 2300TIP3   OH231094   6.372   0.267  15.218  0.0773  0.6513  0.5860
 2300TIP3    H131095   6.395   0.352  15.253  0.5899  1.1288 -0.8487
 2300TIP3    H231096   6.322   0.286  15.138 -0.4280 -0.3889  0.6282
 2301TIP3   OH231097   4.262   1.058  17.793 -0.1256  0.2243 -0.0402
 2301TIP3    H131098   4.333   1.012  17.749  1.4278  1.1133  1.3966
 2301TIP3    H231099   4.213   0.989  17.838 -0.5315 -0.4545 -1.4751
 2302TIP3   OH231100   5.422   3.775  17.055  0.2750  0.4013 -0.2184
 2302TIP3    H131101   5.408   3.683  17.035 -1.3761  0.3543  0.9387
 2302TIP3    H231102   5.473   3.774  17.136 -0.5779  0.4767  0.3281
 2303TIP3   OH231103   2.671   1.797  15.456  0.2982  0.3444 -0.2890
 2303TIP3    H131104   2.599   1.832  15.509 -0.4619 -1.1907 -0.2464
 2303TIP3    H231105   2.698   1.718  15.502 -0.1181 -0.8099 -1.9394
 2304TIP3   OH231106   1.308   5.610  17.578 -0.5787  0.0153 -0.1095
 2304TIP3    H131107   1.229   5.657  17.604 -2.6274 -1.3831 -3.1922
 2304TIP3    H231108   1.298   5.523  17.618  1.1000  0.7603  2.1118
 2305TIP3   OH231109   5.026   2.694  15.547 -0.2550 -0.3828  0.1087
 2305TIP3    H131110   4.994   2.611  15.584  1.3355 -1.8792 -1.6873
 2305TIP3    H231111   4.983   2.701  15.462 -0.1544  0.5195  0.1204
 2306TIP3   OH231112   0.561   0.283  17.524 -0.9912 -0.4961 -0.3319
 2306TIP3    H131113   0.628   0.278  17.592 -0.3765 -0.6576 -0.9282
 2306TIP3    H231114   0.539   0.375  17.517  0.8929 -0.0777 -1.7172
 2307TIP3   OH231115   1.182   3.430  14.851  0.3243 -0.3112  0.5230
 2307TIP3    H131116   1.209   3.458  14.939 -0.8015 -2.1611  1.5355
 2307TIP3    H231117   1.096   3.390  14.865 -1.2944  1.9950 -1.9368
 2308TIP3   OH231118   6.101   4.832  16.411  0.0459 -0.6728  0.0981
 2308TIP3    H131119   6.047   4.766  16.454  0.1912 -0.3717  0.7632
 2308TIP3    H231120   6.171   4.782  16.369 -0.5502 -1.0319 -0.4663
 2309TIP3   OH231121   1.421   1.957  17.978 -0.4022 -0.6942  0.3920
 2309TIP3    H131122   1.460   1.985  17.895 -0.7365  0.8244  0.7054
 2309TIP3    H231123   1.458   1.870  17.994  0.1605 -0.7416 -1.0209
 2310TIP3   OH231124   3.372   5.771  15.398 -0.0477 -0.2011 -0.0504
 2310TIP3    H131125   3.312   5.708  15.360 -2.9663  1.8199  0.8572
 2310TIP3    H231126   3.403   5.824  15.324 -1.0361  0.0246 -0.3077
 2311TIP3   OH231127   4.108   2.634  17.288  0.1794  0.2154 -0.3317
 2311TIP3    H131128   4.070   2.567  17.346  1.1711 -0.9227 -0.9677
 2311TIP3    H231129   4.083   2.717  17.329  0.6005 -0.5457  1.5942
 2312TIP3   OH231130   3.842   4.931  16.372  0.0513 -0.0622 -0.2603
 2312TIP3    H131131   3.817   4.950  16.462  0.2150 -0.2347 -0.1769
 2312TIP3    H231132   3.775   4.973  16.319  0.9126  1.5469 -0.1201
 2313TIP3   OH231133   1.930   6.166  15.398 -0.0688 -0.4548 -0.2648
 2313TIP3    H131134   1.981   6.237  15.359  0.8680 -1.0264 -0.1252
 2313TIP3    H231135   1.923   6.101  15.328  0.4218 -0.8824  0.0722
 2314TIP3   OH231136   3.343   0.108  14.789 -0.0821 -0.1244 -0.9119
 2314TIP3    H131137   3.283   0.034  14.802  0.1767 -0.3710 -1.0957
 2314TIP3    H231138   3.286   0.182  14.769 -0.4053 -0.0381  0.2586
 2315TIP3   OH231139   3.398   4.653  16.260 -0.1969  0.3825 -0.3171
 2315TIP3    H131140   3.319   4.703  16.278 -0.3410  0.4742 -1.1627
 2315TIP3    H231141   3.374   4.562  16.280 -0.8289  0.2752 -1.4804
 2316TIP3   OH231142   2.446   2.061  14.667 -0.2266  0.2752  0.3442
 2316TIP3    H131143   2.366   2.011  14.652 -0.6542  1.2877 -0.9489
 2316TIP3    H231144   2.500   2.042  14.590 -0.4027  1.7734 -0.1712
 2317TIP3   OH231145   3.269   0.925  16.180 -0.1702 -0.4665  0.2140
 2317TIP3    H131146   3.240   0.837  16.160 -0.8568 -0.2125  0.0628
 2317TIP3    H231147   3.351   0.936  16.131 -0.2864 -0.8763 -0.0739
 2318TIP3   OH231148   5.357   0.273  15.218 -0.5326  0.2634 -0.2435
 2318TIP3    H131149   5.436   0.300  15.172 -0.9817 -1.4367 -2.1772
 2318TIP3    H231150   5.293   0.257  15.148 -2.1423  0.1578  1.1681
 2319TIP3   OH231151   0.981   0.735  14.843 -0.0690 -0.9475 -0.3294
 2319TIP3    H131152   0.885   0.725  14.837 -0.0767 -1.1158  0.0885
 2319TIP3    H231153   1.005   0.778  14.761 -0.3943 -1.7335 -0.8496
 2320TIP3   OH231154   0.994   6.640  15.373 -0.0690  0.0079  0.0742
 2320TIP3    H131155   1.072   6.660  15.321 -0.3400 -1.8470 -1.1515
 2320TIP3    H231156   1.027   6.583  15.443  0.0397  1.2624  1.0921
 2321TIP3   OH231157   5.506   0.399  13.667  0.2579 -0.4567  0.0863
 2321TIP3    H131158   5.564   0.360  13.733 -1.5875 -2.6503  0.5441
 2321TIP3    H231159   5.525   0.349  13.587  0.8300  0.6188 -0.4729
 2322TIP3   OH231160   0.532   4.140  16.512  0.4121 -0.1296  0.4636
 2322TIP3    H131161   0.490   4.200  16.450  0.2384 -0.8770 -0.1586
 2322TIP3    H231162   0.625   4.164  16.508  0.4569 -0.3884 -0.3621
 2323TIP3   OH231163   4.931   0.390  15.436  0.3538  0.1285  0.2229
 2323TIP3    H131164   4.994   0.319  15.421 -0.8457 -1.1448  0.9968
 2323TIP3    H231165   4.975   0.447  15.500  0.5064 -1.0601  1.2076
 2324TIP3   OH231166   2.713   5.687  18.158 -0.0210  0.6304 -0.4162
 2324TIP3    H131167   2.666   5.699  18.240  0.0817 -2.5777  0.2658
 2324TIP3    H231168   2.646   5.655  18.097  0.7099 -1.7734 -0.0762
 2325TIP3   OH231169   4.860   1.674  15.551  0.1676  0.6669 -0.2149
 2325TIP3    H131170   4.823   1.713  15.472  1.1845  0.5606 -0.7599
 2325TIP3    H231171   4.948   1.711  15.557  0.6876 -0.5541 -0.0320
 2326TIP3   OH231172   0.687   2.214  15.477  0.0159 -0.4356  0.0195
 2326TIP3    H131173   0.616   2.235  15.416  0.4123 -1.4707 -0.8402
 2326TIP3    H231174   0.646   2.163  15.546 -0.0978 -1.0962 -0.5140
 2327TIP3   OH231175   5.085   3.437  18.029  0.0537  0.4247 -0.0135
 2327TIP3    H131176   5.153   3.474  17.973  0.3855  0.5622  0.4775
 2327TIP3    H231177   5.078   3.346  18.001  0.8466  0.2565  0.3285
 2328TIP3   OH231178   1.770   5.061  17.153  0.6590  0.0174 -0.4455
 2328TIP3    H131179   1.753   5.126  17.222  1.9813  1.1673 -1.1442
 2328TIP3    H231180   1.696   5.002  17.158 -0.7092  1.6803  0.1296
 2329TIP3   OH231181   6.354   1.918  15.445  0.0307  0.1516 -0.3462
 2329TIP3    H131182   6.300   1.854  15.397 -0.3437  1.6255 -1.9771
 2329TIP3    H231183   6.418   1.949  15.381  0.1444  1.4744  0.3750
 2330TIP3   OH231184   2.234   2.788  16.320 -0.1544  0.4091 -0.3042
 2330TIP3    H131185   2.166   2.839  16.366 -0.3789  1.0632 -1.3329
 2330TIP3    H231186   2.248   2.836  16.238  2.9912  1.4672  0.7008
 2331TIP3   OH231187   6.250   5.226  16.681 -0.0073  0.5598 -0.3692
 2331TIP3    H131188   6.181   5.159  16.682  0.9724 -0.4920  1.1614
 2331TIP3    H231189   6.307   5.200  16.609  0.0717  0.0630 -0.1285
 2332TIP3   OH231190   5.257   2.432  14.919 -0.5826  0.1868  0.3004
 2332TIP3    H131191   5.211   2.477  14.848 -0.6180 -1.3384 -0.7125
 2332TIP3    H231192   5.332   2.489  14.939 -2.2021  2.1138  1.1691
 2333TIP3   OH231193   2.164   3.352  15.713  0.1640 -0.1600 -0.4112
 2333TIP3    H131194   2.149   3.423  15.777 -0.6033  0.4848 -1.2739
 2333TIP3    H231195   2.175   3.274  15.767 -2.2320  0.0388  0.5207
 2334TIP3   OH231196   0.090   6.177  15.500 -0.1778 -0.4854 -0.0769
 2334TIP3    H131197   0.054   6.096  15.538 -2.5338  0.4135 -0.1963
 2334TIP3    H231198   0.027   6.202  15.433  0.5009  1.4306 -0.0690
 2335TIP3   OH231199   5.467   4.818  17.397  0.2313 -0.1017  0.0305
 2335TIP3    H131200   5.450   4.750  17.332 -0.0954  0.6961 -0.7520
 2335TIP3    H231201   5.406   4.800  17.468  0.0157 -0.5142 -0.2596
 2336TIP3   OH231202   1.876   3.883  17.858 -0.2516 -0.0601  0.2119
 2336TIP3    H131203   1.923   3.837  17.789  0.1379  0.9286 -0.2079
 2336TIP3    H231204   1.822   3.816  17.899  0.9526 -1.0755  0.2122
 2337TIP3   OH231205   2.018   1.427  17.973 -0.3703 -0.5244  0.2396
 2337TIP3    H131206   2.057   1.341  17.955  0.4947 -0.3299  1.1617
 2337TIP3    H231207   2.034   1.477  17.893 -2.1426 -1.6316 -0.8898
 2338TIP3   OH231208   4.676   1.925  14.396  0.0734  0.1222 -0.2924
 2338TIP3    H131209   4.627   1.845  14.415 -0.2909  0.1307 -1.1576
 2338TIP3    H231210   4.767   1.897  14.395 -0.0405 -0.2566 -0.4333
 2339TIP3   OH231211   5.954   5.885  16.646 -0.3724 -0.1692  0.1613
 2339TIP3    H131212   5.872   5.884  16.595 -0.1686 -2.4167 -0.1868
 2339TIP3    H231213   6.023   5.889  16.580 -0.1465  0.6117  0.4279
 2340TIP3   OH231214   3.683   2.465  15.646  0.4514  0.1517 -0.2323
 2340TIP3    H131215   3.689   2.406  15.721 -1.3484 -1.4137 -1.2414
 2340TIP3    H231216   3.656   2.549  15.684 -2.4706 -1.1077  0.7650
 2341TIP3   OH231217   4.328   0.848  18.190 -0.1252  0.1850  0.2639
 2341TIP3    H131218   4.347   0.759  18.161 -0.3842 -0.2113  1.2730
 2341TIP3    H231219   4.285   0.838  18.275  0.7947  1.2916  0.9137
 2342TIP3   OH231220   4.700   5.650  16.483  0.1470 -0.3805 -0.3117
 2342TIP3    H131221   4.755   5.715  16.528 -0.2669  0.2882 -0.7538
 2342TIP3    H231222   4.611   5.682  16.496  0.1061  1.4074 -3.8977
 2343TIP3   OH231223   3.747   3.560  16.320  0.6745  0.3945 -0.4205
 2343TIP3    H131224   3.827   3.543  16.370  0.6559  1.1906 -0.1036
 2343TIP3    H231225   3.727   3.652  16.338 -1.0511 -0.1244  0.6076
 2344TIP3   OH231226   3.336   5.541  15.669 -0.0646 -0.2426 -0.1078
 2344TIP3    H131227   3.316   5.471  15.606 -0.4043  1.2652 -1.7636
 2344TIP3    H231228   3.407   5.505  15.723  0.0629 -1.7076 -1.1880
 2345TIP3   OH231229   2.657   6.166  14.840 -0.2551  0.3747 -0.1129
 2345TIP3    H131230   2.742   6.191  14.876 -0.3747  1.1095 -0.3199
 2345TIP3    H231231   2.676   6.141  14.749  0.0438 -1.4614  0.4238
 2346TIP3   OH231232   0.521   1.324  14.896 -0.0116  0.0628 -0.5066
 2346TIP3    H131233   0.539   1.294  14.807  0.2896  0.9173 -0.7509
 2346TIP3    H231234   0.604   1.360  14.926 -0.2383  0.2198 -0.0594
 2347TIP3   OH231235   6.271   6.635  17.565 -0.1204  0.2758  0.1695
 2347TIP3    H131236   6.177   6.653  17.564  0.0096  0.9695 -0.4365
 2347TIP3    H231237   6.278   6.544  17.538 -0.6945 -0.2531  1.6644
 2348TIP3   OH231238   6.374   0.204  16.658  0.2584  0.5761 -0.8421
 2348TIP3    H131239   6.372   0.300  16.655  0.4857  0.5635 -1.5987
 2348TIP3    H231240   6.300   0.177  16.603  0.8661  0.3179 -1.5464
 2349TIP3   OH231241   6.320   0.572  17.179  0.2646  0.7627 -0.4810
 2349TIP3    H131242   6.270   0.494  17.201  0.5801  0.8187  0.4904
 2349TIP3    H231243   6.400   0.539  17.140  0.0601  0.6277 -0.7869
 2350TIP3   OH231244   5.609   1.952  16.541 -0.3803 -0.0802 -0.0589
 2350TIP3    H131245   5.563   1.890  16.597  0.3246  0.9400  1.7343
 2350TIP3    H231246   5.624   2.029  16.596 -0.1521  1.2225 -1.8335
 2351TIP3   OH231247   3.864   6.515  14.603  0.0944 -0.0315  0.0373
 2351TIP3    H131248   3.932   6.558  14.550 -0.5868  0.8242 -0.1683
 2351TIP3    H231249   3.792   6.578  14.604 -0.3071 -0.4995  1.1099
 2352TIP3   OH231250   5.660   5.270  15.778  0.2446  0.6984 -0.9415
 2352TIP3    H131251   5.753   5.266  15.754 -0.0495 -2.2591 -1.9973
 2352TIP3    H231252   5.618   5.314  15.704  0.7784  2.2936 -0.3384
 2353TIP3   OH231253   0.520   4.933  17.908  0.3662  0.2514 -0.3457
 2353TIP3    H131254   0.428   4.948  17.931 -0.0381 -0.9984 -1.0664
 2353TIP3    H231255   0.563   5.017  17.926 -0.8573  0.7839  0.2376
 2354TIP3   OH231256   3.190   3.108  15.442  0.1268 -0.6001  0.1455
 2354TIP3    H131257   3.209   3.016  15.425 -0.7489 -0.4578 -1.8569
 2354TIP3    H231258   3.106   3.124  15.399  0.6199  1.3021 -0.2173
 2355TIP3   OH231259   1.288   4.533  14.538 -0.2842  0.2293 -0.6521
 2355TIP3    H131260   1.213   4.529  14.479 -0.6054  0.1167 -0.2431
 2355TIP3    H231261   1.308   4.441  14.557 -1.2468  0.2690  0.7325
 2356TIP3   OH231262   5.246   3.136  15.754  0.5158  0.0325 -0.0614
 2356TIP3    H131263   5.291   3.176  15.680  0.8919 -1.4804 -0.6920
 2356TIP3    H231264   5.248   3.042  15.735 -0.3216 -0.2969  1.3517
 2357TIP3   OH231265   1.117   2.486  16.874 -0.0345  0.3801  0.5238
 2357TIP3    H131266   1.188   2.550  16.873  2.3188 -2.0371 -1.3076
 2357TIP3    H231267   1.107   2.462  16.966  0.6194  1.6837  0.9568
 2358TIP3   OH231268   5.607   2.231  17.360 -0.2727 -0.2951 -0.5972
 2358TIP3    H131269   5.569   2.317  17.378  0.5265 -0.4434  2.3308
 2358TIP3    H231270   5.653   2.242  17.277 -1.1103  1.7735 -0.8400
 2359TIP3   OH231271   4.686   0.770  15.123 -0.2834 -0.3557  0.4828
 2359TIP3    H131272   4.725   0.727  15.200  1.3837 -0.5775 -0.4264
 2359TIP3    H231273   4.758   0.773  15.059 -1.2276  1.0813 -0.5634
 2360TIP3   OH231274   3.707   1.632  17.075  0.3137  0.2950  0.6215
 2360TIP3    H131275   3.750   1.698  17.021  0.5001 -0.3380 -0.0174
 2360TIP3    H231276   3.618   1.626  17.039  0.6804 -0.7202 -0.1927
 2361TIP3   OH231277   2.930   4.027  16.684 -0.5044 -0.2700 -0.2224
 2361TIP3    H131278   2.987   4.075  16.624 -1.9027  1.6962 -0.0735
 2361TIP3    H231279   2.968   3.939  16.688  2.7785  1.0242  0.2420
 2362TIP3   OH231280   3.549   3.392  15.104  0.1728  0.0393  0.2287
 2362TIP3    H131281   3.627   3.337  15.095  0.6094  0.4219  1.4078
 2362TIP3    H231282   3.489   3.339  15.157 -0.6246 -0.4827 -1.1425
 2363TIP3   OH231283   0.635   4.893  16.282 -0.0420  0.2114  0.1960
 2363TIP3    H131284   0.585   4.910  16.202  0.3463  0.9391  0.0960
 2363TIP3    H231285   0.727   4.904  16.256  0.0978  0.2146  0.6799
 2364TIP3   OH231286   0.278   1.700  16.106 -0.0600 -0.0721  0.1921
 2364TIP3    H131287   0.269   1.791  16.076 -1.6643 -0.2471  0.0159
 2364TIP3    H231288   0.208   1.690  16.171  1.7906 -0.4266  2.2405
 2365TIP3   OH231289   6.633   4.919  15.033 -0.4045 -0.0096  0.2565
 2365TIP3    H131290   6.701   4.974  15.073 -0.8263  1.3100 -0.7652
 2365TIP3    H231291   6.595   4.871  15.107  1.2380 -0.3625  0.9208
 2366TIP3   OH231292   1.880   5.888  18.014 -0.0653  0.3425 -0.0308
 2366TIP3    H131293   1.897   5.911  17.923 -2.3802  0.8058 -0.4075
 2366TIP3    H231294   1.786   5.869  18.017 -0.0990  0.5449  2.2966
 2367TIP3   OH231295   5.800   3.302  17.280 -0.2904  0.5703 -0.2770
 2367TIP3    H131296   5.708   3.277  17.270 -0.0529 -0.5194  0.1350
 2367TIP3    H231297   5.834   3.241  17.345  1.0256  0.1897 -1.2983
 2368TIP3   OH231298   2.997   3.750  14.924 -0.5352  0.0107  0.1948
 2368TIP3    H131299   2.918   3.741  14.871  0.4508  0.7929 -1.4586
 2368TIP3    H231300   3.014   3.661  14.955 -0.4105 -0.7502 -1.9026
 2369TIP3   OH231301   3.558   4.695  17.283  0.2217  0.6026  0.1612
 2369TIP3    H131302   3.631   4.756  17.293  0.2470  0.5515  0.2856
 2369TIP3    H231303   3.508   4.730  17.209 -0.2216  1.2369  0.7481
 2370TIP3   OH231304   0.827   3.489  15.102  0.2675  0.2627  0.0485
 2370TIP3    H131305   0.733   3.506  15.098 -0.0552 -1.5744 -2.3246
 2370TIP3    H231306   0.836   3.414  15.160  0.1840  0.0333 -0.2329
 2371TIP3   OH231307   4.468   1.734  15.669 -0.0696  0.1416 -0.2238
 2371TIP3    H131308   4.548   1.682  15.660 -0.0811  0.2090 -0.7521
 2371TIP3    H231309   4.425   1.698  15.747  1.3659  1.3449  1.1889
 2372TIP3   OH231310   4.201   1.072  15.514 -0.5764  0.0619 -0.0680
 2372TIP3    H131311   4.289   1.047  15.542 -0.7928 -1.2662 -0.4986
 2372TIP3    H231312   4.214   1.145  15.455  0.0581  1.3518  1.5877
 2373TIP3   OH231313   0.030   5.520  14.791  0.1366  0.1964 -0.5766
 2373TIP3    H131314   0.095   5.458  14.757  0.7764 -0.0928  1.0641
 2373TIP3    H231315  -0.054   5.478  14.775  0.5766 -1.3906  0.9656
 2374TIP3   OH231316   5.864   0.155  17.700 -0.4632 -0.7302  0.6331
 2374TIP3    H131317   5.772   0.178  17.687 -0.3623 -1.6659 -2.4346
 2374TIP3    H231318   5.864   0.098  17.777 -2.5988 -1.4551  0.1652
 2375TIP3   OH231319   5.458   3.196  15.905  0.1465 -0.1531  0.2920
 2375TIP3    H131320   5.377   3.207  15.856  0.8126  0.6294 -0.6604
 2375TIP3    H231321   5.435   3.134  15.975 -0.5861 -2.1524 -1.5896
 2376TIP3   OH231322   0.401   2.224  17.681  0.0943  0.4586  0.0938
 2376TIP3    H131323   0.408   2.128  17.686  0.4547  0.3595 -1.6595
 2376TIP3    H231324   0.307   2.240  17.675 -0.0477  0.3191  1.5476
 2377TIP3   OH231325   0.274   0.787  16.865 -0.2020  0.2415  0.2473
 2377TIP3    H131326   0.284   0.853  16.934 -0.4558 -1.4005  1.9336
 2377TIP3    H231327   0.360   0.780  16.825 -0.4583  2.4430 -0.8169
 2378TIP3   OH231328   2.049   6.403  14.956 -0.3117  0.7536  0.4656
 2378TIP3    H131329   2.067   6.400  15.050  0.2258  1.0875  0.3822
 2378TIP3    H231330   2.122   6.453  14.920 -1.0664  1.5383 -0.0044
 2379TIP3   OH231331   0.232   6.291  18.274 -0.4088  0.0100 -0.6025
 2379TIP3    H131332   0.244   6.315  18.366  5.3931 -0.9804 -0.6916
 2379TIP3    H231333   0.271   6.364  18.225  1.7882 -1.7947 -1.7577
 2380TIP3   OH231334   4.004   5.820  16.000  0.3123  0.1776 -0.5342
 2380TIP3    H131335   4.022   5.728  15.983 -2.2166 -0.2113 -1.4879
 2380TIP3    H231336   3.992   5.825  16.095  1.1513 -0.2932 -0.3876
 2381TIP3   OH231337   2.113   1.850  15.818  0.4032  0.0523  0.4638
 2381TIP3    H131338   2.077   1.864  15.906 -1.0749  2.4705 -0.4297
 2381TIP3    H231339   2.196   1.898  15.818  0.0898  0.6048  0.3701
 2382TIP3   OH231340   3.133   0.142  16.371 -0.2817 -0.1405  0.0106
 2382TIP3    H131341   3.171   0.225  16.399 -0.6028  0.0036  0.0245
 2382TIP3    H231342   3.088   0.108  16.448 -1.3985  0.3912 -0.3912
 2383TIP3   OH231343   3.913   1.061  16.269  0.4312  0.3639 -0.5659
 2383TIP3    H131344   3.987   1.026  16.220  0.4960  0.4969 -0.5630
 2383TIP3    H231345   3.886   0.988  16.325 -0.4615 -0.2072 -1.7171
 2384TIP3   OH231346   5.086   3.937  15.942  0.0674  0.2013  0.3257
 2384TIP3    H131347   5.181   3.947  15.930 -0.0008  0.7882  0.2379
 2384TIP3    H231348   5.065   3.853  15.900  0.6734 -0.3306  1.0586
 2385TIP3   OH231349   2.069   4.971  16.732 -0.5842  0.0588 -0.4854
 2385TIP3    H131350   2.023   4.895  16.769 -1.0069  0.8332  0.6308
 2385TIP3    H231351   2.053   4.964  16.637 -1.7440 -0.5186 -0.2739
 2386TIP3   OH231352   5.794   1.588  15.618  0.2875  0.3329 -0.3758
 2386TIP3    H131353   5.727   1.617  15.556  1.3607  0.9516 -1.2774
 2386TIP3    H231354   5.777   1.641  15.696  0.1344  0.9792 -0.8316
 2387TIP3   OH231355   0.314   4.576  16.201  0.2306 -0.0847 -0.2596
 2387TIP3    H131356   0.300   4.661  16.159 -0.3949 -0.1454 -0.1854
 2387TIP3    H231357   0.327   4.597  16.294  0.0509 -0.0726 -0.2369
 2388TIP3   OH231358   1.072   5.953  14.494 -0.4468  0.4627  0.4437
 2388TIP3    H131359   1.122   5.951  14.412  0.9937 -0.7600  1.2969
 2388TIP3    H231360   1.004   5.886  14.482  0.5771 -0.6589  0.6960
 2389TIP3   OH231361   3.529   5.382  16.683 -0.1286 -0.3807 -0.4388
 2389TIP3    H131362   3.495   5.308  16.633  2.0642 -2.0095  0.3245
 2389TIP3    H231363   3.479   5.457  16.652 -2.7603 -2.2132 -0.9396
 2390TIP3   OH231364   6.713   1.608  16.124  0.8271  0.5685 -0.4153
 2390TIP3    H131365   6.782   1.618  16.058  0.8309 -2.8843 -1.1597
 2390TIP3    H231366   6.634   1.638  16.081  1.3076  1.1805 -0.8859
 2391TIP3   OH231367   5.338   5.407  16.808 -0.4041  0.3197  0.1303
 2391TIP3    H131368   5.340   5.436  16.899 -1.2001 -1.5810  0.8153
 2391TIP3    H231369   5.430   5.405  16.781 -0.1461  0.6759  0.9639
 2392TIP3   OH231370   0.953   1.367  16.656  0.6103  0.8696 -0.3337
 2392TIP3    H131371   0.977   1.401  16.742  0.5410  1.5982 -0.5907
 2392TIP3    H231372   0.971   1.273  16.661  0.4276  0.8711  0.5307
 2393TIP3   OH231373   5.342   1.076  15.973 -0.2548  0.1914  0.6001
 2393TIP3    H131374   5.287   1.153  15.960  1.2491  1.1388 -0.5162
 2393TIP3    H231375   5.402   1.101  16.043 -0.5447 -0.4526  1.0933
 2394TIP3   OH231376   1.561   5.233  17.565 -0.0944  0.0947  0.1016
 2394TIP3    H131377   1.616   5.154  17.567 -1.1387 -0.6406  0.8425
 2394TIP3    H231378   1.473   5.200  17.547 -0.5329  1.1190  0.3149
 2395TIP3   OH231379   0.202   2.965  18.122 -0.0540  1.1022 -0.6703
 2395TIP3    H131380   0.177   3.019  18.196 -0.2187  0.2306 -0.0779
 2395TIP3    H231381   0.277   3.010  18.083  1.4552  0.4649  1.3446
 2396TIP3   OH231382   0.814   3.027  17.202 -0.1264  0.0577  0.0692
 2396TIP3    H131383   0.866   3.041  17.281 -0.6218  0.0427  0.3991
 2396TIP3    H231384   0.877   2.991  17.139  0.3119  0.2388  0.3926
 2397TIP3   OH231385   1.921   3.514  15.225 -0.4175 -0.9241  0.2541
 2397TIP3    H131386   1.952   3.427  15.198  3.2782 -0.3561  2.0964
 2397TIP3    H231387   1.872   3.498  15.306 -0.3502 -1.3173  0.2218
 2398TIP3   OH231388   0.831   0.425  17.597 -0.6676 -0.0912  0.6083
 2398TIP3    H131389   0.813   0.350  17.655 -0.9416 -0.5294 -0.0342
 2398TIP3    H231390   0.923   0.416  17.573  0.2962  1.6639  3.1975
 2399TIP3   OH231391   0.702   4.189  17.874  0.1870  0.0042  0.0863
 2399TIP3    H131392   0.654   4.117  17.833  0.6401  0.0185 -0.4942
 2399TIP3    H231393   0.641   4.262  17.875 -0.2766 -0.3786  0.6759
 2400TIP3   OH231394   3.588   3.431  15.726  0.2357 -0.2299 -0.4856
 2400TIP3    H131395   3.558   3.485  15.800  0.0286 -0.4750 -0.3907
 2400TIP3    H231396   3.510   3.387  15.695  0.3680 -0.3149 -0.6990
 2401TIP3   OH231397   0.960   0.401  15.835  0.2918  0.3133  0.0609
 2401TIP3    H131398   0.970   0.434  15.746  0.3309  0.5661  0.1601
 2401TIP3    H231399   1.034   0.342  15.848 -0.3895 -0.7060 -0.5177
 2402TIP3   OH231400   5.829   3.668  17.926  0.2560  0.3123 -0.3013
 2402TIP3    H131401   5.771   3.602  17.964  0.1995 -0.0056 -0.9336
 2402TIP3    H231402   5.907   3.666  17.982 -0.1279  0.3883  0.2523
 2403TIP3   OH231403   2.769   2.567  17.880 -0.1662  0.0605 -0.2931
 2403TIP3    H131404   2.689   2.563  17.827 -0.3875  1.3293 -0.0987
 2403TIP3    H231405   2.761   2.649  17.928  1.4554  0.4181 -0.5709
 2404TIP3   OH231406   1.286   3.825  15.586 -0.6227  0.3304  0.0697
 2404TIP3    H131407   1.248   3.817  15.498  0.6018  0.2988 -0.4791
 2404TIP3    H231408   1.371   3.781  15.579 -0.2757  0.8132  1.1269
 2405TIP3   OH231409   2.320   4.759  16.116  0.2127  0.1805 -0.1690
 2405TIP3    H131410   2.314   4.832  16.178  0.2690 -0.7469  0.9496
 2405TIP3    H231411   2.229   4.734  16.099  0.2151  0.0977 -0.0579
 2406TIP3   OH231412   0.269   6.084  17.860  0.1777  0.1251 -0.3510
 2406TIP3    H131413   0.306   6.164  17.824  0.6617  0.6250  1.1845
 2406TIP3    H231414   0.345   6.036  17.894 -0.4407  0.7862  2.1173
 2407TIP3   OH231415   3.183   5.063  16.381  0.0006  0.7124 -0.0897
 2407TIP3    H131416   3.216   4.986  16.334  0.6111  1.2603 -0.5860
 2407TIP3    H231417   3.106   5.032  16.428 -0.0619 -0.0783 -0.7017
 2408TIP3   OH231418   6.185   2.036  17.833 -0.0967  0.1393 -0.0995
 2408TIP3    H131419   6.226   2.116  17.865  0.0948  0.0921 -0.2270
 2408TIP3    H231420   6.097   2.037  17.872  0.4591 -0.4230  1.2248
 2409TIP3   OH231421   1.148   0.528  14.612 -0.0315  0.4781 -0.1031
 2409TIP3    H131422   1.057   0.505  14.594 -0.4182  1.8155  0.0539
 2409TIP3    H231423   1.171   0.475  14.689 -0.0734 -1.2236 -1.2001
 2410TIP3   OH231424   1.963   4.655  17.929  0.3564  0.1790 -0.3475
 2410TIP3    H131425   1.923   4.734  17.894  0.4838 -0.3734 -1.7776
 2410TIP3    H231426   1.892   4.591  17.930  0.8895 -0.4603 -1.7720
 2411TIP3   OH231427   6.428   4.765  16.675  0.7865 -0.5871  0.6516
 2411TIP3    H131428   6.426   4.694  16.739  0.2794 -2.8276 -1.6852
 2411TIP3    H231429   6.353   4.748  16.618  0.0535  2.4586  0.5846
 2412TIP3   OH231430   4.169   4.791  16.368  0.4354 -0.4940  0.2575
 2412TIP3    H131431   4.099   4.750  16.319  0.5316 -1.5671  0.9816
 2412TIP3    H231432   4.127   4.865  16.413  0.0529 -0.3640 -0.3148
 2413TIP3   OH231433   0.465   2.417  16.166 -0.3393 -0.0574 -0.0767
 2413TIP3    H131434   0.472   2.500  16.213 -1.2442  0.0353 -0.0965
 2413TIP3    H231435   0.478   2.440  16.074 -3.6212  0.5943 -0.4811
 2414TIP3   OH231436   2.544   6.009  16.179  0.1303 -0.1961 -0.5207
 2414TIP3    H131437   2.453   5.983  16.195 -0.0811  0.0699 -1.2485
 2414TIP3    H231438   2.594   5.964  16.247 -0.5477 -0.3281 -0.1017
 2415TIP3   OH231439   1.002   3.730  17.417  0.3590  0.0309  0.1201
 2415TIP3    H131440   1.033   3.807  17.369 -2.2457  1.1165 -0.0404
 2415TIP3    H231441   0.955   3.679  17.352  0.6846 -0.8512  0.5707
 2416TIP3   OH231442   1.110   4.989  16.391 -0.1874 -0.5386  0.0645
 2416TIP3    H131443   1.178   4.929  16.363 -2.3459 -3.3782  0.4453
 2416TIP3    H231444   1.135   5.013  16.481  0.1234 -1.8769  0.3569
 2417TIP3   OH231445   0.860   4.482  15.421  0.1676 -0.1007  0.8270
 2417TIP3    H131446   0.897   4.431  15.349 -1.1929 -0.8978  0.6538
 2417TIP3    H231447   0.867   4.573  15.393  1.2376 -0.2819  0.4662
 2418TIP3   OH231448   4.155   0.764  17.947 -0.3137 -0.3841  0.1701
 2418TIP3    H131449   4.158   0.847  17.996  0.5602 -0.8358  0.9189
 2418TIP3    H231450   4.093   0.710  17.995 -1.8775  0.2392 -1.0420
 2419TIP3   OH231451   1.329   1.613  15.371  0.7775  0.1335 -0.4651
 2419TIP3    H131452   1.312   1.691  15.426 -1.9499 -1.0077  0.5185
 2419TIP3    H231453   1.370   1.550  15.431  0.2081 -0.2053 -0.4239
 2420TIP3   OH231454   5.836   0.592  14.359 -0.0226 -0.2154  0.0690
 2420TIP3    H131455   5.755   0.642  14.348 -0.1508 -0.3800  0.2522
 2420TIP3    H231456   5.885   0.607  14.278 -1.9105 -3.1638 -1.8365
 2421TIP3   OH231457   1.812   2.184  17.574 -0.1767 -0.2035 -0.1840
 2421TIP3    H131458   1.756   2.240  17.520  1.2608  1.5497  0.0493
 2421TIP3    H231459   1.900   2.195  17.537  0.4964 -0.6253  1.2261
 2422TIP3   OH231460   6.605   2.244  15.111 -0.4243  0.1862 -0.0968
 2422TIP3    H131461   6.563   2.277  15.031  0.0225 -0.4133 -0.5917
 2422TIP3    H231462   6.699   2.257  15.095 -0.3456  0.2645  0.4259
 2423TIP3   OH231463   0.112   5.298  15.763 -0.3877  0.1309  0.0536
 2423TIP3    H131464   0.090   5.225  15.821 -1.4380  0.2470 -0.1739
 2423TIP3    H231465   0.149   5.364  15.821  0.9077 -0.6991  0.2134
 2424TIP3   OH231466   3.893   4.646  15.182  0.2023  0.0896 -0.5861
 2424TIP3    H131467   3.920   4.723  15.132  1.0535  0.6272  0.6420
 2424TIP3    H231468   3.967   4.586  15.172  0.4467  0.2651  0.1369
 2425TIP3   OH231469   2.990   3.272  15.281 -0.3092 -0.4149 -0.1456
 2425TIP3    H131470   2.982   3.277  15.186 -0.2956  0.5393 -0.1059
 2425TIP3    H231471   2.969   3.360  15.311 -1.0190 -0.8786  0.7875
 2426TIP3   OH231472   2.654   5.446  15.557 -0.9018 -0.4544  0.1243
 2426TIP3    H131473   2.593   5.499  15.608  0.1082 -0.0919  0.9987
 2426TIP3    H231474   2.657   5.362  15.602 -0.7645 -0.4704  0.0865
 2427TIP3   OH231475   3.492   1.844  17.850  0.2023  0.0886  0.1837
 2427TIP3    H131476   3.469   1.919  17.906  0.0523  0.7634 -0.7508
 2427TIP3    H231477   3.462   1.767  17.899 -2.2422  0.7929 -0.0526
 2428TIP3   OH231478   4.352   4.726  15.302  0.1042 -0.2305  0.6714
 2428TIP3    H131479   4.346   4.719  15.206  0.5515 -2.6780  0.7576
 2428TIP3    H231480   4.301   4.804  15.323  1.2205  1.2641 -1.6706
 2429TIP3   OH231481   1.172   5.311  17.973 -0.3996 -0.4872 -0.6164
 2429TIP3    H131482   1.103   5.371  17.943  0.9815  1.0633 -0.8409
 2429TIP3    H231483   1.232   5.305  17.899  0.2121 -1.0222 -0.0819
 2430TIP3   OH231484   6.312   2.420  15.375 -0.1002  0.3795  0.0671
 2430TIP3    H131485   6.345   2.332  15.353  0.4179  0.3252  1.0432
 2430TIP3    H231486   6.217   2.412  15.367 -0.0903 -0.4035  0.5917
 2431TIP3   OH231487   1.692   1.004  14.453 -0.0736  0.3631  0.0936
 2431TIP3    H131488   1.621   0.965  14.403 -0.4713  0.5092  0.5452
 2431TIP3    H231489   1.769   0.993  14.396 -0.1786 -1.0201  0.1772
 2432TIP3   OH231490   4.547   0.766  17.259 -0.0531  0.5006  0.4304
 2432TIP3    H131491   4.507   0.738  17.341  1.7370 -2.2708  0.4852
 2432TIP3    H231492   4.475   0.771  17.196 -1.0412 -0.0948  1.4915
 2433TIP3   OH231493   4.998   4.787  15.373  0.1851 -0.0939  0.6441
 2433TIP3    H131494   4.998   4.740  15.289 -0.5780 -0.0419  0.6077
 2433TIP3    H231495   5.046   4.729  15.433 -0.2526 -0.6550  0.4586
 2434TIP3   OH231496   5.631   3.348  14.610  0.4462  0.2640 -0.6668
 2434TIP3    H131497   5.688   3.272  14.597  0.6073  0.3717 -0.5975
 2434TIP3    H231498   5.567   3.319  14.674  1.4587  0.6790  0.5824
 2435TIP3   OH231499   4.340   0.582  18.116  0.4055 -0.2727  0.1286
 2435TIP3    H131500   4.275   0.558  18.050  0.5738 -0.1531 -0.0782
 2435TIP3    H231501   4.292   0.575  18.199 -0.5271  1.8499 -0.1452
 2436TIP3   OH231502   1.614   1.997  17.761 -0.0224 -0.0703  0.3481
 2436TIP3    H131503   1.677   1.935  17.723  0.7067 -0.5123  2.1451
 2436TIP3    H231504   1.634   2.081  17.720 -0.3097 -0.7953 -1.3434
 2437TIP3   OH231505   0.600   0.942  16.527 -0.0367  0.3884  0.0869
 2437TIP3    H131506   0.619   0.952  16.620  0.7947 -1.1515  0.1275
 2437TIP3    H231507   0.663   0.999  16.483  0.2553  0.3424  0.4404
 2438TIP3   OH231508   6.555   2.508  15.321 -0.4699  0.4148 -0.2634
 2438TIP3    H131509   6.473   2.468  15.348 -1.2882  0.1554 -2.8327
 2438TIP3    H231510   6.529   2.581  15.265  1.0488  0.8022 -0.5205
 2439TIP3   OH231511   4.354   3.701  16.988 -0.5960  0.0665  0.4665
 2439TIP3    H131512   4.360   3.700  16.892 -0.8942  0.0107  0.4485
 2439TIP3    H231513   4.400   3.622  17.015 -1.9639 -0.8104  0.2892
 2440TIP3   OH231514   6.608   0.743  14.780  0.4558  0.0644  0.4626
 2440TIP3    H131515   6.604   0.695  14.698 -2.2724  0.5009  0.2230
 2440TIP3    H231516   6.618   0.834  14.754  0.9663  0.0721  0.6838
 2441TIP3   OH231517   5.136   2.315  15.805 -0.1275 -0.0051  0.3671
 2441TIP3    H131518   5.080   2.239  15.825 -0.5077  0.4358  1.0215
 2441TIP3    H231519   5.210   2.277  15.758 -0.7821 -0.6538 -0.1772
 2442TIP3   OH231520   4.354   5.590  16.457  0.0754  0.3653  0.5246
 2442TIP3    H131521   4.332   5.596  16.550 -0.4264 -0.5278  0.4738
 2442TIP3    H231522   4.298   5.655  16.415 -1.8936 -1.2280  0.5128
 2443TIP3   OH231523   1.956   4.940  15.659 -0.4686  0.4475  0.4176
 2443TIP3    H131524   2.007   4.895  15.592 -0.6305  0.2776  0.4068
 2443TIP3    H231525   1.917   5.014  15.613 -0.5162  0.3760  0.3423
 2444TIP3   OH231526   3.880   0.803  16.336  0.1290  0.7741 -0.3940
 2444TIP3    H131527   3.955   0.767  16.288 -1.0081  0.4924 -2.0391
 2444TIP3    H231528   3.804   0.758  16.299 -1.0837  2.8478 -0.5545
 2445TIP3   OH231529   5.149   5.405  17.663 -0.3893 -0.7486  0.0653
 2445TIP3    H131530   5.190   5.411  17.577 -1.5352 -2.2507 -0.6375
 2445TIP3    H231531   5.210   5.351  17.714  0.6342  0.7216  0.4532
 2446TIP3   OH231532   2.784   2.635  15.706 -0.5875  0.3501  1.1541
 2446TIP3    H131533   2.833   2.623  15.625 -0.3882  3.1241  0.7771
 2446TIP3    H231534   2.839   2.692  15.760 -2.3052  1.6141  1.6880
 2447TIP3   OH231535   5.825   4.750  17.248  0.3308 -0.1893  0.3234
 2447TIP3    H131536   5.817   4.761  17.153  0.4672 -0.6770  0.2491
 2447TIP3    H231537   5.774   4.671  17.267 -1.9350  1.3534  1.0426
 2448TIP3   OH231538   2.895   0.478  16.972  0.2025  0.2777 -0.1990
 2448TIP3    H131539   2.815   0.435  17.001  0.0754 -1.0485 -2.3051
 2448TIP3    H231540   2.940   0.501  17.053 -1.3180 -0.8411  1.0369
 2449TIP3   OH231541   4.901   4.813  17.768 -0.4628 -0.2543  0.3137
 2449TIP3    H131542   4.831   4.793  17.831 -0.3131  0.1179  0.6037
 2449TIP3    H231543   4.876   4.898  17.731  0.6655  0.6905  1.6227
 2450TIP3   OH231544   3.295   4.896  17.254 -0.2202 -0.4128 -0.1218
 2450TIP3    H131545   3.326   4.963  17.315 -0.5072 -0.1648 -0.2405
 2450TIP3    H231546   3.262   4.826  17.309 -0.6809 -0.0956  0.0164
 2451TIP3   OH231547   6.290   5.344  16.183 -0.0130  0.1767  0.1276
 2451TIP3    H131548   6.311   5.416  16.243 -0.2158 -0.7711  1.3564
 2451TIP3    H231549   6.234   5.286  16.233  1.4103 -1.6538 -0.3104
 2452TIP3   OH231550   0.216   2.218  15.942 -0.2739  0.2483  0.0690
 2452TIP3    H131551   0.308   2.202  15.962 -0.1828 -0.7743 -1.0150
 2452TIP3    H231552   0.212   2.310  15.915  0.4280  0.2989  0.1310
 2453TIP3   OH231553   3.637   5.590  15.791 -0.1283 -0.4607 -0.1636
 2453TIP3    H131554   3.660   5.635  15.709 -1.1983  1.7372  0.6563
 2453TIP3    H231555   3.650   5.656  15.858  0.1055 -2.0314  1.3977
 2454TIP3   OH231556   0.535   1.516  16.349 -0.8044  0.7842 -0.5223
 2454TIP3    H131557   0.568   1.603  16.374  2.3236  0.0191 -1.5116
 2454TIP3    H231558   0.512   1.525  16.257  4.1382 -0.3558 -2.1543
 2455TIP3   OH231559   6.094   3.911  17.528 -0.6046  0.1218  0.2303
 2455TIP3    H131560   6.045   3.831  17.508 -0.6157  0.5527 -1.6865
 2455TIP3    H231561   6.163   3.882  17.587 -0.1739 -1.4800 -0.9803
 2456TIP3   OH231562   5.274   6.592  17.768  0.2891  0.6734 -0.0936
 2456TIP3    H131563   5.289   6.542  17.688 -0.2198 -0.2231  0.3461
 2456TIP3    H231564   5.347   6.568  17.825  0.2637  0.7467 -0.0294
 2457TIP3   OH231565   1.444   6.659  16.913 -0.4472  0.1258 -0.0224
 2457TIP3    H131566   1.393   6.739  16.904  0.9157  0.9203 -1.0962
 2457TIP3    H231567   1.497   6.672  16.991  1.1343  1.1285 -1.1962
 2458TIP3   OH231568   4.304   4.578  17.078 -0.2197  0.0557 -0.1893
 2458TIP3    H131569   4.226   4.527  17.099 -0.1221  0.0956  0.2749
 2458TIP3    H231570   4.342   4.533  17.003  0.7922 -1.5902  1.2162
 2459TIP3   OH231571   3.916   3.629  17.127 -0.2487 -0.8185  0.3143
 2459TIP3    H131572   3.903   3.635  17.221  0.1033 -1.0667  0.3845
 2459TIP3    H231573   3.977   3.555  17.116  0.6544 -0.0551 -0.0162
 2460TIP3   OH231574   6.671   6.673  17.289 -0.5490  0.3429  0.4102
 2460TIP3    H131575   6.765   6.677  17.271 -0.9183 -0.5355 -2.1316
 2460TIP3    H231576   6.655   6.745  17.350  1.8298  0.1565  1.3518
 2461TIP3   OH231577   5.770   2.540  18.048 -0.0241  0.0507  0.6848
 2461TIP3    H131578   5.681   2.510  18.062 -0.3931  0.9961  0.4262
 2461TIP3    H231579   5.790   2.593  18.125  0.6834 -0.9465  1.2203
 2462TIP3   OH231580   0.221   3.958  16.524  0.0702  0.1444 -0.0490
 2462TIP3    H131581   0.256   3.965  16.435  3.5677 -0.4905  1.0968
 2462TIP3    H231582   0.195   3.867  16.533  0.2522  0.0678 -0.2816
 2463TIP3   OH231583   2.353   5.916  17.750  0.0766 -0.6712  1.2774
 2463TIP3    H131584   2.298   5.991  17.729 -0.0379 -1.1186 -0.1187
 2463TIP3    H231585   2.324   5.847  17.690  2.5949 -0.7010 -0.0629
 2464TIP3   OH231586   0.263   1.433  17.580  0.5541 -0.3304 -0.2897
 2464TIP3    H131587   0.354   1.439  17.551  0.4228 -1.2920 -0.9384
 2464TIP3    H231588   0.258   1.349  17.625  0.3514  0.4053  1.1227
 2465TIP3   OH231589   1.415   6.033  16.138  0.6074 -0.1902  0.9932
 2465TIP3    H131590   1.377   6.120  16.130 -1.3207 -1.0790 -0.5808
 2465TIP3    H231591   1.377   5.997  16.218  0.0548 -0.1706  0.7475
 2466TIP3   OH231592   5.958   0.197  17.306 -0.5291  0.1679 -0.2662
 2466TIP3    H131593   6.013   0.200  17.385 -1.5501  1.3879  0.4286
 2466TIP3    H231594   5.990   0.121  17.258  1.9237  0.9441 -0.0142
 2467TIP3   OH231595   0.661   5.274  17.314  0.9338  0.2529 -0.1290
 2467TIP3    H131596   0.647   5.215  17.389  0.6877 -0.7586 -0.9484
 2467TIP3    H231597   0.620   5.229  17.240  0.8137  1.4302 -0.7998
 2468TIP3   OH231598   4.625   6.323  15.263 -0.1257  0.2453 -0.2487
 2468TIP3    H131599   4.673   6.391  15.216 -0.7350 -0.1866 -1.5456
 2468TIP3    H231600   4.534   6.336  15.239 -0.2230 -1.1974 -0.7756
 2469TIP3   OH231601   5.603   5.441  16.673 -0.0920  0.3522  0.3860
 2469TIP3    H131602   5.590   5.531  16.704  0.1046  1.1842 -1.7494
 2469TIP3    H231603   5.693   5.420  16.699 -0.5006  0.3176  1.8779
 2470TIP3   OH231604   5.521   4.885  16.912 -0.6116 -0.2432  0.5139
 2470TIP3    H131605   5.572   4.964  16.931 -1.3781  0.5169 -0.4781
 2470TIP3    H231606   5.447   4.917  16.861 -0.0328 -1.8370 -1.4230
 2471TIP3   OH231607   6.571   4.787  14.797  0.0076  0.2165 -0.1217
 2471TIP3    H131608   6.582   4.862  14.738  0.3987  0.2014 -0.0661
 2471TIP3    H231609   6.580   4.824  14.885 -1.7815  0.4634  0.0030
 2472TIP3   OH231610   5.805   4.743  16.956 -0.3609 -0.1819  0.7073
 2472TIP3    H131611   5.784   4.674  16.893 -0.8357  1.0229 -0.4913
 2472TIP3    H231612   5.727   4.797  16.961 -0.0002  0.2874  1.6307
 2473TIP3   OH231613   6.592   6.213  17.133 -0.1035  0.4461 -0.9745
 2473TIP3    H131614   6.668   6.186  17.184 -1.5968 -0.0417  1.1377
 2473TIP3    H231615   6.604   6.170  17.048  1.4618 -0.4432 -0.3506
 2474TIP3   OH231616   3.133   4.593  17.269 -0.1848  0.1003 -0.1197
 2474TIP3    H131617   3.101   4.594  17.179 -0.2288 -1.9333 -0.1660
 2474TIP3    H231618   3.054   4.594  17.323 -0.1550  1.8764 -0.0427
 2475TIP3   OH231619   3.502   5.020  15.907  0.5942 -0.3051 -0.0945
 2475TIP3    H131620   3.546   5.106  15.911  1.2001 -0.5632 -0.9210
 2475TIP3    H231621   3.420   5.033  15.955  1.8446  0.0118  2.0920
 2476TIP3   OH231622   0.337   1.422  14.284  0.5898 -0.5105  0.4424
 2476TIP3    H131623   0.412   1.460  14.331  0.9090 -0.3390 -0.1903
 2476TIP3    H231624   0.368   1.336  14.257  1.2631  0.2551 -1.4308
 2477TIP3   OH231625   1.175   5.059  16.648  0.3141  0.2882  0.1012
 2477TIP3    H131626   1.228   4.985  16.677 -0.6102 -0.4595 -0.0525
 2477TIP3    H231627   1.132   5.090  16.728  0.7666  0.7335  0.1817
 2478TIP3   OH231628   0.254   3.502  18.203 -0.0107 -0.0225 -0.0015
 2478TIP3    H131629   0.200   3.569  18.161 -0.3755  0.4712  1.2271
 2478TIP3    H231630   0.196   3.460  18.266  0.6229 -0.5130  0.2704
 2479TIP3   OH231631   6.423   3.816  16.657 -0.3416 -0.0681  0.0059
 2479TIP3    H131632   6.496   3.765  16.692 -0.2990  0.3459  0.5310
 2479TIP3    H231633   6.404   3.776  16.572  0.2870 -0.3767  0.0062
 2480TIP3   OH231634   3.424   6.223  15.195  0.1445  0.3393  0.0860
 2480TIP3    H131635   3.372   6.275  15.133  0.0914  1.9620  1.4267
 2480TIP3    H231636   3.454   6.287  15.260  0.3101 -1.2886  1.6670
 2481TIP3   OH231637   2.529   2.250  17.168 -0.6609 -0.4002  0.4083
 2481TIP3    H131638   2.522   2.214  17.079 -0.2958 -0.3038  0.3395
 2481TIP3    H231639   2.593   2.195  17.212  1.4301  1.2993 -0.3094
 2482TIP3   OH231640   6.225   5.611  16.607 -0.0086 -0.1338 -0.4952
 2482TIP3    H131641   6.315   5.603  16.639  0.0555  1.3478 -0.2565
 2482TIP3    H231642   6.171   5.574  16.677  0.3206  0.3570  0.0233
 2483TIP3   OH231643   4.623   4.383  16.620  0.3682  0.5492 -0.2420
 2483TIP3    H131644   4.666   4.440  16.684  1.3161  0.7436 -1.0258
 2483TIP3    H231645   4.633   4.295  16.656 -0.6209  0.8035  0.7047
 2484TIP3   OH231646   2.481   1.688  17.511 -0.4143  0.3947  0.0980
 2484TIP3    H131647   2.456   1.659  17.599 -0.2708 -0.2802 -0.0750
 2484TIP3    H231648   2.491   1.607  17.461  0.2790  0.7381 -0.3357
 2485TIP3   OH231649   5.031   6.183  15.849 -0.0554 -0.4635 -0.2608
 2485TIP3    H131650   5.010   6.252  15.913  1.4012  0.3128 -0.5790
 2485TIP3    H231651   4.978   6.204  15.773 -0.6207 -0.4820  0.1194
 2486TIP3   OH231652   4.438   5.767  15.172  0.7149 -0.2251 -0.1195
 2486TIP3    H131653   4.395   5.853  15.167 -1.4235 -1.2858 -1.4761
 2486TIP3    H231654   4.455   5.743  15.081  0.0077 -1.8086  0.1295
 2487TIP3   OH231655   4.032   2.822  16.409 -0.4367 -0.1095  0.0454
 2487TIP3    H131656   4.021   2.737  16.367 -0.8400 -0.3527  0.6338
 2487TIP3    H231657   4.126   2.841  16.403  0.0037 -1.5480  1.7269
 2488TIP3   OH231658   3.849   2.548  17.389 -0.1938 -0.3098  0.4789
 2488TIP3    H131659   3.777   2.611  17.383  0.4665  0.4073 -0.0131
 2488TIP3    H231660   3.812   2.466  17.354 -0.3573  0.4195 -1.1413
 2489TIP3   OH231661   6.632   3.626  17.288 -0.1145  0.4624 -0.4976
 2489TIP3    H131662   6.661   3.627  17.379  1.2253  0.5665 -0.8990
 2489TIP3    H231663   6.540   3.653  17.291 -0.1653  0.2075  0.8355
 2490TIP3   OH231664   5.278   2.744  15.909 -0.5782  0.2479 -0.1178
 2490TIP3    H131665   5.263   2.797  15.830 -1.7912  1.1279  0.6830
 2490TIP3    H231666   5.240   2.795  15.980 -2.4441 -1.9670  0.6121
 2491TIP3   OH231667   5.727   5.154  17.448 -0.4486 -0.2909  0.5254
 2491TIP3    H131668   5.713   5.190  17.361 -0.8708  1.3762  1.2421
 2491TIP3    H231669   5.784   5.078  17.435  0.0274  0.3241 -1.1060
 2492TIP3   OH231670   3.752   4.873  17.332  0.3394 -0.0842  0.3029
 2492TIP3    H131671   3.800   4.878  17.250 -2.3871  0.0255 -1.4139
 2492TIP3    H231672   3.785   4.947  17.384  0.4006  1.4101 -1.7341
 2493TIP3   OH231673   4.325   3.852  16.326  0.4193  0.1778 -0.3908
 2493TIP3    H131674   4.372   3.836  16.408  0.0991  0.5141 -0.1414
 2493TIP3    H231675   4.250   3.905  16.351 -0.3166 -0.6759 -0.7246
 2494TIP3   OH231676   2.948   2.695  16.747 -0.3710  0.0447 -0.0002
 2494TIP3    H131677   2.956   2.761  16.816 -1.3534  0.2305 -0.0474
 2494TIP3    H231678   2.945   2.612  16.794  1.6927 -0.0808  0.0209
 2495TIP3   OH231679   0.006   5.434  16.755 -0.3071  0.0605 -0.2228
 2495TIP3    H131680   0.050   5.444  16.839 -1.0230 -0.4189  0.2174
 2495TIP3    H231681  -0.062   5.369  16.770 -0.9629  0.5441 -0.9644
 2496TIP3   OH231682   1.105   3.976  17.142 -0.2901 -0.3888 -0.0287
 2496TIP3    H131683   1.094   4.001  17.234 -0.4282 -0.3641 -0.0517
 2496TIP3    H231684   1.037   4.025  17.096  0.0962 -0.0232 -0.2133
 2497TIP3   OH231685   2.943   6.631  14.977  0.1841 -0.6692  0.0892
 2497TIP3    H131686   2.972   6.630  15.068 -2.3816 -2.2016  0.9932
 2497TIP3    H231687   2.902   6.716  14.966  2.7528  0.5870 -0.5193
 2498TIP3   OH231688   4.767   1.357  16.711  0.1457  0.2755 -0.1647
 2498TIP3    H131689   4.689   1.316  16.674  0.9321  0.5157 -2.2207
 2498TIP3    H231690   4.822   1.285  16.740  0.2681 -0.0231 -1.1104
 2499TIP3   OH231691   1.490   2.038  15.530 -0.2838  0.6032 -0.4368
 2499TIP3    H131692   1.485   2.134  15.533  0.8465  0.7598  4.1630
 2499TIP3    H231693   1.582   2.020  15.511 -0.3503  0.4485 -0.6082
 2500TIP3   OH231694   1.250   5.375  16.294  0.0919 -0.2943 -0.1944
 2500TIP3    H131695   1.182   5.398  16.230  0.2057 -1.2488 -0.6798
 2500TIP3    H231696   1.240   5.439  16.364 -2.5163 -1.4465  0.6274
 2501TIP3   OH231697   3.431   2.711  17.632  0.7431 -0.1167  0.7337
 2501TIP3    H131698   3.347   2.674  17.660  0.2004  0.1260 -0.5291
 2501TIP3    H231699   3.485   2.711  17.712 -0.5633  0.0431  1.6365
 2502TIP3   OH231700   5.648   1.013  15.560  0.2315 -0.2925  0.9909
 2502TIP3    H131701   5.618   1.085  15.615 -0.3872 -0.6192  1.0976
 2502TIP3    H231702   5.723   0.976  15.606  0.9524  0.6714  0.6193
 2503TIP3   OH231703   1.091   5.055  15.650  0.2443  0.2080 -0.5945
 2503TIP3    H131704   1.185   5.042  15.647  0.2803  0.6168 -1.8539
 2503TIP3    H231705   1.069   5.090  15.564 -0.4491  4.2503  0.9965
 2504TIP3   OH231706   6.044   1.448  16.898  0.0566 -0.5973  0.2502
 2504TIP3    H131707   6.077   1.497  16.973  1.5989  1.0566 -1.4128
 2504TIP3    H231708   6.017   1.363  16.935  1.4937 -0.1550  2.5143
 2505TIP3   OH231709   6.240   6.515  17.136  0.2500 -0.5062  0.3697
 2505TIP3    H131710   6.195   6.487  17.057 -0.3213 -0.0648  0.5284
 2505TIP3    H231711   6.320   6.463  17.138  1.1772  0.7214 -1.4564
 2506TIP3   OH231712   4.146   4.397  16.722  0.4636  0.1571  1.0886
 2506TIP3    H131713   4.174   4.488  16.725  0.1123  0.2483  1.9950
 2506TIP3    H231714   4.227   4.348  16.705  0.5344  0.6686 -0.1729
 2507TIP3   OH231715   3.562   1.820  15.129  0.1854  0.0022 -0.0730
 2507TIP3    H131716   3.608   1.886  15.077  2.4842 -1.8443 -0.5636
 2507TIP3    H231717   3.596   1.736  15.097 -1.3981 -1.3741  1.6223
 2508TIP3   OH231718   2.669   3.007  14.729  0.5561 -0.1179  0.1202
 2508TIP3    H131719   2.704   3.044  14.810 -0.0869 -0.6194  0.6383
 2508TIP3    H231720   2.746   2.982  14.678  0.9657 -1.5644  1.3995
 2509TIP3   OH231721   4.492   2.856  17.016 -0.2170 -0.1659 -0.0478
 2509TIP3    H131722   4.487   2.773  17.063 -2.2065 -0.7398 -1.1940
 2509TIP3    H231723   4.541   2.835  16.936  2.7904  0.7203  1.3844
 2510TIP3   OH231724   3.394   1.451  15.782 -0.2390 -0.3600  0.0210
 2510TIP3    H131725   3.334   1.376  15.774 -0.2964 -0.2290 -0.7977
 2510TIP3    H231726   3.344   1.516  15.832 -0.4439 -0.5981  0.1299
 2511TIP3   OH231727   4.315   2.910  15.109 -0.5466  0.2711 -0.1216
 2511TIP3    H131728   4.333   2.816  15.119  0.0487  0.2471 -1.2523
 2511TIP3    H231729   4.296   2.921  15.016  1.5028  1.5927 -0.4618
 2512TIP3   OH231730   2.673   1.325  15.872  0.2342 -0.2340  0.3919
 2512TIP3    H131731   2.606   1.382  15.909 -0.3446  0.1337 -1.1687
 2512TIP3    H231732   2.700   1.270  15.946 -2.3213 -0.9298  0.9133
 2513TIP3   OH231733   4.405   3.411  17.546 -0.1763 -0.0388 -0.8245
 2513TIP3    H131734   4.417   3.477  17.478  1.1329  0.7617  0.1326
 2513TIP3    H231735   4.323   3.435  17.589  0.9085  1.7922  0.3399
 2514TIP3   OH231736   1.204   3.051  17.089  0.0549 -0.1531  0.3344
 2514TIP3    H131737   1.227   3.056  17.181  0.1318  0.2302  0.2970
 2514TIP3    H231738   1.273   2.998  17.050 -0.9548 -1.8945  0.8121
 2515TIP3   OH231739   1.269   6.108  15.173 -0.0501  0.0319 -0.0024
 2515TIP3    H131740   1.326   6.184  15.180 -0.6712  0.3988  1.4331
 2515TIP3    H231741   1.256   6.079  15.263 -1.8949 -0.2005 -0.3070
 2516TIP3   OH231742   3.867   6.687  17.188  0.3152  0.2374  0.7046
 2516TIP3    H131743   3.805   6.652  17.124 -1.7059  2.6424  1.2058
 2516TIP3    H231744   3.856   6.632  17.265 -1.9970  1.1774  1.1174
 2517TIP3   OH231745   5.582   2.539  17.628 -0.0681 -0.3514  0.1145
 2517TIP3    H131746   5.489   2.523  17.611 -0.1986 -2.0622  2.0039
 2517TIP3    H231747   5.584   2.584  17.713  0.7717  2.4415 -1.2687
 2518TIP3   OH231748   2.729   4.662  17.668  0.4218  0.1878  0.3111
 2518TIP3    H131749   2.679   4.674  17.587 -1.6107  0.4677  1.5364
 2518TIP3    H231750   2.815   4.632  17.639 -0.3672 -0.0856 -1.9192
 2519TIP3   OH231751   2.907   2.370  17.296 -0.4868 -0.2526 -0.3262
 2519TIP3    H131752   2.947   2.368  17.383 -0.5023 -2.8893 -0.2947
 2519TIP3    H231753   2.888   2.463  17.280  1.7270  0.5851  1.4353
 2520TIP3   OH231754   4.120   5.782  15.187  0.1638 -0.6179 -0.5072
 2520TIP3    H131755   4.142   5.776  15.094  3.1697 -2.0804  0.1730
 2520TIP3    H231756   4.184   5.844  15.223 -0.9372 -0.0950  0.6208
 2521TIP3   OH231757   1.347   5.091  17.266 -0.1973 -0.0515  0.4365
 2521TIP3    H131758   1.388   5.153  17.205  0.6181 -1.2839 -0.3218
 2521TIP3    H231759   1.287   5.145  17.318 -0.0900  1.2356 -0.6984
 2522TIP3   OH231760   2.829   0.378  16.492  0.1126 -0.5624 -0.5019
 2522TIP3    H131761   2.862   0.299  16.534  0.0911 -0.9428 -1.1864
 2522TIP3    H231762   2.907   0.431  16.477  0.0033  0.0999  1.0360
 2523TIP3   OH231763   0.081   3.638  17.070 -0.2165 -0.1477  0.0091
 2523TIP3    H131764   0.128   3.557  17.052  1.3551  0.5917  0.5522
 2523TIP3    H231765   0.045   3.626  17.158  0.1871 -0.1732  0.1698
 2524TIP3   OH231766   3.145   5.697  16.550 -0.1701  0.7938  0.4564
 2524TIP3    H131767   3.157   5.685  16.455 -3.1669  1.6202 -0.1231
 2524TIP3    H231768   3.120   5.610  16.581  2.3640  0.1224  0.8915
 2525TIP3   OH231769   5.408   1.119  16.373  0.5120 -0.3456 -0.1494
 2525TIP3    H131770   5.433   1.050  16.313 -0.5185 -0.3582 -0.5802
 2525TIP3    H231771   5.490   1.144  16.417  1.1224 -0.8954 -0.9583
 2526TIP3   OH231772   4.676   4.625  17.803  0.0990  0.0808 -0.4706
 2526TIP3    H131773   4.746   4.610  17.739  3.8983  2.3590  2.6603
 2526TIP3    H231774   4.687   4.553  17.866 -1.7785 -0.6272 -0.9055
 2527TIP3   OH231775   3.626   4.677  15.976  0.5135 -0.0612  0.3011
 2527TIP3    H131776   3.544   4.726  15.978  0.9576  0.8001 -1.1801
 2527TIP3    H231777   3.623   4.622  16.055 -0.3366  1.7945  1.6394
 2528TIP3   OH231778   5.088   1.645  16.837  0.3309  0.1767  0.0192
 2528TIP3    H131779   5.173   1.603  16.850  0.0153 -0.2237  0.9130
 2528TIP3    H231780   5.024   1.577  16.857 -0.2313  0.1330 -1.7453
 2529TIP3   OH231781   5.395   6.023  15.723 -0.3186 -0.2815 -0.9195
 2529TIP3    H131782   5.328   6.069  15.673 -1.8511 -1.4359  0.0055
 2529TIP3    H231783   5.384   5.931  15.701 -0.8040 -0.7838  1.2265
 2530TIP3   OH231784   2.602   2.259  15.200  0.3306  0.0857  0.1414
 2530TIP3    H131785   2.606   2.323  15.128 -0.5790 -0.9250 -0.8471
 2530TIP3    H231786   2.513   2.223  15.194  0.3796 -0.3063  1.5364
 2531TIP3   OH231787   6.397   6.170  14.410 -0.0324  0.0457  0.4800
 2531TIP3    H131788   6.399   6.127  14.496  2.2353  2.0531  1.5618
 2531TIP3    H231789   6.358   6.255  14.427 -0.5082  0.0794 -0.7096
 2532TIP3   OH231790   5.596   3.578  15.766 -0.0451 -0.7648  0.1347
 2532TIP3    H131791   5.681   3.535  15.777  1.2239  1.1445 -1.3627
 2532TIP3    H231792   5.613   3.670  15.787 -1.4601 -0.1458 -1.2419
 2533TIP3   OH231793   0.142   5.611  15.015 -0.4811  0.5919 -0.1884
 2533TIP3    H131794   0.094   5.601  14.933 -1.3769  0.5273  0.3360
 2533TIP3    H231795   0.229   5.640  14.988 -0.6417  0.1992 -1.1814
 2534TIP3   OH231796   5.048   4.935  17.016 -0.3122  0.6843  0.4689
 2534TIP3    H131797   5.072   5.017  16.974 -0.9263  0.8875  0.5092
 2534TIP3    H231798   4.955   4.923  16.996 -0.1401 -0.1967  0.1374
 2535TIP3   OH231799   0.298   6.188  15.315 -0.3861 -1.0180 -0.3775
 2535TIP3    H131800   0.244   6.226  15.384  1.4753  2.3218 -0.5506
 2535TIP3    H231801   0.335   6.109  15.355  0.1869  0.4753  2.3195
 2536TIP3   OH231802   0.378   4.078  16.726  0.0773  0.6113 -0.2283
 2536TIP3    H131803   0.308   4.041  16.672 -1.5137  2.1194  0.6932
 2536TIP3    H231804   0.436   4.122  16.663 -0.2338  0.0432 -0.9316
 2537TIP3   OH231805   2.376   4.698  18.005  0.2184 -1.0334  0.2149
 2537TIP3    H131806   2.381   4.777  17.952  0.9797 -0.8957  0.4733
 2537TIP3    H231807   2.467   4.668  18.011  0.3882 -0.2586  2.6143
 2538TIP3   OH231808   1.664   4.965  17.895  0.2083 -0.3518  0.1633
 2538TIP3    H131809   1.591   4.939  17.952 -0.3678 -1.0816 -0.8776
 2538TIP3    H231810   1.693   5.049  17.931 -1.3003  0.0755  0.4668
 2539TIP3   OH231811   2.502   3.127  17.210 -0.3809  0.0724  0.0526
 2539TIP3    H131812   2.556   3.052  17.233  0.0057  0.1851 -0.4692
 2539TIP3    H231813   2.460   3.104  17.127  2.0597  1.5506 -1.7193
 2540TIP3   OH231814   1.491   0.079  15.473  0.0513 -0.3719 -0.1172
 2540TIP3    H131815   1.525   0.065  15.562  1.1002  2.4514  0.0530
 2540TIP3    H231816   1.405   0.121  15.487  0.8191  1.3545 -0.3501
 2541TIP3   OH231817   5.845   4.887  15.128 -0.1423 -0.4549 -0.1667
 2541TIP3    H131818   5.813   4.950  15.063  0.5651 -1.4153 -1.4943
 2541TIP3    H231819   5.845   4.803  15.082  0.2961 -1.1852  1.1126
 2542TIP3   OH231820   0.857   4.500  15.727 -0.2768 -0.0823  0.4802
 2542TIP3    H131821   0.889   4.474  15.641 -0.2767  0.4285  0.3209
 2542TIP3    H231822   0.936   4.511  15.780 -0.2800 -0.4530  0.5634
 2543TIP3   OH231823   6.062   6.187  17.570 -0.1124  0.3449  0.1397
 2543TIP3    H131824   6.143   6.228  17.539  0.8532 -2.0204 -0.6581
 2543TIP3    H231825   6.085   6.147  17.654 -0.6280  0.1827  0.2064
 2544TIP3   OH231826   4.743   2.157  15.508  0.2289  0.3969 -0.1892
 2544TIP3    H131827   4.828   2.116  15.492 -0.2732 -1.4074  1.4822
 2544TIP3    H231828   4.700   2.154  15.423  1.6283  0.9186 -0.9611
 2545TIP3   OH231829   4.261   4.900  16.836 -0.0844  0.2716 -0.6839
 2545TIP3    H131830   4.344   4.890  16.790  0.9573 -0.3508  1.2519
 2545TIP3    H231831   4.205   4.830  16.801 -0.2541  1.3698 -2.8080
 2546TIP3   OH231832   3.786   0.588  15.661  0.0532 -0.1170  0.7081
 2546TIP3    H131833   3.697   0.555  15.673 -0.1351  0.3600  0.6534
 2546TIP3    H231834   3.819   0.542  15.584 -0.0853 -0.4202  0.8303
 2547TIP3   OH231835   5.335   1.781  17.251 -1.1483  0.7838  0.0668
 2547TIP3    H131836   5.374   1.866  17.269 -0.5433  0.3988  0.6204
 2547TIP3    H231837   5.328   1.738  17.336  1.9440 -1.1308 -0.4707
 2548TIP3   OH231838   5.474   5.544  16.240 -0.1554  0.4053  0.2192
 2548TIP3    H131839   5.468   5.529  16.145 -0.1374  1.0762  0.1039
 2548TIP3    H231840   5.435   5.631  16.253 -0.7935  0.0239  0.9227
 2549TIP3   OH231841   4.788   5.670  14.880  0.0023  0.2671  0.7215
 2549TIP3    H131842   4.765   5.587  14.838 -0.4018  0.4513  0.5679
 2549TIP3    H231843   4.882   5.678  14.868 -0.3766  1.4423 -2.2590
 2550TIP3   OH231844   2.010   1.338  15.901  0.0727 -0.5480  0.3289
 2550TIP3    H131845   2.009   1.425  15.860  0.3725 -0.8257 -0.2902
 2550TIP3    H231846   2.098   1.331  15.938  0.4708 -1.0452 -0.6649
 2551TIP3   OH231847   3.631   0.205  14.431  0.4356  0.1009 -0.1848
 2551TIP3    H131848   3.703   0.214  14.493 -0.4896  1.2842  0.7800
 2551TIP3    H231849   3.567   0.270  14.460 -1.4211 -1.5166 -0.4394
 2552TIP3   OH231850   0.322   1.644  14.746  1.0577 -0.4881  0.3459
 2552TIP3    H131851   0.351   1.553  14.743  0.8310 -0.5480 -0.3030
 2552TIP3    H231852   0.295   1.663  14.656 -2.8187 -1.0943  1.1884
 2553TIP3   OH231853   2.238   0.579  17.273  0.2463  0.0613 -0.1120
 2553TIP3    H131854   2.177   0.517  17.233 -2.0039  0.9535  1.6994
 2553TIP3    H231855   2.225   0.660  17.224  2.2214 -0.4690 -1.6229
 2554TIP3   OH231856   6.455   4.813  15.750  0.2769 -0.1951 -0.3523
 2554TIP3    H131857   6.412   4.890  15.715  1.1480  0.6332  0.3439
 2554TIP3    H231858   6.428   4.811  15.842  0.9682 -0.2090 -0.1486
 2555TIP3   OH231859   3.138   0.553  14.658  0.1512  0.4110  0.0060
 2555TIP3    H131860   3.157   0.590  14.572  1.2757 -0.7601 -0.2793
 2555TIP3    H231861   3.164   0.621  14.720 -1.9376  1.8190 -0.5551
 2556TIP3   OH231862   1.716   5.071  14.884  0.3540 -0.3557 -1.0227
 2556TIP3    H131863   1.644   5.051  14.824  0.4647 -1.5295 -0.7910
 2556TIP3    H231864   1.785   5.106  14.828 -0.6401  1.5414 -1.1513
 2557TIP3   OH231865   5.732   3.114  18.007  0.1772 -0.6650  0.2617
 2557TIP3    H131866   5.773   3.149  18.086  1.0695 -0.9044 -0.0939
 2557TIP3    H231867   5.672   3.047  18.039 -1.6811  1.1955  0.9899
 2558TIP3   OH231868   2.594   3.372  17.999 -0.6653  0.4445  0.1883
 2558TIP3    H131869   2.565   3.419  18.077  1.2694  1.0720  0.5832
 2558TIP3    H231870   2.556   3.421  17.926 -2.1800  0.0713  0.6938
 2559TIP3   OH231871   2.250   6.243  16.796  0.0432 -0.8460  0.1770
 2559TIP3    H131872   2.187   6.179  16.829  0.2090 -1.3980 -0.5481
 2559TIP3    H231873   2.197   6.311  16.756 -0.1083 -1.2266 -0.2810
 2560TIP3   OH231874   6.171   1.425  16.654 -0.0552  0.6413  0.5143
 2560TIP3    H131875   6.091   1.420  16.706  0.6537 -2.2735  1.5151
 2560TIP3    H231876   6.241   1.439  16.718  0.5238  0.1369  0.0079
 2561TIP3   OH231877   1.164   4.200  16.392  0.6999 -0.3078 -0.4606
 2561TIP3    H131878   1.112   4.133  16.436  0.8537  1.2626  2.3698
 2561TIP3    H231879   1.249   4.159  16.379 -0.1491 -1.7359 -1.9802
 2562TIP3   OH231880   0.243   0.687  16.537 -0.0231  0.0988  0.0323
 2562TIP3    H131881   0.181   0.624  16.573  1.7182 -1.6364  0.1659
 2562TIP3    H231882   0.240   0.762  16.597 -0.8909 -0.5646  0.8394
 2563TIP3   OH231883   2.684   3.047  17.737 -0.0828 -0.2728  0.5907
 2563TIP3    H131884   2.618   2.977  17.737  0.1505 -0.5091 -0.3844
 2563TIP3    H231885   2.695   3.069  17.829 -3.6685  1.8290  0.6839
 2564TIP3   OH231886   3.856   2.765  14.921  0.2215 -0.1158 -0.0617
 2564TIP3    H131887   3.778   2.728  14.878  0.0526  0.0049  0.1414
 2564TIP3    H231888   3.902   2.810  14.851  0.0134 -0.0306 -0.1458
 2565TIP3   OH231889   4.358   5.055  17.793  0.5058  0.1865 -0.0286
 2565TIP3    H131890   4.426   5.018  17.849 -0.0273 -0.1196  0.4264
 2565TIP3    H231891   4.282   4.999  17.808 -0.1825  1.1790  0.3026
 2566TIP3   OH231892   0.310   2.954  16.170 -0.3389 -0.5462 -0.7261
 2566TIP3    H131893   0.375   3.007  16.217  0.3652  0.5094 -2.7772
 2566TIP3    H231894   0.233   2.957  16.226  0.0171  1.7849 -0.2379
 2567TIP3   OH231895   3.911   1.288  18.235  0.1846  0.2060 -0.5122
 2567TIP3    H131896   3.958   1.366  18.207  0.6224  0.1373  0.0174
 2567TIP3    H231897   3.843   1.321  18.294  2.1700 -0.0096  2.0554
 2568TIP3   OH231898   1.783   5.161  15.832 -0.5349  0.1018 -0.3879
 2568TIP3    H131899   1.763   5.116  15.751 -0.7677  0.3450 -0.4686
 2568TIP3    H231900   1.721   5.125  15.896 -0.0280 -0.4377 -0.1990
 2569TIP3   OH231901   2.626   2.763  15.287 -0.2474  0.1483  0.0084
 2569TIP3    H131902   2.623   2.817  15.366 -0.1274 -0.7374  0.6350
 2569TIP3    H231903   2.675   2.685  15.314  0.1018 -0.0041 -1.0427
 2570TIP3   OH231904   0.299   5.377  16.751 -0.1955 -0.3315  0.0080
 2570TIP3    H131905   0.366   5.309  16.739 -1.2988 -1.4728  0.0630
 2570TIP3    H231906   0.263   5.359  16.838 -0.9206 -0.0532 -0.2310
 2571TIP3   OH231907   1.343   1.754  16.134 -0.5401  0.1696 -0.0103
 2571TIP3    H131908   1.348   1.819  16.203  0.6588  0.7638 -0.6367
 2571TIP3    H231909   1.431   1.748  16.099 -0.4891 -2.1466  0.3293
 2572TIP3   OH231910   2.037   4.157  16.422 -0.0914 -0.5971 -0.7331
 2572TIP3    H131911   2.001   4.204  16.497 -1.0715  0.1173 -1.6254
 2572TIP3    H231912   2.124   4.195  16.410 -0.8659  1.0372 -1.4391
 2573TIP3   OH231913   5.348   0.835  16.560  0.1438  0.3341  0.2914
 2573TIP3    H131914   5.431   0.879  16.577 -0.0935  0.5665  0.8905
 2573TIP3    H231915   5.343   0.766  16.626  0.3813 -0.4185 -0.4575
 2574TIP3   OH231916   1.665   2.459  15.380  0.9301  0.4164  0.5341
 2574TIP3    H131917   1.615   2.460  15.298  0.1470  2.4650  0.9677
 2574TIP3    H231918   1.756   2.449  15.352  0.5068 -0.9730 -0.4336
 2575TIP3   OH231919   1.897   5.895  15.571 -0.5020  0.3526  0.8011
 2575TIP3    H131920   1.886   5.980  15.528 -0.4876 -0.0051  0.0736
 2575TIP3    H231921   1.821   5.843  15.542 -0.2780 -0.0288  0.8897
 2576TIP3   OH231922   2.891   0.111  15.459 -0.0202  0.0090 -0.1363
 2576TIP3    H131923   2.980   0.130  15.489 -0.3451  0.1879  0.7432
 2576TIP3    H231924   2.834   0.149  15.526 -0.7566 -3.5408  1.4842
 2577TIP3   OH231925   2.428   0.953  17.944  0.2502  0.4433 -0.1610
 2577TIP3    H131926   2.484   0.977  18.018  0.4354  1.0980 -0.4957
 2577TIP3    H231927   2.466   1.001  17.870  0.0762 -0.2099 -0.6802
 2578TIP3   OH231928   2.675   4.538  16.244 -0.1567  0.1475  0.0708
 2578TIP3    H131929   2.737   4.468  16.265 -0.9607 -0.1316  1.6193
 2578TIP3    H231930   2.604   4.495  16.197  0.6579  0.4204 -1.4568
 2579TIP3   OH231931   0.165   6.562  15.034  0.0261  0.0162 -0.3570
 2579TIP3    H131932   0.172   6.467  15.043 -2.8859 -0.3468 -0.9959
 2579TIP3    H231933   0.231   6.596  15.094 -0.6154 -2.4128  1.9301
 2580TIP3   OH231934   4.609   0.965  14.680  0.3330 -0.1069  0.1382
 2580TIP3    H131935   4.673   1.036  14.682  0.3536 -0.1307  0.3104
 2580TIP3    H231936   4.529   1.006  14.648 -0.2463  0.4686  2.1797
 2581TIP3   OH231937   0.680   6.408  17.828  0.0136  0.0922  0.2737
 2581TIP3    H131938   0.696   6.430  17.737 -0.0982  2.1641  0.6922
 2581TIP3    H231939   0.767   6.391  17.865  0.1128 -0.1686 -0.0811
 2582TIP3   OH231940   1.320   4.067  15.717 -0.4014 -0.0797  0.0774
 2582TIP3    H131941   1.350   4.114  15.639 -0.1062  0.2349  0.3803
 2582TIP3    H231942   1.310   3.977  15.688  0.6608 -0.1607 -0.0808
 2583TIP3   OH231943   3.439   6.537  14.939 -0.1426  0.1964 -0.0353
 2583TIP3    H131944   3.504   6.605  14.925  1.3180 -0.8239  1.4241
 2583TIP3    H231945   3.414   6.509  14.851  0.1828  1.6758 -0.6377
 2584TIP3   OH231946   3.422   3.261  14.868  0.4622 -0.3096  0.5098
 2584TIP3    H131947   3.383   3.184  14.909 -2.3439  0.9434  0.4492
 2584TIP3    H231948   3.446   3.318  14.941 -0.3189  0.0117  0.5278
 2585TIP3   OH231949   3.452   6.695  17.347 -0.2114  0.5206 -0.1411
 2585TIP3    H131950   3.447   6.637  17.423 -1.4768  0.9768  0.1570
 2585TIP3    H231951   3.392   6.656  17.284 -1.9640  2.0477  0.4839
 2586TIP3   OH231952   3.467   5.675  17.508 -0.0644  0.1065 -0.0311
 2586TIP3    H131953   3.399   5.690  17.441 -3.9460  0.0887  3.5125
 2586TIP3    H231954   3.514   5.758  17.511 -2.0532  1.3473 -0.5410
 2587TIP3   OH231955   3.983   6.385  18.107  0.1078  0.1441 -0.3342
 2587TIP3    H131956   3.984   6.419  18.197 -0.2630 -0.7175  0.0126
 2587TIP3    H231957   4.013   6.458  18.053 -1.4677  1.3015  0.2782
 2588TIP3   OH231958   3.543   1.259  17.057  0.3276 -0.4589  0.0447
 2588TIP3    H131959   3.481   1.205  17.010 -0.4578 -0.4040  0.9872
 2588TIP3    H231960   3.582   1.201  17.123 -0.3446  0.0315  0.9038
 2589TIP3   OH231961   1.504   4.817  16.519 -0.5507  0.8468 -0.0517
 2589TIP3    H131962   1.538   4.729  16.538 -0.2897  1.2661  1.5975
 2589TIP3    H231963   1.568   4.855  16.459  0.5561  0.7012  0.9995
 2590TIP3   OH231964   1.128   4.487  17.517  0.2476 -0.1805  0.4711
 2590TIP3    H131965   1.167   4.465  17.602  1.3393 -1.9757 -0.4256
 2590TIP3    H231966   1.037   4.507  17.537  0.6651  0.2309  2.1509
 2591TIP3   OH231967   0.836   0.200  17.745  0.3245 -0.2675 -0.3188
 2591TIP3    H131968   0.926   0.167  17.740  0.4473  0.2403 -1.8133
 2591TIP3    H231969   0.793   0.142  17.808  0.9298 -2.3478 -1.6968
 2592TIP3   OH231970   1.083   1.406  15.701  0.5131 -0.1781  0.0651
 2592TIP3    H131971   1.004   1.458  15.684  0.3924 -1.0579 -2.4029
 2592TIP3    H231972   1.050   1.318  15.720  0.8658 -0.2076  0.5637
 2593TIP3   OH231973   1.762   4.767  16.156 -0.2876 -0.6955 -0.1980
 2593TIP3    H131974   1.692   4.777  16.091 -1.3597 -0.2991  0.9875
 2593TIP3    H231975   1.790   4.856  16.174 -0.9355 -0.6903  0.8601
 2594TIP3   OH231976   2.628   5.858  16.412  0.1042 -0.5230 -0.5880
 2594TIP3    H131977   2.717   5.849  16.447  0.2359 -1.0738 -1.0453
 2594TIP3    H231978   2.585   5.920  16.471  1.3281  1.1715 -1.3820
 2595TIP3   OH231979   3.865   5.294  16.339 -0.6283  0.3425  0.2362
 2595TIP3    H131980   3.957   5.293  16.310 -0.7463 -0.2096 -0.1325
 2595TIP3    H231981   3.833   5.381  16.315 -0.5842  0.0681 -0.8639
 2596TIP3   OH231982   5.497   6.073  17.061  0.5059 -0.3144  0.5467
 2596TIP3    H131983   5.588   6.099  17.073  0.2220  0.9590  0.0827
 2596TIP3    H231984   5.447   6.139  17.108 -0.3827  1.9592 -3.2084
 2597TIP3   OH231985   5.513   1.757  16.337 -0.0156  0.2246 -0.1675
 2597TIP3    H131986   5.421   1.746  16.361 -0.2660  1.1814 -0.6387
 2597TIP3    H231987   5.546   1.824  16.397  0.4198 -0.2141  0.0906
 2598TIP3   OH231988   4.925   1.863  18.119 -0.1609  0.0079  0.0021
 2598TIP3    H131989   4.995   1.898  18.064  0.3833  0.4186  0.9154
 2598TIP3    H231990   4.890   1.940  18.164  1.1277 -0.5490  2.1270
 2599TIP3   OH231991   5.242   3.523  17.799  0.2252  0.4623  0.6978
 2599TIP3    H131992   5.199   3.552  17.719 -1.6237  1.3783  1.9520
 2599TIP3    H231993   5.299   3.596  17.824  2.1699 -0.5085 -0.6343
 2600TIP3   OH231994   3.262   0.514  16.111  0.7188  0.0126  0.4314
 2600TIP3    H131995   3.269   0.419  16.108 -1.7977 -0.2575  0.7191
 2600TIP3    H231996   3.203   0.536  16.040 -0.3242  1.1136  1.5812
 2601TIP3   OH231997   4.858   3.315  16.571  0.2341 -0.3480 -0.0590
 2601TIP3    H131998   4.855   3.245  16.506  0.3927 -0.7473  0.3624
 2601TIP3    H231999   4.772   3.358  16.564  0.2532 -0.3827 -0.5331
 2602TIP3   OH232000   0.370   1.686  17.745 -0.4751  0.3535 -0.2966
 2602TIP3    H132001   0.417   1.625  17.688  1.1290  0.2161  1.0938
 2602TIP3    H232002   0.366   1.642  17.830  0.0218  1.8458  0.5312
 2603TIP3   OH232003   2.502   6.605  15.389  0.4903  0.6852 -0.2824
 2603TIP3    H132004   2.584   6.648  15.363  0.0117  1.5574 -0.3754
 2603TIP3    H232005   2.473   6.655  15.466  0.1993  0.1850 -0.0661
 2604TIP3   OH232006   4.667   6.521  16.851  0.4899  0.1452 -0.1603
 2604TIP3    H132007   4.721   6.540  16.928 -0.9956  1.0801  0.7081
 2604TIP3    H232008   4.606   6.595  16.847 -0.8700 -0.9912 -0.9383
 2605TIP3   OH232009   5.894   1.182  17.343 -0.1341  0.1415  0.1046
 2605TIP3    H132010   5.968   1.240  17.325 -0.4351  0.2640 -0.7966
 2605TIP3    H232011   5.927   1.094  17.324 -0.2574  0.2095 -0.4347
 2606TIP3   OH232012   3.436   3.124  17.123 -0.1081  0.9336  0.2491
 2606TIP3    H132013   3.489   3.062  17.072 -0.8194  0.8364 -0.3752
 2606TIP3    H232014   3.468   3.114  17.213 -0.7229 -0.9018  0.2969
 2607TIP3   OH232015   0.748   4.906  17.370 -0.0727 -0.8942 -0.0300
 2607TIP3    H132016   0.735   4.914  17.276  0.8837  0.2540 -0.0863
 2607TIP3    H232017   0.660   4.896  17.406 -0.5079 -0.5220 -0.9787
 2608TIP3   OH232018   1.708   1.659  16.811 -0.2134 -0.0400  0.5157
 2608TIP3    H132019   1.632   1.690  16.762 -0.8846 -0.7783  1.0616
 2608TIP3    H232020   1.775   1.726  16.797 -1.0624  0.7769  0.2780
 2609TIP3   OH232021   4.701   6.531  14.587 -0.3110 -0.1223 -0.2832
 2609TIP3    H132022   4.750   6.452  14.563  0.0557  0.5604 -1.9009
 2609TIP3    H232023   4.762   6.582  14.640  1.0470  1.0054 -2.7849
 2610TIP3   OH232024   5.636   6.402  13.727 -0.3737  0.5721  0.2607
 2610TIP3    H132025   5.575   6.419  13.655  1.7925  0.9324 -1.6268
 2610TIP3    H232026   5.633   6.307  13.739 -1.7794  0.6514  0.7009
 2611TIP3   OH232027   2.777   1.158  16.093  0.2197  0.0553  0.1387
 2611TIP3    H132028   2.869   1.134  16.103  0.3773  0.2298 -0.8517
 2611TIP3    H232029   2.751   1.189  16.180  0.6925 -1.3463  0.8016
 2612TIP3   OH232030   1.320   6.398  15.721  0.4862 -0.2030 -0.2824
 2612TIP3    H132031   1.306   6.304  15.733 -1.8468  0.3318  2.0951
 2612TIP3    H232032   1.339   6.431  15.809  0.1815  1.7056 -0.8768
 2613TIP3   OH232033   0.620   0.466  14.890 -0.4634  0.0707 -0.1699
 2613TIP3    H132034   0.545   0.522  14.872  0.2204  0.5190 -1.9212
 2613TIP3    H232035   0.682   0.486  14.819  0.9279 -0.9359  0.7015
 2614TIP3   OH232036   4.642   0.312  15.559  0.0706  0.3083 -0.5055
 2614TIP3    H132037   4.707   0.243  15.544  0.2680  0.6872 -1.4858
 2614TIP3    H232038   4.688   0.377  15.612 -0.9905 -1.5867  2.9942
 2615TIP3   OH232039   2.730   1.681  17.112  0.3846 -0.8388 -0.3004
 2615TIP3    H132040   2.739   1.660  17.019  1.3993  0.4199 -0.5138
 2615TIP3    H232041   2.653   1.737  17.117  0.9756  0.0145 -0.5623
 2616TIP3   OH232042   5.443   0.912  15.156  0.0302 -0.3362 -0.1253
 2616TIP3    H132043   5.424   0.924  15.249  1.9375 -0.4160  0.3167
 2616TIP3    H232044   5.380   0.968  15.110 -0.7609 -0.1048  1.2124
 2617TIP3   OH232045   2.363   2.146  16.687 -0.3413 -0.1613  0.0620
 2617TIP3    H132046   2.327   2.059  16.670 -3.4920  1.1356 -0.5988
 2617TIP3    H232047   2.435   2.155  16.624  0.0699 -2.2671  0.1691
 2618TIP3   OH232048   0.658   4.320  15.505 -0.3680 -0.3494  0.1845
 2618TIP3    H132049   0.719   4.390  15.483  0.4439 -0.8901  0.6753
 2618TIP3    H232050   0.682   4.247  15.447  0.5937 -1.1503  1.5273
 2619TIP3   OH232051   1.098   0.121  15.050  0.2288  0.0678  0.5849
 2619TIP3    H132052   1.030   0.057  15.030  1.9086 -1.3577 -0.8580
 2619TIP3    H232053   1.135   0.092  15.134  0.6466 -0.5579  0.1862
 2620TIP3   OH232054   1.338   2.618  15.413  0.4761  0.2638  0.1877
 2620TIP3    H132055   1.367   2.655  15.329  0.7392  1.5168  0.8193
 2620TIP3    H232056   1.382   2.671  15.479 -0.5523 -0.0400  1.1399
 2621TIP3   OH232057   2.538   3.494  14.572  0.0457 -0.3941 -0.0310
 2621TIP3    H132058   2.582   3.419  14.532  1.7269 -0.0768  1.1081
 2621TIP3    H232059   2.597   3.568  14.555  0.2642 -0.0460  1.9411
 2622TIP3   OH232060   0.933   6.236  15.464 -0.4706  0.6130  0.4431
 2622TIP3    H132061   0.862   6.192  15.417 -1.3624  1.6201  0.8153
 2622TIP3    H232062   0.903   6.241  15.554  0.7752 -0.3569  0.9479
 2623TIP3   OH232063   4.210   2.299  17.508  0.1355 -0.0711  0.1088
 2623TIP3    H132064   4.272   2.311  17.579 -0.8427 -0.6243  1.0854
 2623TIP3    H232065   4.124   2.297  17.551 -0.6643  1.5965 -1.2853
 2624TIP3   OH232066   5.491   2.088  17.023 -0.0240  0.0878  0.6481
 2624TIP3    H132067   5.429   2.158  17.041  0.4982  1.1271 -1.3348
 2624TIP3    H232068   5.564   2.104  17.083 -0.0615  1.0440  0.4493
 2625TIP3   OH232069   4.782   0.551  17.227 -0.4665  0.0788 -0.6299
 2625TIP3    H132070   4.705   0.609  17.221  0.5277  1.6042  0.6503
 2625TIP3    H232071   4.840   0.582  17.158  0.2785  1.0242  0.3687
 2626TIP3   OH232072   4.011   4.859  15.742  0.3281  0.1064  0.5583
 2626TIP3    H132073   3.969   4.797  15.801  0.3448  0.8315  1.3391
 2626TIP3    H232074   3.940   4.892  15.687  0.5022 -1.4755 -0.6872
 2627TIP3   OH232075   1.300   2.308  15.748 -0.1974 -0.6857 -0.0504
 2627TIP3    H132076   1.252   2.310  15.665 -0.5340 -0.6084  0.1421
 2627TIP3    H232077   1.241   2.263  15.808 -0.7022  0.7735  0.5959
 2628TIP3   OH232078   4.071   2.658  15.627  0.1280 -0.0030  0.9049
 2628TIP3    H132079   4.165   2.662  15.609 -0.1284 -0.7534 -0.8905
 2628TIP3    H232080   4.030   2.687  15.545 -1.2131  0.8532  1.8440
 2629TIP3   OH232081   4.663   1.338  16.340  0.3918  0.2368 -0.3608
 2629TIP3    H132082   4.644   1.426  16.374  2.9012  0.4341  0.7532
 2629TIP3    H232083   4.626   1.280  16.406  1.6868  0.5665  0.7074
 2630TIP3   OH232084   1.384   1.203  17.578  0.5106 -0.6354  0.5966
 2630TIP3    H132085   1.473   1.186  17.607  0.5747 -0.9800  0.2045
 2630TIP3    H232086   1.394   1.265  17.506  0.5604 -1.8841 -0.5004
 2631TIP3   OH232087   1.298   4.503  15.317  0.0650  0.2311 -0.2319
 2631TIP3    H132088   1.299   4.469  15.227 -0.6661 -0.2657 -0.0612
 2631TIP3    H232089   1.291   4.598  15.307 -1.6396  0.0848 -0.7084
 2632TIP3   OH232090   2.535   1.136  17.795  0.0035  0.3216  0.4643
 2632TIP3    H132091   2.624   1.164  17.775 -0.1248  2.1571  2.2077
 2632TIP3    H232092   2.481   1.178  17.728  0.1987  1.3726  0.9513
 2633TIP3   OH232093   2.582   5.692  15.169 -0.1361 -0.0806 -0.0871
 2633TIP3    H132094   2.571   5.785  15.187 -1.6703  0.1548 -1.9488
 2633TIP3    H232095   2.672   5.684  15.137 -0.4469  1.0441 -1.3306
 2634TIP3   OH232096   4.102   4.212  15.789 -0.0397  0.4416  1.0644
 2634TIP3    H132097   4.027   4.172  15.745  0.2950 -0.5324  1.3571
 2634TIP3    H232098   4.067   4.293  15.827 -0.4682  0.9961 -0.4469
 2635TIP3   OH232099   4.600   2.017  16.447  0.7077 -0.7351 -0.1121
 2635TIP3    H132100   4.507   2.013  16.423  0.7539 -0.1053 -0.4162
 2635TIP3    H232101   4.602   1.992  16.539  0.1992 -0.4452 -0.0174
 2636TIP3   OH232102   0.937   0.011  14.142  0.5604  0.2820  0.0350
 2636TIP3    H132103   0.849   0.049  14.136  0.8478  0.6913 -2.5383
 2636TIP3    H232104   0.929  -0.074  14.099  1.3858  0.2211 -0.0063
 2637TIP3   OH232105   2.254   0.494  14.506  0.2270 -0.3607  0.6651
 2637TIP3    H132106   2.214   0.424  14.454 -2.1387  1.2781  0.0750
 2637TIP3    H232107   2.265   0.566  14.443 -2.3844  1.5683  2.2484
 2638TIP3   OH232108   4.936   1.824  14.435  0.5028  0.1870 -0.1645
 2638TIP3    H132109   4.930   1.762  14.363  1.1132 -0.9735  0.7418
 2638TIP3    H232110   5.021   1.867  14.423  0.2841  0.5244 -0.5309
 2639TIP3   OH232111   3.446   2.630  17.174 -0.1473 -0.3319 -0.5235
 2639TIP3    H132112   3.417   2.705  17.123  0.2097  0.3551  0.2665
 2639TIP3    H232113   3.520   2.595  17.124 -0.7738 -0.6242 -1.2768
 2640TIP3   OH232114   3.672   0.011  17.841  0.4453  0.0947  0.2497
 2640TIP3    H132115   3.654   0.104  17.825  1.2234  0.4695  1.3751
 2640TIP3    H232116   3.755   0.011  17.888 -0.1589 -1.0784  1.3824
 2641TIP3   OH232117   0.763   5.411  15.094  0.2662 -0.0027  0.3948
 2641TIP3    H132118   0.779   5.386  15.003  0.7067 -2.6130  1.1154
 2641TIP3    H232119   0.840   5.379  15.141 -1.2005 -1.2672  2.0622
 2642TIP3   OH232120   2.530   3.780  17.460  0.2103  0.0719 -0.0174
 2642TIP3    H132121   2.476   3.834  17.518  0.7540  0.2806  0.3015
 2642TIP3    H232122   2.594   3.842  17.424 -0.5360  0.0958 -1.3806
 2643TIP3   OH232123   4.130   5.131  15.866  0.5691 -0.8723 -0.3868
 2643TIP3    H132124   4.052   5.177  15.896  1.7328  0.5051  0.7443
 2643TIP3    H232125   4.099   5.045  15.838 -1.4217 -0.1287 -0.6372
 2644TIP3   OH232126   4.937   1.148  17.270  0.5363  0.2005  0.0972
 2644TIP3    H132127   4.946   1.098  17.352  1.1692 -0.0204 -0.0964
 2644TIP3    H232128   5.015   1.203  17.268  0.9822 -0.4373 -0.7810
 2645TIP3   OH232129   2.256   3.325  17.620 -1.1757  0.1803 -0.0328
 2645TIP3    H132130   2.284   3.402  17.571 -0.3880  1.6794  2.5557
 2645TIP3    H232131   2.289   3.251  17.570 -1.6664  1.4967 -2.4487
 2646TIP3   OH232132   4.510   1.996  15.670  0.0224  0.4094  0.2659
 2646TIP3    H132133   4.444   2.057  15.703 -1.2811  0.4761 -2.2045
 2646TIP3    H232134   4.471   1.910  15.684 -0.9047  0.4737 -1.7067
 2647TIP3   OH232135   4.755   3.585  15.530 -0.4774 -0.1384 -0.2646
 2647TIP3    H132136   4.734   3.612  15.441  2.3092  0.0040 -0.9504
 2647TIP3    H232137   4.691   3.632  15.585 -2.2872 -0.2832 -2.1194
 2648TIP3   OH232138   0.404   2.675  15.794  0.3088 -0.5666 -0.0265
 2648TIP3    H132139   0.342   2.733  15.748  0.2296 -0.0087  0.7682
 2648TIP3    H232140   0.428   2.723  15.873  0.9059 -1.2633  0.2281
 2649TIP3   OH232141   3.735   3.761  17.362  0.1852  0.6229  0.4755
 2649TIP3    H132142   3.698   3.808  17.436  0.4511  0.0186  1.0055
 2649TIP3    H232143   3.737   3.669  17.391  0.3277  0.3885 -0.2624
 2650TIP3   OH232144   0.555   3.995  17.744  0.1931 -0.0145  0.0529
 2650TIP3    H132145   0.487   4.003  17.676  1.0572  0.5988 -0.7584
 2650TIP3    H232146   0.551   3.904  17.770  0.3418 -0.4520 -1.3640
 2651TIP3   OH232147   4.395   2.595  15.091  0.1357  0.0340 -0.1322
 2651TIP3    H132148   4.485   2.626  15.100  0.4899 -0.4980 -1.5617
 2651TIP3    H232149   4.403   2.504  15.062 -0.8839 -1.4378  3.6564
 2652TIP3   OH232150   3.759   6.508  15.772 -0.5908 -0.0552 -0.2673
 2652TIP3    H132151   3.816   6.448  15.724  0.5415  0.1287  0.7899
 2652TIP3    H232152   3.793   6.506  15.862 -0.8754  1.7393 -0.0927
 2653TIP3   OH232153   1.452   0.431  15.333  0.2236 -0.4499 -0.2005
 2653TIP3    H132154   1.407   0.369  15.390  0.7763  0.1525  0.9373
 2653TIP3    H232155   1.485   0.498  15.393  1.5845 -0.2485 -1.1323
 2654TIP3   OH232156   2.173   2.342  16.687  0.3021  0.6322  0.5540
 2654TIP3    H132157   2.188   2.389  16.605 -1.5387 -0.2570 -0.3731
 2654TIP3    H232158   2.238   2.271  16.687 -0.0542  0.2865 -0.4603
 2655TIP3   OH232159   1.812   2.866  17.992  0.0135  0.4166 -0.4265
 2655TIP3    H132160   1.754   2.800  18.030 -0.2020 -0.1111 -1.6070
 2655TIP3    H232161   1.896   2.852  18.035 -0.4991  0.6120  0.6745
 2656TIP3   OH232162   1.365   2.022  16.235  0.2811  0.1014 -0.7447
 2656TIP3    H132163   1.270   2.035  16.235  0.1218 -0.9371 -1.4531
 2656TIP3    H232164   1.395   2.059  16.152  0.4412  0.0244 -0.7213
 2657TIP3   OH232165   3.005   5.261  16.968 -0.1312  0.0999 -0.7259
 2657TIP3    H132166   3.062   5.241  17.042 -0.5785 -0.4478 -0.5288
 2657TIP3    H232167   2.983   5.176  16.930 -1.5497  0.2246 -0.2487
 2658TIP3   OH232168   5.898   4.529  15.543  0.0005  0.0224 -0.1071
 2658TIP3    H132169   5.881   4.464  15.475 -1.7995  1.1707 -0.8343
 2658TIP3    H232170   5.971   4.581  15.508  1.5176 -1.5740  0.5259
 2659TIP3   OH232171   1.749   4.252  15.548  0.2288  0.4899  0.3234
 2659TIP3    H132172   1.764   4.280  15.638  0.5645  0.8700  0.1528
 2659TIP3    H232173   1.691   4.176  15.555 -0.0789  0.7683  0.8375
 2660TIP3   OH232174   6.391   6.532  16.153 -0.3735 -0.3236 -0.1012
 2660TIP3    H132175   6.363   6.610  16.105 -0.1774 -1.1002 -1.5547
 2660TIP3    H232176   6.480   6.550  16.180 -0.0142 -0.3698 -1.2116
 2661TIP3   OH232177   2.484   1.240  17.207 -0.0521 -0.1185 -0.2078
 2661TIP3    H132178   2.451   1.270  17.122 -1.5857  1.7006  0.9160
 2661TIP3    H232179   2.416   1.181  17.240 -0.1446  0.2725  0.3203
 2662TIP3   OH232180   0.622   0.382  14.454 -0.2063  0.0466 -0.0076
 2662TIP3    H132181   0.627   0.305  14.398 -0.9042  0.3636 -0.5142
 2662TIP3    H232182   0.615   0.456  14.394 -0.3728  0.4405  0.4844
 2663TIP3   OH232183   0.459   5.270  17.559  0.8555 -0.4121 -0.5565
 2663TIP3    H132184   0.509   5.316  17.627  2.5142  0.2834 -2.1513
 2663TIP3    H232185   0.463   5.328  17.483 -2.0086 -0.5883 -0.9475
 2664TIP3   OH232186   6.360   6.539  17.915  0.4900 -0.1357 -0.3501
 2664TIP3    H132187   6.356   6.633  17.933 -0.0468 -0.2624  0.2137
 2664TIP3    H232188   6.454   6.520  17.906  0.7213  0.1314  1.2672
 2665TIP3   OH232189   2.131   4.792  17.291 -0.0547  0.0468  0.0381
 2665TIP3    H132190   2.152   4.830  17.376  1.3085  1.4468 -0.8767
 2665TIP3    H232191   2.159   4.701  17.297 -0.4282  0.0009  1.2359
 2666TIP3   OH232192   2.381   2.328  15.818  0.1455 -0.4381  0.4285
 2666TIP3    H132193   2.452   2.352  15.758 -1.4346 -0.1847 -1.4250
 2666TIP3    H232194   2.354   2.241  15.790 -0.7391 -0.2406  0.6322
 2667TIP3   OH232195   6.634   1.150  17.066 -0.4993  0.1889  0.0187
 2667TIP3    H132196   6.671   1.164  16.979 -0.4585  0.7944  0.1317
 2667TIP3    H232197   6.676   1.070  17.097  0.5496  0.7233  0.0414
 2668TIP3   OH232198   0.909   0.754  15.591 -0.2657  0.0146 -0.2169
 2668TIP3    H132199   0.819   0.739  15.561  0.2872  0.8955 -2.5322
 2668TIP3    H232200   0.963   0.698  15.536  0.5932 -1.3300  1.8803
 2669TIP3   OH232201   6.394   1.448  16.812  0.2714 -0.0615  0.5111
 2669TIP3    H132202   6.458   1.502  16.768  1.4549 -0.9361  1.1098
 2669TIP3    H232203   6.362   1.503  16.884 -0.7218  0.8895 -0.6142
 2670TIP3   OH232204   1.704   4.594  16.372  0.0624  0.5156  0.3907
 2670TIP3    H132205   1.613   4.580  16.344  0.3706  0.0681 -0.4052
 2670TIP3    H232206   1.735   4.664  16.314  0.1588  0.8504  0.8357
 2671TIP3   OH232207   0.702   4.106  16.137  0.0590 -0.5679  0.7759
 2671TIP3    H132208   0.710   4.127  16.044  0.5391  2.2634  1.3676
 2671TIP3    H232209   0.625   4.049  16.142 -1.5457  1.2502 -1.1458
 2672TIP3   OH232210   1.381   0.780  15.328  0.4033 -0.3472 -0.3007
 2672TIP3    H132211   1.346   0.794  15.240  0.0407 -1.0303 -0.2721
 2672TIP3    H232212   1.323   0.829  15.385 -2.1001 -3.3780  0.0196
 2673TIP3   OH232213   3.238   3.671  15.278  0.5772 -0.1768  0.2164
 2673TIP3    H132214   3.270   3.650  15.366 -0.2931 -1.3379  0.2746
 2673TIP3    H232215   3.309   3.643  15.220  0.8581 -0.0730  0.5070
 2674TIP3   OH232216   6.722   0.188  16.280 -0.3825  0.1614 -0.0339
 2674TIP3    H132217   6.788   0.238  16.328 -0.7873  0.2626  0.4320
 2674TIP3    H232218   6.687   0.250  16.216  1.1850 -0.3943 -1.4913
 2675TIP3   OH232219   5.994   0.884  16.385 -0.9022 -0.6978 -0.3751
 2675TIP3    H132220   5.902   0.906  16.396 -0.5017  0.3925  1.0102
 2675TIP3    H232221   6.041   0.954  16.429  0.6028 -1.2799 -0.9925
 2676TIP3   OH232222   1.595   6.699  17.811 -0.1737  0.2462  0.6160
 2676TIP3    H132223   1.673   6.669  17.765 -0.7403 -0.3225 -0.0002
 2676TIP3    H232224   1.618   6.785  17.845  1.2098 -0.5117  1.6875
 2677TIP3   OH232225   1.090   2.836  16.767  0.0567 -0.3626 -0.0794
 2677TIP3    H132226   1.041   2.786  16.703  1.2899  1.7459 -2.8581
 2677TIP3    H232227   1.159   2.777  16.797 -1.0062 -1.6248 -0.0451
 2678TIP3   OH232228   5.771   3.132  14.678 -0.5410 -0.2262  0.0231
 2678TIP3    H132229   5.805   3.130  14.768 -0.7066  0.4443  0.0994
 2678TIP3    H232230   5.707   3.061  14.676  1.5637 -2.2726 -0.4316
 2679TIP3   OH232231   5.623   2.677  17.862 -0.1806  0.0939 -0.0313
 2679TIP3    H132232   5.653   2.767  17.846 -0.2896  0.5042  1.8147
 2679TIP3    H232233   5.695   2.636  17.908  0.4061 -1.2339 -2.0175
 2680TIP3   OH232234   1.678   3.555  16.480 -0.7180  0.2740  0.3163
 2680TIP3    H132235   1.633   3.492  16.536  1.3195 -1.9114 -0.3737
 2680TIP3    H232236   1.643   3.640  16.508 -2.0304 -0.9498  2.7482
 2681TIP3   OH232237   4.778   1.290  15.764  0.1544 -0.2940 -0.5943
 2681TIP3    H132238   4.815   1.231  15.830  0.6707  2.9396  2.2863
 2681TIP3    H232239   4.851   1.347  15.740 -0.6019 -0.0404 -2.3818
 2682TIP3   OH232240   0.606   0.830  15.244 -0.0873 -0.5954  0.2513
 2682TIP3    H132241   0.632   0.884  15.318 -1.5164 -0.2146  0.5090
 2682TIP3    H232242   0.517   0.859  15.223 -0.5506 -2.2073 -0.1847
 2683TIP3   OH232243   1.791   4.817  15.017  0.0311  0.4480 -0.2955
 2683TIP3    H132244   1.799   4.905  14.981  0.5858  0.7094  0.4434
 2683TIP3    H232245   1.697   4.805  15.031 -0.2184  0.2736 -1.9420
 2684TIP3   OH232246   3.942   6.233  16.103  0.3489 -0.0292 -0.1283
 2684TIP3    H132247   3.887   6.301  16.064 -0.8882 -0.6591  0.4620
 2684TIP3    H232248   4.020   6.280  16.135 -1.2123  1.4414  1.7859
 2685TIP3   OH232249   6.194   5.521  15.553  0.6191 -0.1588  0.0105
 2685TIP3    H132250   6.287   5.533  15.537  0.6952 -1.3313 -0.5285
 2685TIP3    H232251   6.173   5.437  15.513 -0.1106 -1.2204  2.4501
 2686TIP3   OH232252   4.608   2.271  15.138  0.6307 -0.6980  0.4175
 2686TIP3    H132253   4.526   2.305  15.101  1.9557  0.5085 -1.6069
 2686TIP3    H232254   4.674   2.336  15.113  2.6190 -2.7928 -0.0921
 2687TIP3   OH232255   1.418   1.907  15.782  0.0966 -0.5785 -0.2126
 2687TIP3    H132256   1.338   1.856  15.771 -1.0637  0.9848  0.5422
 2687TIP3    H232257   1.423   1.963  15.705 -0.1701  0.1120  0.2553
 2688TIP3   OH232258   1.836   4.764  17.546 -0.0715  0.2740 -0.2161
 2688TIP3    H132259   1.876   4.677  17.549 -0.9104 -0.1154  0.0083
 2688TIP3    H232260   1.855   4.802  17.632  0.9386  0.6208 -0.5786
 2689TIP3   OH232261   4.220   0.325  14.993  0.2817 -0.3049 -0.0086
 2689TIP3    H132262   4.262   0.348  14.910  0.0401 -0.1799 -0.0949
 2689TIP3    H232263   4.280   0.262  15.032  0.2875 -0.5383 -0.3816
 2690TIP3   OH232264   4.476   6.537  16.046  0.1346  0.1783  0.0131
 2690TIP3    H132265   4.468   6.495  15.961  1.5570 -0.6078  0.2254
 2690TIP3    H232266   4.417   6.612  16.042 -0.3008 -0.2094 -1.4226
 2691TIP3   OH232267   6.515   4.621  17.686  0.2732  0.6911 -0.0157
 2691TIP3    H132268   6.441   4.680  17.702 -0.0958 -0.1403  1.5109
 2691TIP3    H232269   6.503   4.592  17.595 -1.2910  0.5523  0.2069
 2692TIP3   OH232270   2.819   3.723  15.410  0.3459 -0.0029  0.0945
 2692TIP3    H132271   2.726   3.744  15.420  0.1187 -0.1639 -1.5023
 2692TIP3    H232272   2.865   3.798  15.449 -0.4611  0.7214 -0.3248
 2693TIP3   OH232273   0.573   3.166  16.135 -0.1815  0.2581  0.3485
 2693TIP3    H132274   0.663   3.195  16.148  0.4338 -1.2381 -0.2501
 2693TIP3    H232275   0.547   3.131  16.220 -0.1442  0.5711  0.4883
 2694TIP3   OH232276   3.470   5.023  14.912  0.0135 -0.4036 -0.0916
 2694TIP3    H132277   3.546   5.063  14.954  0.0626  0.0809 -0.6381
 2694TIP3    H232278   3.485   5.036  14.818 -0.2900 -1.1246 -0.2446
 2695TIP3   OH232279   0.539   1.955  16.640 -0.2838 -0.5817  0.0318
 2695TIP3    H132280   0.537   1.898  16.563 -1.8635  0.8731 -1.0803
 2695TIP3    H232281   0.480   2.027  16.618  1.2861  1.2816  1.5394
 2696TIP3   OH232282   3.911   4.312  18.000 -0.2387  0.2098  0.3160
 2696TIP3    H132283   3.958   4.268  18.070  1.3072 -0.5976 -1.1447
 2696TIP3    H232284   3.829   4.264  17.991  0.3309 -0.8001  0.3980
 2697TIP3   OH232285   5.244   5.293  15.070 -0.0867  0.3245  0.1951
 2697TIP3    H132286   5.297   5.233  15.018  0.2396 -0.0892  0.9898
 2697TIP3    H232287   5.297   5.311  15.148 -0.2173  1.5698  0.0150
 2698TIP3   OH232288   5.560   6.240  14.024  0.1459  0.1840  0.3499
 2698TIP3    H132289   5.643   6.266  14.063 -0.5749  1.3952  1.1037
 2698TIP3    H232290   5.584   6.200  13.940  1.5467 -0.4538  1.0294
 2699TIP3   OH232291   4.061   4.527  15.619 -0.5557 -0.2902  0.0982
 2699TIP3    H132292   4.102   4.503  15.535  0.5420  0.6138  0.3465
 2699TIP3    H232293   4.130   4.512  15.684 -0.0366  2.5710  0.3649
 2700TIP3   OH232294   3.999   2.234  16.903 -0.2934  0.7152 -0.1348
 2700TIP3    H132295   3.940   2.277  16.840 -0.2083  1.4309  0.2704
 2700TIP3    H232296   4.058   2.303  16.932  0.3074  0.1534 -0.0139
 2701TIP3   OH232297   4.031   1.007  16.623  0.5112  0.1378 -0.3854
 2701TIP3    H132298   3.938   1.012  16.600  0.5417  0.8933 -0.3575
 2701TIP3    H232299   4.042   0.918  16.657 -0.4130  0.3355  0.4861
 2702TIP3   OH232300   5.084   1.998  17.268 -0.1976 -0.2739  0.0241
 2702TIP3    H132301   5.087   1.926  17.331  0.7596 -0.1065  0.1970
 2702TIP3    H232302   5.130   1.965  17.191 -1.2494 -0.4329 -0.5555
 2703TIP3   OH232303   5.993   5.667  17.221 -0.1064 -0.2886  0.1488
 2703TIP3    H132304   6.029   5.728  17.157 -0.3134 -0.4259 -0.1047
 2703TIP3    H232305   5.941   5.722  17.280  0.0613 -0.1642  0.1817
 2704TIP3   OH232306   0.417   3.713  17.331 -0.3160 -0.5035 -0.2976
 2704TIP3    H132307   0.510   3.710  17.311 -0.8749  1.6747 -4.1042
 2704TIP3    H232308   0.380   3.638  17.283 -0.5904 -1.3208  1.1386
 2705TIP3   OH232309   4.608   3.404  15.285 -0.5919  0.0053 -0.5995
 2705TIP3    H132310   4.624   3.498  15.282  0.6353 -0.0975  1.0107
 2705TIP3    H232311   4.693   3.364  15.264 -0.5244 -0.6825  0.8245
 2706TIP3   OH232312   0.303   6.021  18.283 -0.3829  0.2019 -0.1159
 2706TIP3    H132313   0.278   6.114  18.286 -1.0723  0.0110  0.1579
 2706TIP3    H232314   0.225   5.976  18.251  0.3280 -0.1553 -1.4306
 2707TIP3   OH232315   2.585   0.825  17.621 -0.1456 -0.1007 -0.1907
 2707TIP3    H132316   2.618   0.785  17.541  0.9860  0.6302 -0.1054
 2707TIP3    H232317   2.656   0.814  17.685 -1.4194 -1.6265  1.0555
 2708TIP3   OH232318   5.558   4.871  15.870  0.0859 -0.1943  0.4938
 2708TIP3    H132319   5.548   4.777  15.882  0.0422 -0.1626  0.6993
 2708TIP3    H232320   5.631   4.896  15.926 -0.2954 -0.0021  0.9097
 2709TIP3   OH232321   3.553   5.776  16.347 -0.0348 -0.0267  0.4374
 2709TIP3    H132322   3.547   5.683  16.366  0.7351 -0.1878 -0.0390
 2709TIP3    H232323   3.621   5.782  16.279 -3.0628  0.3730 -2.9056
 2710TIP3   OH232324   1.577   5.546  17.401  0.2476 -0.2090  0.0623
 2710TIP3    H132325   1.621   5.513  17.479  1.4213  1.7737  0.3144
 2710TIP3    H232326   1.631   5.515  17.328  0.2577 -0.4264  0.1621
 2711TIP3   OH232327   3.777   4.767  17.690  0.1474 -0.1060  0.2885
 2711TIP3    H132328   3.801   4.701  17.755 -0.5691 -0.0742  0.5964
 2711TIP3    H232329   3.733   4.718  17.621  2.4671 -0.4005 -1.0712
 2712TIP3   OH232330   4.986   4.829  16.314 -0.2696 -0.0843  0.3025
 2712TIP3    H132331   4.912   4.820  16.254 -0.5695  1.7709  0.3225
 2712TIP3    H232332   5.029   4.744  16.312 -2.1109 -1.0627 -0.0892
 2713TIP3   OH232333   4.222   2.926  15.681  0.1010 -0.0703  0.4587
 2713TIP3    H132334   4.137   2.952  15.716  0.4551  0.4277  0.9600
 2713TIP3    H232335   4.282   2.992  15.713  0.4165  0.5007 -1.2154
 2714TIP3   OH232336   6.651   4.037  16.445  0.5108 -0.4028 -0.1511
 2714TIP3    H132337   6.728   4.025  16.388  0.5448 -0.7511 -0.0356
 2714TIP3    H232338   6.688   4.068  16.528  0.3501  1.5185 -0.7371
 2715TIP3   OH232339   4.632   0.081  14.921  0.7156 -0.2959 -0.3847
 2715TIP3    H132340   4.722   0.106  14.902  1.0142 -0.0696  1.1976
 2715TIP3    H232341   4.638  -0.002  14.967  0.1674 -0.0560  0.1486
 2716TIP3   OH232342   2.581   4.736  16.001  0.4238 -0.1311 -0.1845
 2716TIP3    H132343   2.615   4.824  15.988  0.8061 -0.2822 -0.2422
 2716TIP3    H232344   2.488   4.748  16.022 -0.7731  0.1070 -4.6209
 2717TIP3   OH232345   0.889   3.392  17.252 -0.2709  0.4683  0.1851
 2717TIP3    H132346   0.975   3.383  17.294 -0.4290 -0.9037  0.2832
 2717TIP3    H232347   0.890   3.478  17.211  0.1447  1.5743  2.4199
 2718TIP3   OH232348   0.096   6.515  16.753 -0.6346 -0.0610 -0.1276
 2718TIP3    H132349   0.090   6.507  16.657  1.5566  0.9283 -0.4090
 2718TIP3    H232350   0.143   6.437  16.781 -1.1587 -0.2859  0.1261
 2719TIP3   OH232351   1.133   3.280  15.333  0.6669 -0.0640 -0.0618
 2719TIP3    H132352   1.039   3.276  15.319  0.1922  1.1273  2.3159
 2719TIP3    H232353   1.155   3.373  15.319  1.3570 -0.1854  0.1653
 2720TIP3   OH232354   0.473   1.069  16.152  0.5417 -0.2825 -0.3671
 2720TIP3    H132355   0.538   1.117  16.204  0.5056  0.3734 -0.9228
 2720TIP3    H232356   0.421   1.137  16.110  0.3026 -0.8119 -0.9352
 2721TIP3   OH232357   3.640   0.580  16.924 -0.8810  0.0500  0.2662
 2721TIP3    H132358   3.610   0.489  16.917  2.4171 -1.1613  0.2370
 2721TIP3    H232359   3.620   0.605  17.014  0.5127 -1.7052  1.1288
 2722TIP3   OH232360   0.842   0.437  15.572 -0.0470 -0.4286  0.2368
 2722TIP3    H132361   0.787   0.509  15.542  0.7957  0.1356  0.0108
 2722TIP3    H232362   0.799   0.358  15.540 -1.1556 -0.0558  0.7595
 2723TIP3   OH232363   1.806   5.969  16.173 -0.1467  0.1004 -0.1213
 2723TIP3    H132364   1.744   5.898  16.157  2.1364 -1.8968 -0.7886
 2723TIP3    H232365   1.796   6.028  16.098 -1.3259 -0.0709 -0.1152
 2724TIP3   OH232366   5.849   2.817  17.696 -0.1203  0.1885  0.1697
 2724TIP3    H132367   5.920   2.812  17.632  0.4526  2.6456  0.5090
 2724TIP3    H232368   5.772   2.840  17.644  0.0027  0.5991  0.1676
 2725TIP3   OH232369   2.712   2.485  16.020  0.4722 -0.4713  0.0264
 2725TIP3    H132370   2.722   2.539  15.942  0.3587 -1.0881 -0.4205
 2725TIP3    H232371   2.756   2.403  15.998  2.4510  0.1359  1.4256
 2726TIP3   OH232372   0.787   5.323  15.516 -0.6850  0.2546 -0.0769
 2726TIP3    H132373   0.879   5.308  15.490  0.1732  0.1400  2.7200
 2726TIP3    H232374   0.754   5.236  15.539 -1.2951  0.3867 -0.4342
 2727TIP3   OH232375   2.935   1.624  17.774 -0.7495  0.2308  0.7865
 2727TIP3    H132376   2.844   1.630  17.804 -0.7878  0.9188  0.5548
 2727TIP3    H232377   2.930   1.643  17.680 -0.2080  1.8309  1.0404
 2728TIP3   OH232378   4.282   5.817  16.295 -0.1021 -0.4011  0.6147
 2728TIP3    H132379   4.341   5.774  16.234  0.5152 -0.6031  1.3514
 2728TIP3    H232380   4.292   5.910  16.276  1.1772 -0.3621  1.3672
 2729TIP3   OH232381   5.328   3.629  15.897  0.2468  0.5106  0.2555
 2729TIP3    H132382   5.257   3.623  15.833 -1.0337 -5.0275  1.7008
 2729TIP3    H232383   5.406   3.604  15.847  0.0945  0.7187 -0.0925
 2730TIP3   OH232384   2.647   3.028  16.945  0.8948 -0.1892 -0.6581
 2730TIP3    H132385   2.619   2.994  17.030  1.1950  0.1692 -0.4140
 2730TIP3    H232386   2.589   2.986  16.882 -0.4421  0.7988 -0.1410
 2731TIP3   OH232387   6.241   3.802  17.782  0.4707 -0.1060 -0.1208
 2731TIP3    H132388   6.290   3.779  17.703  0.4694 -0.8513  0.0802
 2731TIP3    H232389   6.307   3.807  17.851  0.5834  1.3509 -0.3044
 2732TIP3   OH232390   6.560   3.919  17.085  0.3966 -0.8129  0.1706
 2732TIP3    H132391   6.524   4.006  17.101  1.3176 -0.6847  1.7888
 2732TIP3    H232392   6.572   3.882  17.172  0.9100 -2.1857 -0.4615
 2733TIP3   OH232393   2.929   3.555  15.889 -0.5273 -0.2097 -0.2084
 2733TIP3    H132394   2.837   3.564  15.866 -0.0830  1.2936 -1.6721
 2733TIP3    H232395   2.962   3.645  15.890  0.8747 -0.6945  0.5535
 2734TIP3   OH232396   2.268   5.403  17.005 -0.6169  0.5500 -0.0587
 2734TIP3    H132397   2.260   5.485  16.956 -0.5208  0.5646 -0.0526
 2734TIP3    H232398   2.200   5.347  16.970 -0.7166  0.6517 -0.0290
 2735TIP3   OH232399   0.026   4.352  15.463  0.1014  0.4825  0.0860
 2735TIP3    H132400   0.081   4.304  15.524 -0.9872 -2.3902 -1.0499
 2735TIP3    H232401   0.053   4.322  15.377 -0.8430  1.7196 -0.6806
 2736TIP3   OH232402   0.545   2.182  16.867 -0.1009  0.2354  0.4382
 2736TIP3    H132403   0.603   2.236  16.920 -0.4716  1.3922 -0.2910
 2736TIP3    H232404   0.512   2.241  16.799 -0.1354 -1.0403 -0.7022
 2737TIP3   OH232405   6.347   2.385  17.448  0.0611  0.1104 -0.0410
 2737TIP3    H132406   6.340   2.350  17.359 -3.2282  0.0800  0.0760
 2737TIP3    H232407   6.275   2.342  17.495  0.2567  1.8473  1.9863
 2738TIP3   OH232408   6.699   6.339  16.204 -0.3543  0.0052  0.0549
 2738TIP3    H132409   6.684   6.432  16.187  2.5224  0.4217 -0.7961
 2738TIP3    H232410   6.693   6.297  16.118 -1.3373 -0.5756  0.3921
 2739TIP3   OH232411   3.597   4.350  17.573  0.0693  0.2614  0.4003
 2739TIP3    H132412   3.601   4.442  17.596  2.4853  0.1841  0.6098
 2739TIP3    H232413   3.681   4.333  17.528 -0.3372 -1.8023  0.3066
 2740TIP3   OH232414   2.872   1.925  15.137  0.6711  0.8864 -0.2071
 2740TIP3    H132415   2.889   2.019  15.136  0.4921  0.9606  1.4876
 2740TIP3    H232416   2.956   1.886  15.160  0.9239  0.5640 -1.6116
 2741TIP3   OH232417   2.412   2.759  15.115  0.1577 -0.0634  0.1895
 2741TIP3    H132418   2.483   2.763  15.180 -0.2737 -0.2858  0.6827
 2741TIP3    H232419   2.456   2.775  15.032  0.7213  0.2506  0.5344
 2742TIP3   OH232420   6.444   1.158  16.422  0.2838 -0.1301  0.0312
 2742TIP3    H132421   6.354   1.186  16.440  0.0276 -1.5768  1.2869
 2742TIP3    H232422   6.442   1.127  16.332 -0.3631  0.2723 -0.0994
 2743TIP3   OH232423   0.769   4.804  17.980  0.0386 -0.0035  0.0610
 2743TIP3    H132424   0.794   4.895  17.990 -0.3792  0.1311 -0.0817
 2743TIP3    H232425   0.673   4.806  17.973 -0.0051 -0.4900  0.4617
 2744TIP3   OH232426   4.895   0.560  17.485 -0.3854  0.0501 -0.2620
 2744TIP3    H132427   4.868   0.649  17.508  0.3967 -0.0313  1.0992
 2744TIP3    H232428   4.844   0.539  17.406 -1.2860  1.3342 -0.0613
 2745TIP3   OH232429   3.959   6.315  14.352 -0.5763  0.1036  0.2676
 2745TIP3    H132430   4.002   6.388  14.306 -1.6959 -0.1066 -1.1906
 2745TIP3    H232431   3.867   6.324  14.329 -1.0554 -0.5337  1.8327
 2746TIP3   OH232432   0.183   2.839  15.770 -0.3479 -0.3161  0.1500
 2746TIP3    H132433   0.245   2.899  15.810 -0.6215 -0.0657  0.1992
 2746TIP3    H232434   0.148   2.887  15.695 -1.2485 -0.0586  0.7193
 2747TIP3   OH232435   5.989   0.088  14.764  0.3967 -0.6990 -0.7361
 2747TIP3    H132436   5.896   0.065  14.756  0.3281 -0.9453  0.5230
 2747TIP3    H232437   6.011   0.065  14.854  1.0434  1.6379 -0.2378
 2748TIP3   OH232438   2.827   6.655  14.102 -0.2924  0.3665  0.0702
 2748TIP3    H132439   2.872   6.676  14.020 -0.0804 -0.7121 -0.1055
 2748TIP3    H232440   2.739   6.630  14.075 -0.2035 -0.0511  0.1486
 2749TIP3   OH232441   1.198   0.069  14.174 -0.3769  0.0207 -0.7179
 2749TIP3    H132442   1.102   0.060  14.169 -0.3481  0.1283 -1.6739
 2749TIP3    H232443   1.230  -0.021  14.173 -0.4408  0.0005 -1.1935
 2750TIP3   OH232444   4.726   4.191  16.798 -0.4853 -0.1970 -0.0864
 2750TIP3    H132445   4.793   4.134  16.836  1.3756  0.5446 -2.0596
 2750TIP3    H232446   4.716   4.262  16.860  0.7521 -0.2032  0.1370
 2751TIP3   OH232447   5.323   5.444  15.832  0.3935 -0.0728  0.0416
 2751TIP3    H132448   5.325   5.539  15.823  0.1378  0.0509  1.1772
 2751TIP3    H232449   5.398   5.424  15.888 -1.5921 -0.1351  2.8869
 2752TIP3   OH232450   3.672   3.898  15.761  0.3878 -0.3880  0.2046
 2752TIP3    H132451   3.711   3.818  15.796  0.8259 -0.5240 -0.5595
 2752TIP3    H232452   3.719   3.913  15.678  0.5573  0.8601  0.5107
 2753TIP3   OH232453   5.566   1.139  15.301  0.3553 -0.1898 -0.2294
 2753TIP3    H132454   5.547   1.085  15.378 -1.5230  0.4430 -0.1965
 2753TIP3    H232455   5.614   1.214  15.336  0.1293 -0.2525  0.2314
 2754TIP3   OH232456   6.323   6.255  16.215  0.0214  0.0431 -0.0104
 2754TIP3    H132457   6.343   6.348  16.221 -3.1345  0.7558  1.3666
 2754TIP3    H232458   6.261   6.239  16.287 -0.1698 -2.9463 -0.7078
 2755TIP3   OH232459   2.708   1.154  15.037 -0.4476  0.2919  0.3247
 2755TIP3    H132460   2.706   1.062  15.064  1.5311 -0.0297 -0.4711
 2755TIP3    H232461   2.799   1.182  15.053 -0.6559  1.7087 -0.7547
 2756TIP3   OH232462   2.714   0.413  15.648  0.3185  0.1952  0.1164
 2756TIP3    H132463   2.776   0.465  15.700 -0.0117  1.4208 -0.6598
 2756TIP3    H232464   2.723   0.448  15.559 -0.9023 -0.1542 -0.1608
 2757TIP3   OH232465   2.605   2.433  15.674  0.7099  0.5779 -0.1250
 2757TIP3    H132466   2.682   2.489  15.689 -0.4394  1.9809  0.7890
 2757TIP3    H232467   2.564   2.471  15.596  0.2292  0.6760  0.1734
 2758TIP3   OH232468   0.882   5.483  17.089 -0.7931 -0.1085 -0.4188
 2758TIP3    H132469   0.799   5.504  17.132 -1.1506 -3.4063  0.8081
 2758TIP3    H232470   0.862   5.406  17.035  0.9498  0.5392 -2.0714
 2759TIP3   OH232471   5.197   0.282  17.142  0.0871 -0.1227  0.1107
 2759TIP3    H132472   5.115   0.271  17.191 -1.2389  2.6768 -1.2121
 2759TIP3    H232473   5.244   0.350  17.189  0.2148  0.4067 -0.7511
 2760TIP3   OH232474   5.121   5.640  16.073  0.0908  0.0819 -0.0383
 2760TIP3    H132475   5.111   5.558  16.025 -0.2838 -0.2185  0.5382
 2760TIP3    H232476   5.191   5.687  16.027 -1.0169  0.3213 -1.5585
 2761TIP3   OH232477   0.736   5.906  16.434 -0.1718 -0.3245 -0.6448
 2761TIP3    H132478   0.680   5.850  16.381 -1.4561  0.6929 -0.4114
 2761TIP3    H232479   0.682   5.983  16.453  2.0359  1.8207 -2.3681
 2762TIP3   OH232480   1.427   4.922  18.118 -0.0434  0.2353 -0.3900
 2762TIP3    H132481   1.478   4.914  18.198 -1.8456 -4.3652  0.6093
 2762TIP3    H232482   1.372   5.000  18.132  0.1157 -0.0894  2.6238
 2763TIP3   OH232483   4.484   3.532  16.487 -0.2335  0.0845  0.2010
 2763TIP3    H132484   4.564   3.578  16.458 -0.3774 -0.3115 -0.8594
 2763TIP3    H232485   4.508   3.440  16.486  0.0487  0.0946  2.3224
 2764TIP3   OH232486   1.571   4.578  15.299 -0.3387 -0.0801 -0.2943
 2764TIP3    H132487   1.486   4.548  15.334 -0.9050  0.8397 -0.8514
 2764TIP3    H232488   1.617   4.613  15.375 -0.2074 -1.1221  0.1222
 2765TIP3   OH232489   2.907   0.861  16.051 -0.3066 -0.0643 -0.3679
 2765TIP3    H132490   2.901   0.956  16.051 -1.2922 -0.1123 -0.7490
 2765TIP3    H232491   2.826   0.832  16.009  0.3296 -1.0512 -0.9616
 2766TIP3   OH232492   4.161   1.730  18.055  0.0143  0.0376  0.2688
 2766TIP3    H132493   4.252   1.746  18.078 -0.2623 -0.1124  1.5290
 2766TIP3    H232494   4.121   1.818  18.055  0.3130  0.1970 -1.0831
 2767TIP3   OH232495   0.518   4.832  17.497  0.4469  0.4528 -0.0364
 2767TIP3    H132496   0.457   4.772  17.454 -1.0819  0.4688  1.9316
 2767TIP3    H232497   0.461   4.894  17.543  1.9624  0.8999  1.3340
 2768TIP3   OH232498   1.613   1.599  16.056 -1.0338  0.0710 -0.3152
 2768TIP3    H132499   1.704   1.603  16.086 -1.7833  0.6608  2.1034
 2768TIP3    H232500   1.618   1.616  15.962  1.2965  0.6782 -0.1427
 2769TIP3   OH232501   2.432   2.297  16.360  0.1266  0.2480  0.5153
 2769TIP3    H132502   2.450   2.305  16.266  0.6994  0.3164  0.6295
 2769TIP3    H232503   2.489   2.226  16.390 -1.4147 -1.0645  0.4597
 2770TIP3   OH232504   3.045   5.436  17.355  0.0224 -0.6079 -0.1847
 2770TIP3    H132505   3.134   5.437  17.318 -0.2591 -1.0988 -0.8872
 2770TIP3    H232506   3.012   5.348  17.336 -0.6729 -0.3791 -0.0624
 2771TIP3   OH232507   5.520   4.585  16.007 -0.6664  0.0125 -0.0507
 2771TIP3    H132508   5.604   4.541  15.992  0.6919  2.4656 -0.1478
 2771TIP3    H232509   5.517   4.599  16.102 -0.9405 -0.0345 -0.0523
 2772TIP3   OH232510   5.537   0.682  17.173  0.0974  0.2971  0.0865
 2772TIP3    H132511   5.448   0.713  17.159 -0.1424  0.8903  2.5435
 2772TIP3    H232512   5.581   0.755  17.217  1.8290  0.0190 -1.0749
 2773TIP3   OH232513   4.781   3.511  16.886  0.3597  0.0278 -0.0489
 2773TIP3    H132514   4.756   3.603  16.898  1.3737  0.0480  2.5983
 2773TIP3    H232515   4.700   3.462  16.896  0.2942  0.4747  2.2377
 2774TIP3   OH232516   0.114   6.431  15.929 -0.4527  0.4466  0.3904
 2774TIP3    H132517   0.198   6.419  15.885 -0.8476  1.2165 -0.6126
 2774TIP3    H232518   0.126   6.509  15.983 -0.1679 -0.1265  1.1710
 2775TIP3   OH232519   3.347   1.437  16.910  0.3753  0.6422 -0.0028
 2775TIP3    H132520   3.276   1.376  16.893 -1.2836  1.8445  2.0605
 2775TIP3    H232521   3.396   1.398  16.982  0.0569  1.1495  0.4961
 2776TIP3   OH232522   5.296   2.239  18.055  0.1288  0.7165  0.0302
 2776TIP3    H132523   5.212   2.229  18.100  0.3901 -2.0838  0.0651
 2776TIP3    H232524   5.278   2.212  17.965  0.9121  0.3352 -0.0194
 2777TIP3   OH232525   2.520   6.420  14.468  0.1511  0.6344 -0.2464
 2777TIP3    H132526   2.584   6.380  14.410 -0.4569 -0.1746 -0.3765
 2777TIP3    H232527   2.513   6.510  14.437 -0.1548  0.2272 -1.4404
 2778TIP3   OH232528   2.373   2.138  17.856  0.8336 -0.1673  0.1125
 2778TIP3    H132529   2.306   2.140  17.923  0.7933 -1.8914  0.1741
 2778TIP3    H232530   2.425   2.217  17.871 -0.5163  0.6341  0.7266
 2779TIP3   OH232531   4.887   3.409  17.573 -0.3554  0.1664 -0.3907
 2779TIP3    H132532   4.796   3.429  17.595 -0.7788  0.0912 -1.9310
 2779TIP3    H232533   4.881   3.354  17.494  1.0237 -0.0025 -0.4084
 2780TIP3   OH232534   5.119   0.365  16.759  0.7427  0.8528 -0.2919
 2780TIP3    H132535   5.183   0.295  16.745 -0.3830 -0.4709  0.9560
 2780TIP3    H232536   5.078   0.377  16.674  0.1534 -0.8357 -0.2777
 2781TIP3   OH232537   1.374   2.085  17.182 -0.0445  0.3804 -0.2508
 2781TIP3    H132538   1.447   2.145  17.163  1.2006 -1.1923 -0.6852
 2781TIP3    H232539   1.417   2.003  17.207 -1.6826  0.1640  2.1622
 2782TIP3   OH232540   0.003   2.602  16.191  0.3460 -0.2996  0.0984
 2782TIP3    H132541   0.072   2.646  16.141 -0.0020  0.5906  0.3847
 2782TIP3    H232542   0.000   2.649  16.275  0.1372 -1.0360  0.5142
 2783TIP3   OH232543   3.410   3.604  16.677  0.0565 -0.1919  0.5628
 2783TIP3    H132544   3.452   3.581  16.759 -0.1993 -0.1757  0.7004
 2783TIP3    H232545   3.443   3.539  16.614  1.5388  0.7834  0.2807
 2784TIP3   OH232546   5.264   5.868  15.446 -0.5444  0.2897  0.6958
 2784TIP3    H132547   5.310   5.951  15.455  1.0184 -0.6068  1.4353
 2784TIP3    H232548   5.208   5.864  15.523 -0.5261  0.6047  0.7275
 2785TIP3   OH232549   0.749   2.826  16.072  0.0256  0.1606 -0.5207
 2785TIP3    H132550   0.807   2.860  16.003 -1.3470  0.8194 -1.3977
 2785TIP3    H232551   0.775   2.875  16.150  2.0070 -1.0149 -0.3629
 2786TIP3   OH232552   3.582   6.295  16.406  0.5673  0.0093  0.3086
 2786TIP3    H132553   3.523   6.368  16.387  0.5931 -0.0448  0.0213
 2786TIP3    H232554   3.551   6.223  16.351  0.6966 -0.1205  0.4033
 2787TIP3   OH232555   4.260   3.328  14.910 -0.5286  0.0443 -0.1993
 2787TIP3    H132556   4.317   3.269  14.860  1.7252 -0.6927  2.8936
 2787TIP3    H232557   4.309   3.410  14.914 -0.8780  0.2237  0.4271
 2788TIP3   OH232558   3.104   3.617  16.515 -0.4555 -0.1934  0.2641
 2788TIP3    H132559   3.109   3.582  16.604  0.3774  0.8170  0.6373
 2788TIP3    H232560   3.150   3.552  16.462 -0.0555 -0.3055  0.7390
 2789TIP3   OH232561   4.956   4.532  16.486  0.2943 -0.4482  0.0624
 2789TIP3    H132562   4.871   4.526  16.441 -0.2411  0.2980  0.9489
 2789TIP3    H232563   5.020   4.524  16.415 -0.5251  1.2373 -0.9472
 2790TIP3   OH232564   5.372   4.638  16.506 -0.1112  0.0141 -0.3710
 2790TIP3    H132565   5.318   4.688  16.568  0.2310  0.2622 -0.2711
 2790TIP3    H232566   5.395   4.559  16.554  0.9965  0.6615  0.1990
 2791TIP3   OH232567   1.506   4.495  17.662 -0.8925 -0.2127 -0.4454
 2791TIP3    H132568   1.521   4.587  17.685  1.2525 -0.5517 -0.2764
 2791TIP3    H232569   1.429   4.470  17.714 -0.0467  0.8121  1.4118
 2792TIP3   OH232570   2.148   5.459  16.389  0.1751  0.5404  0.2527
 2792TIP3    H132571   2.107   5.545  16.388  1.9663  1.4375  0.2982
 2792TIP3    H232572   2.120   5.420  16.472 -2.9796 -0.1650 -1.0235
 2793TIP3   OH232573   4.486   6.555  17.286 -0.9087 -0.7218  0.0810
 2793TIP3    H132574   4.559   6.493  17.280 -0.7798 -0.4855 -1.1655
 2793TIP3    H232575   4.520   6.626  17.339  0.5847  0.3797 -2.1726
 2794TIP3   OH232576   5.503   5.441  14.984 -0.3097  0.8644 -0.4725
 2794TIP3    H132577   5.553   5.489  14.918 -0.1590 -0.5475 -1.4089
 2794TIP3    H232578   5.555   5.363  15.002 -0.6229  0.9483  0.9260
 2795TIP3   OH232579   0.459   0.974  17.637 -0.5809  0.0795  0.0570
 2795TIP3    H132580   0.512   0.952  17.560 -0.6810  1.7044 -0.5260
 2795TIP3    H232581   0.381   0.919  17.629 -0.7310  0.4349 -1.1959
 2796TIP3   OH232582   6.053   1.194  15.637 -0.0314  0.1670  0.2023
 2796TIP3    H132583   6.018   1.105  15.644  1.2838 -0.2626  1.9887
 2796TIP3    H232584   6.077   1.218  15.727  0.4154  2.0146 -0.3584
 2797TIP3   OH232585   4.597   4.847  15.893 -0.1521  0.2873 -0.5519
 2797TIP3    H132586   4.515   4.808  15.923 -0.4447  1.2181 -0.1339
 2797TIP3    H232587   4.572   4.902  15.819  0.2419 -0.1628 -1.0334
 2798TIP3   OH232588   2.509   0.970  16.945  0.2249  0.2915  0.1984
 2798TIP3    H132589   2.494   1.063  16.964  0.4858  0.0669  1.5916
 2798TIP3    H232590   2.561   0.938  17.019  1.7941 -0.5382 -1.1989
 2799TIP3   OH232591   5.466   0.593  16.201  0.3357 -0.3458 -0.6088
 2799TIP3    H132592   5.398   0.570  16.264  1.7914  1.3408  1.7613
 2799TIP3    H232593   5.441   0.548  16.120 -2.5106 -1.3097  0.6912
 2800TIP3   OH232594   4.375   3.136  15.775 -0.6553  0.3673  0.4567
 2800TIP3    H132595   4.383   3.206  15.710 -1.5787 -1.4143 -1.7257
 2800TIP3    H232596   4.463   3.099  15.781 -0.1252  1.7358  1.7416
 2801TIP3   OH232597   2.098   3.597  17.371  0.1108  0.1501 -0.1244
 2801TIP3    H132598   2.159   3.658  17.329  1.9759  0.1732  2.3751
 2801TIP3    H232599   2.031   3.580  17.304  2.0021  1.3396 -2.4849
 2802TIP3   OH232600   4.805   6.682  13.947 -0.0069  0.1047 -0.0769
 2802TIP3    H132601   4.877   6.687  14.009  2.4865 -0.0589 -2.7458
 2802TIP3    H232602   4.790   6.773  13.920 -0.3372  0.0645 -0.0403
 2803TIP3   OH232603   3.088   5.840  17.679 -0.2553 -0.1700  0.2949
 2803TIP3    H132604   3.088   5.750  17.648 -0.7573 -0.1066  0.1110
 2803TIP3    H232605   3.149   5.885  17.621 -0.5628 -0.2327 -0.0794
 2804TIP3   OH232606   0.854   0.063  14.908  0.3291  0.0714 -0.2150
 2804TIP3    H132607   0.857   0.133  14.844  0.9291 -1.3219 -1.7684
 2804TIP3    H232608   0.811  -0.010  14.863  0.2910 -0.7935  1.1358
 2805TIP3   OH232609   2.293   0.322  15.424 -0.3442 -0.2386  0.4925
 2805TIP3    H132610   2.305   0.344  15.517 -0.2634 -1.3935  0.7715
 2805TIP3    H232611   2.249   0.237  15.426 -0.8836  0.0034 -0.5396
 2806TIP3   OH232612   2.074   3.987  16.071 -0.0224  0.0749 -0.1228
 2806TIP3    H132613   2.046   3.948  16.154  1.0533  0.8381  0.6181
 2806TIP3    H232614   2.153   4.036  16.093 -1.4468  2.9613 -0.9116
 2807TIP3   OH232615   5.590   2.558  16.645  0.2450 -0.0366 -0.4948
 2807TIP3    H132616   5.633   2.473  16.640 -0.1068 -0.1467 -2.2000
 2807TIP3    H232617   5.507   2.546  16.599  0.5230  1.4244 -1.4252
 2808TIP3   OH232618   5.013   4.658  16.038  0.5178  0.4551  0.5400
 2808TIP3    H132619   5.105   4.663  16.064  0.5482 -0.0444  0.5336
 2808TIP3    H232620   4.989   4.566  16.052 -0.8628  1.1451  3.5313
 2809TIP3   OH232621   3.199   0.586  15.073 -0.1035  0.5575  0.4598
 2809TIP3    H132622   3.105   0.591  15.092 -0.6680  3.0113 -2.3567
 2809TIP3    H232623   3.241   0.610  15.156 -2.0103  1.0721  1.3304
 2810TIP3   OH232624   2.632   3.474  16.357 -0.3840 -0.3619 -0.0749
 2810TIP3    H132625   2.589   3.559  16.343  0.9455  0.8809  2.6333
 2810TIP3    H232626   2.710   3.477  16.302  0.5462  0.9805  1.2259
 2811TIP3   OH232627   1.861   0.133  17.687 -0.1729  0.2231  0.0899
 2811TIP3    H132628   1.881   0.105  17.598 -0.1632  0.2709  0.0756
 2811TIP3    H232629   1.945   0.164  17.722  0.4161 -2.2464  1.0372
 2812TIP3   OH232630   1.162   0.556  14.897 -0.3091 -0.1548  0.0852
 2812TIP3    H132631   1.224   0.625  14.917  0.0416 -0.2962 -0.5058
 2812TIP3    H232632   1.080   0.602  14.878 -0.4985  0.0116  1.2428
 2813TIP3   OH232633   3.464   4.904  17.634 -0.2638 -0.6915  0.1799
 2813TIP3    H132634   3.402   4.954  17.687  1.7025  2.3531 -0.1342
 2813TIP3    H232635   3.549   4.944  17.652  0.9110 -1.3809 -3.0978
 2814TIP3   OH232636   1.029   3.449  16.598  0.0722 -0.3975 -0.4621
 2814TIP3    H132637   0.933   3.456  16.598  0.0523 -0.6662 -0.5081
 2814TIP3    H232638   1.056   3.499  16.675 -0.0041  0.9908 -1.3013
 2815TIP3   OH232639   5.621   6.238  17.441 -0.5083 -0.4059  0.1224
 2815TIP3    H132640   5.617   6.242  17.536 -2.8989 -1.8511  0.1668
 2815TIP3    H232641   5.709   6.206  17.422 -0.5873 -1.8336  1.9301
 2816TIP3   OH232642   6.384   3.093  15.055 -0.5984 -0.1328 -0.7527
 2816TIP3    H132643   6.462   3.084  15.000  1.4281  1.2972  1.6227
 2816TIP3    H232644   6.370   3.006  15.091 -0.0911 -0.4156 -1.2197
 2817TIP3   OH232645   5.857   6.624  16.467 -0.0192 -0.1864 -0.0366
 2817TIP3    H132646   5.904   6.649  16.547  0.4640 -0.5273 -0.2060
 2817TIP3    H232647   5.765   6.626  16.492  0.0606  0.7910  0.2171
 2818TIP3   OH232648   0.443   5.449  18.247  0.3828  0.4988  0.3072
 2818TIP3    H132649   0.362   5.407  18.275  1.0200  0.6586  2.5543
 2818TIP3    H232650   0.420   5.541  18.237  0.0566  0.3754 -0.1526
 2819TIP3   OH232651   1.562   2.041  16.553  0.0553  0.6102 -0.8204
 2819TIP3    H132652   1.533   2.039  16.644 -1.8835  0.1481 -1.3992
 2819TIP3    H232653   1.501   2.100  16.509  0.3232  0.0288 -2.0258
 2820TIP3   OH232654   5.378   3.121  16.909 -0.2713 -0.6506 -0.0101
 2820TIP3    H132655   5.424   3.059  16.853  2.0408  0.2898  0.7153
 2820TIP3    H232656   5.311   3.159  16.852 -1.3461 -3.2705 -0.6473
 2821TIP3   OH232657   5.861   2.700  18.247 -0.1438  0.4843 -0.6825
 2821TIP3    H132658   5.857   2.709  18.342 -1.7164 -0.1930 -0.6576
 2821TIP3    H232659   5.954   2.713  18.225  0.9256 -2.7489  1.2989
 2822TIP3   OH232660   3.002   4.044  16.261 -0.1761  0.0716  0.3911
 2822TIP3    H132661   2.934   4.089  16.211  0.9940  0.7284 -0.6731
 2822TIP3    H232662   3.038   4.112  16.319 -0.3814 -0.2637  0.9240
 2823TIP3   OH232663   2.062   5.665  17.105 -0.1556  0.0508  0.2588
 2823TIP3    H132664   2.038   5.602  17.037  1.9707 -0.8452  0.2555
 2823TIP3    H232665   2.064   5.615  17.186 -1.2577  0.7883  0.7566
 2824TIP3   OH232666   4.968   5.605  15.791  0.3284  0.1653  0.4780
 2824TIP3    H132667   4.883   5.631  15.755 -0.5074 -0.6162  1.8289
 2824TIP3    H232668   4.953   5.518  15.827  2.0287 -0.4816 -0.3102
 2825TIP3   OH232669   3.110   2.512  15.643  0.0244 -0.4496 -0.3130
 2825TIP3    H132670   3.049   2.450  15.683  0.6484 -0.6689  0.3237
 2825TIP3    H232671   3.192   2.497  15.689  0.1882  0.8508 -0.1393
 2826TIP3   OH232672   3.398   5.265  16.419 -0.0810 -0.3942 -0.1287
 2826TIP3    H132673   3.441   5.249  16.334 -1.4144  1.1690 -1.1589
 2826TIP3    H232674   3.311   5.226  16.408 -0.9345  1.4485 -0.2048
 2827TIP3   OH232675   6.285   6.690  16.786 -0.1586 -0.4898 -0.1773
 2827TIP3    H132676   6.323   6.771  16.753  0.7821 -1.5284 -1.8174
 2827TIP3    H232677   6.325   6.621  16.733 -2.0574 -1.9151  0.1027
 2828TIP3   OH232678   1.516   3.529  15.899 -0.2330  0.0402 -0.2403
 2828TIP3    H132679   1.461   3.607  15.906  0.0595  0.2326 -0.0934
 2828TIP3    H232680   1.582   3.539  15.968 -1.9761 -1.7798  1.8374
 2829TIP3   OH232681   0.678   6.614  14.819 -0.5842 -0.2158 -0.7616
 2829TIP3    H132682   0.603   6.635  14.875  0.4494 -0.2966  0.6968
 2829TIP3    H232683   0.675   6.519  14.808  0.4024 -0.4918  0.9827
 2830TIP3   OH232684   2.086   4.560  16.353 -0.0704  0.1703 -0.3627
 2830TIP3    H132685   2.072   4.570  16.447 -1.7721 -0.2291 -0.5444
 2830TIP3    H232686   2.077   4.649  16.318 -1.0592  0.1028 -0.3154
 2831TIP3   OH232687   3.939   3.200  16.064 -0.1912  0.4347  0.5786
 2831TIP3    H132688   3.859   3.147  16.063 -0.6956  1.1902 -0.2512
 2831TIP3    H232689   3.913   3.284  16.026  0.7788  1.0226  1.1685
 2832TIP3   OH232690   0.024   6.059  17.598 -0.1883  0.5376  0.2697
 2832TIP3    H132691   0.042   6.090  17.510 -0.9227  1.9948  0.5968
 2832TIP3    H232692   0.109   6.034  17.633  0.3752  1.7580 -0.1986
 2833TIP3   OH232693   4.347   5.522  15.309  0.0558 -0.4540  0.3312
 2833TIP3    H132694   4.372   5.599  15.259 -0.1746 -1.4016 -1.3494
 2833TIP3    H232695   4.286   5.554  15.375  0.1130  0.8144 -0.2123
 2834TIP3   OH232696   2.305   5.973  13.943  0.4844 -0.2040 -0.1062
 2834TIP3    H132697   2.327   5.882  13.920  3.0459  0.3596 -0.2268
 2834TIP3    H232698   2.260   6.007  13.867 -0.3309 -1.2993 -0.1463
 2835TIP3   OH232699   5.825   0.062  13.754  0.1525 -0.1321 -0.1148
 2835TIP3    H132700   5.813  -0.004  13.822  0.5726  0.4132  0.4952
 2835TIP3    H232701   5.894   0.119  13.788  1.0396 -0.3920 -1.3944
 2836TIP3   OH232702   3.326   1.750  15.262 -0.0209  0.8269  0.1630
 2836TIP3    H132703   3.413   1.764  15.226  0.3253 -0.9802  0.2137
 2836TIP3    H232704   3.339   1.747  15.357 -0.3693  1.9239  0.2595
 2837TIP3   OH232705   6.341   2.218  16.442  0.4218 -0.3395  0.0880
 2837TIP3    H132706   6.401   2.168  16.497  0.4286 -1.4259 -0.8722
 2837TIP3    H232707   6.395   2.290  16.408  0.5396  0.0665  1.0893
 2838TIP3   OH232708   3.043   1.146  16.064  0.0301 -0.1089  0.5354
 2838TIP3    H132709   3.066   1.213  16.000 -0.3602  1.9691  2.4371
 2838TIP3    H232710   3.124   1.127  16.111  0.0376 -0.6509  0.3167
 2839TIP3   OH232711   3.057   1.613  15.570 -0.2468  0.1303 -0.8489
 2839TIP3    H132712   3.004   1.535  15.553  0.4542  0.0226 -2.8248
 2839TIP3    H232713   3.007   1.662  15.635 -1.7839 -0.9248 -1.1690
 2840TIP3   OH232714   5.085   2.083  17.589  0.7409  0.0834  0.0711
 2840TIP3    H132715   5.004   2.127  17.564  0.9972  0.9800  0.7813
 2840TIP3    H232716   5.081   1.998  17.545  0.2072  0.7814 -1.2571
 2841TIP3   OH232717   2.778   1.928  17.945 -0.0312 -0.1774 -0.1467
 2841TIP3    H132718   2.803   1.962  18.032  0.1824 -0.0637 -0.2518
 2841TIP3    H232719   2.861   1.910  17.902 -0.1267  0.4135 -0.5824
 2842TIP3   OH232720   2.359   5.807  14.983 -0.0894 -0.1839  0.1364
 2842TIP3    H132721   2.392   5.870  14.919  0.1308 -0.4899 -0.0537
 2842TIP3    H232722   2.363   5.853  15.067 -0.5589  0.2822 -0.0990
 2843TIP3   OH232723   1.177   2.840  17.774 -0.5511 -0.5171 -0.3823
 2843TIP3    H132724   1.111   2.897  17.814 -0.9457 -0.5080 -1.0293
 2843TIP3    H232725   1.242   2.900  17.739  0.6581 -0.5657  1.6563
 2844TIP3   OH232726   6.079   0.743  16.836 -0.0253 -0.1249 -0.5147
 2844TIP3    H132727   6.173   0.726  16.839 -0.3373 -2.8235 -2.2041
 2844TIP3    H232728   6.043   0.688  16.905 -0.4733 -0.2632 -0.8580
 2845TIP3   OH232729   5.238   0.562  15.546  0.5133 -0.0367 -0.3694
 2845TIP3    H132730   5.273   0.476  15.569  0.6147 -0.4924 -2.0857
 2845TIP3    H232731   5.249   0.568  15.451 -1.7371  0.8557 -0.6417
 2846TIP3   OH232732   1.371   1.407  17.380  0.1326  0.2532  0.4238
 2846TIP3    H132733   1.416   1.478  17.425 -0.1080  1.2154 -0.7930
 2846TIP3    H232734   1.413   1.402  17.294 -0.2568 -0.6713  0.2763
 2847TIP3   OH232735   3.979   6.184  17.917  0.4743  0.1685  0.4431
 2847TIP3    H132736   3.964   6.250  17.849 -1.3733 -0.5162  0.1495
 2847TIP3    H232737   3.946   6.225  17.997  0.5848  0.1080  0.5190
 2848TIP3   OH232738   1.414   0.550  14.628  0.9725  0.4080  0.2222
 2848TIP3    H132739   1.426   0.456  14.615  1.0758  0.7041 -2.3755
 2848TIP3    H232740   1.320   0.563  14.619  0.7282  0.4111  2.2409
 2849TIP3   OH232741   1.892   4.895  17.791 -0.3103  0.3130 -0.3582
 2849TIP3    H132742   1.891   4.981  17.748 -1.9636  0.4981 -0.0225
 2849TIP3    H232743   1.815   4.896  17.848  0.6265 -0.7406  0.9885
 2850TIP3   OH232744   0.957   2.922  16.994 -0.1182 -0.2481  0.0930
 2850TIP3    H132745   0.998   2.864  16.930 -0.2896  0.1214 -0.3570
 2850TIP3    H232746   1.031   2.963  17.040  0.0072 -0.2066 -0.1474
 2851TIP3   OH232747   5.282   2.610  17.537 -0.1816 -0.1474 -0.1836
 2851TIP3    H132748   5.217   2.539  17.544  0.3299 -0.6222 -0.2148
 2851TIP3    H232749   5.231   2.686  17.511 -0.6654 -0.6248 -0.6628
 2852TIP3   OH232750   6.354   6.115  17.499  0.5870 -0.2187  0.1407
 2852TIP3    H132751   6.427   6.094  17.440  0.8321  0.8892  0.0306
 2852TIP3    H232752   6.376   6.069  17.581  1.4586  0.1655  0.1347
 2853TIP3   OH232753   5.527   5.188  16.973  0.1556  0.1005 -0.2196
 2853TIP3    H132754   5.509   5.276  17.007  0.5449 -0.1220  0.5915
 2853TIP3    H232755   5.456   5.134  17.007  0.7529 -0.2003  0.5947
 2854TIP3   OH232756   0.456   5.453  17.042 -0.1897 -0.4267 -0.3840
 2854TIP3    H132757   0.502   5.479  16.962  0.7746 -1.5522 -0.2248
 2854TIP3    H232758   0.397   5.526  17.061  0.8299  0.6362 -1.1597
 2855TIP3   OH232759   2.479   2.295  16.069  0.7159  0.0652  0.2701
 2855TIP3    H132760   2.478   2.306  15.974  1.0333 -2.0675 -0.0287
 2855TIP3    H232761   2.551   2.352  16.098  2.0941 -0.9030 -1.0492
 2856TIP3   OH232762   6.246   3.927  15.920  0.1666  0.9413 -0.1169
 2856TIP3    H132763   6.244   4.008  15.971  2.1985 -0.3535  2.2374
 2856TIP3    H232764   6.329   3.930  15.873  0.3063  0.1935  0.0712
 2857TIP3   OH232765   1.839   6.637  15.578  0.7520 -0.0049  0.2689
 2857TIP3    H132766   1.766   6.633  15.640  1.2584  0.5694  0.9150
 2857TIP3    H232767   1.916   6.651  15.633  1.5361 -1.8934 -0.2817
 2858TIP3   OH232768   0.969   2.109  15.360 -0.5503  0.4935 -0.4876
 2858TIP3    H132769   0.876   2.127  15.375 -0.5567  0.5735 -0.6129
 2858TIP3    H232770   0.983   2.137  15.269 -0.2444  1.1200 -0.2473
 2859TIP3   OH232771   4.920   0.631  17.021 -0.0486 -0.1588 -0.1920
 2859TIP3    H132772   4.953   0.719  17.003 -0.3723  0.3453  1.4700
 2859TIP3    H232773   4.998   0.578  17.035  0.1391 -0.0274 -0.7369
 2860TIP3   OH232774   5.542   5.400  15.994 -0.6247  0.2809  0.0411
 2860TIP3    H132775   5.626   5.422  16.034 -0.4468 -0.2514 -0.0366
 2860TIP3    H232776   5.565   5.348  15.916 -1.0763 -1.9549  1.3114
 2861TIP3   OH232777   3.348   3.229  16.512 -0.7696  0.3603  0.2802
 2861TIP3    H132778   3.410   3.296  16.485 -0.9704 -0.4989 -2.5909
 2861TIP3    H232779   3.349   3.233  16.608  2.8173  1.1442  0.3438
 2862TIP3   OH232780   4.681   5.930  15.737  0.3055 -0.7213  0.0326
 2862TIP3    H132781   4.650   6.000  15.794 -0.8090 -0.3745 -0.9546
 2862TIP3    H232782   4.757   5.968  15.692 -1.2891  0.5621 -1.7769
 2863TIP3   OH232783   3.967   5.156  17.684 -0.4823 -0.2265  0.4051
 2863TIP3    H132784   4.060   5.133  17.693 -0.5833 -0.9604 -0.2871
 2863TIP3    H232785   3.967   5.251  17.672  0.1946 -0.2342  0.2791
 2864TIP3   OH232786   0.454   5.961  15.385  0.0699 -0.7084  0.4189
 2864TIP3    H132787   0.517   5.918  15.443  1.8409  0.4373 -0.5642
 2864TIP3    H232788   0.456   5.907  15.305  1.8089  0.6791 -0.5707
 2865TIP3   OH232789   2.903   6.211  15.995 -0.4706 -0.3197  0.7237
 2865TIP3    H132790   2.871   6.153  16.064  0.1759 -0.8710  0.5740
 2865TIP3    H232791   2.910   6.155  15.918  2.2466 -0.6336  1.0971
 2866TIP3   OH232792   3.104   6.448  15.848  0.1087  0.5352  0.0279
 2866TIP3    H132793   3.079   6.490  15.930  0.0979 -1.0397  0.8795
 2866TIP3    H232794   3.129   6.520  15.790 -1.6747  1.8263  0.7778
 2867TIP3   OH232795   5.932   4.147  17.721  0.0174  0.1106  0.1289
 2867TIP3    H132796   5.938   4.066  17.772  2.1474 -1.3263 -2.2079
 2867TIP3    H232797   5.847   4.143  17.678  0.4684 -1.3776 -0.6682
 2868TIP3   OH232798   0.961   2.966  17.874 -0.1153 -0.8399  0.5226
 2868TIP3    H132799   0.918   2.958  17.789 -0.2390 -0.2042  0.5150
 2868TIP3    H232800   0.889   2.977  17.936  0.0291  1.2677  0.3888
 2869TIP3   OH232801   2.515   4.997  15.464 -0.0949  0.1807  0.0631
 2869TIP3    H132802   2.606   5.028  15.460  0.3891 -1.3232 -1.8999
 2869TIP3    H232803   2.520   4.916  15.515 -0.3312  0.0912 -0.0549
 2870TIP3   OH232804   3.169   5.974  15.199  0.1906 -0.1563 -0.5252
 2870TIP3    H132805   3.143   6.010  15.283  1.1548  0.4492 -0.4601
 2870TIP3    H232806   3.173   6.050  15.141  1.1427 -0.3080 -0.6838
 2871TIP3   OH232807   3.656   6.466  17.310  0.0655 -0.3853  0.1665
 2871TIP3    H132808   3.611   6.383  17.327 -0.4633 -0.3180 -0.8516
 2871TIP3    H232809   3.586   6.527  17.286  0.4908  0.2603  0.5480
 2872TIP3   OH232810   1.228   1.436  17.651  0.0074 -0.2210 -0.2483
 2872TIP3    H132811   1.306   1.477  17.613 -0.7901 -0.1231 -1.9005
 2872TIP3    H232812   1.242   1.342  17.640 -0.1558 -0.1979 -0.7001
 2873TIP3   OH232813   4.301   2.129  17.078  0.4700  0.1111 -0.3034
 2873TIP3    H132814   4.208   2.106  17.087  0.7344 -0.6779  0.5256
 2873TIP3    H232815   4.310   2.210  17.129  0.2011  0.2945 -0.5435
 2874TIP3   OH232816   2.917   5.631  15.819 -0.1026  0.4439  0.2530
 2874TIP3    H132817   2.909   5.536  15.826 -2.6712  0.5500 -0.2119
 2874TIP3    H232818   2.996   5.644  15.767 -0.8149 -1.5500 -1.5042
 2875TIP3   OH232819   0.130   2.524  16.510  0.3749 -0.2564  0.4882
 2875TIP3    H132820   0.035   2.520  16.517  0.4470 -0.0416  1.8094
 2875TIP3    H232821   0.147   2.610  16.472 -0.0034 -1.0483 -1.6378
 2876TIP3   OH232822   2.213   5.022  15.428 -0.4152 -0.5739  0.2438
 2876TIP3    H132823   2.262   4.942  15.451 -0.2467 -0.2595  1.0131
 2876TIP3    H232824   2.241   5.086  15.494  0.1903  0.4183 -0.9497
 2877TIP3   OH232825   1.433   2.667  16.561  0.0254  0.3293 -0.4839
 2877TIP3    H132826   1.434   2.652  16.467  1.0862 -0.2399 -0.4074
 2877TIP3    H232827   1.410   2.582  16.599 -0.2630  0.5203 -0.2236
 2878TIP3   OH232828   0.809   6.268  16.357  0.3499  0.0086 -0.1040
 2878TIP3    H132829   0.797   6.298  16.447  2.8713  1.9581 -0.3216
 2878TIP3    H232830   0.818   6.349  16.306 -0.0616 -1.0766 -1.9864
 2879TIP3   OH232831   0.450   3.799  15.808  0.0017  0.1335  0.3139
 2879TIP3    H132832   0.456   3.888  15.844 -1.3704  0.5209 -0.3342
 2879TIP3    H232833   0.464   3.811  15.714  0.7308 -0.4815  0.3326
 2880TIP3   OH232834   6.512   0.245  17.006  0.4109 -0.1254 -0.5605
 2880TIP3    H132835   6.531   0.205  16.921  1.6990  2.1276 -1.4425
 2880TIP3    H232836   6.493   0.171  17.064  3.5229 -2.1271 -1.7925
 2881TIP3   OH232837   0.215   0.985  14.339  0.0666  0.2426  0.0652
 2881TIP3    H132838   0.200   0.923  14.269 -2.2580  2.2700 -1.3875
 2881TIP3    H232839   0.138   0.978  14.395  1.4316 -0.6297  1.9248
 2882TIP3   OH232840   6.566   6.035  17.352  0.1332  0.2129  0.0061
 2882TIP3    H132841   6.557   5.946  17.385  0.4581  0.1388 -0.1044
 2882TIP3    H232842   6.658   6.043  17.329  0.2919  0.8612  0.8325
 2883TIP3   OH232843   6.506   3.603  15.909 -0.1043 -0.2671  0.4773
 2883TIP3    H132844   6.568   3.624  15.978 -0.2709 -1.0004  0.8573
 2883TIP3    H232845   6.420   3.622  15.946 -0.2358 -1.2101  0.7041
 2884TIP3   OH232846   6.061   5.008  17.895  0.4424  0.6137 -0.3198
 2884TIP3    H132847   6.017   4.924  17.909 -0.1762  0.9125 -0.4405
 2884TIP3    H232848   5.990   5.068  17.870  0.7279  1.4167  0.7433
 2885TIP3   OH232849   1.676   6.496  15.379 -0.0260 -0.0186  0.1786
 2885TIP3    H132850   1.666   6.430  15.448  4.4653  0.8320  2.0122
 2885TIP3    H232851   1.634   6.574  15.414 -1.8673 -0.7507 -0.2587
 2886TIP3   OH232852   2.512   2.097  16.909 -0.4440 -0.3446 -0.3383
 2886TIP3    H132853   2.497   2.013  16.952  0.2115 -2.0927 -3.2381
 2886TIP3    H232854   2.445   2.101  16.841  0.3521  0.8854 -1.0913
 2887TIP3   OH232855   1.253   1.555  16.324  0.3240 -0.4489 -0.8538
 2887TIP3    H132856   1.323   1.616  16.299  0.2855  0.4514  1.1113
 2887TIP3    H232857   1.201   1.547  16.244  2.0296 -0.3081 -2.0635
 2888TIP3   OH232858   2.167   3.982  17.649  0.6237  0.2106 -0.7852
 2888TIP3    H132859   2.248   3.990  17.600  1.3228  0.5724  0.3828
 2888TIP3    H232860   2.123   4.066  17.637  2.2351  1.5248  1.6069
 2889TIP3   OH232861   5.168   0.030  17.376  0.2807 -0.0675  0.2746
 2889TIP3    H132862   5.090   0.037  17.431  0.5482 -0.5597  0.7242
 2889TIP3    H232863   5.240   0.060  17.433  0.4466  0.2243 -0.0820
 2890TIP3   OH232864   3.338   4.513  17.107 -0.3894  0.5966  0.0295
 2890TIP3    H132865   3.270   4.575  17.132 -2.6341 -1.3401 -0.9169
 2890TIP3    H232866   3.384   4.493  17.188 -1.2474  1.5650  0.7827
 2891TIP3   OH232867   6.680   4.535  16.749  0.0268 -0.2443  0.1165
 2891TIP3    H132868   6.607   4.488  16.708  0.3001 -0.8351  0.2967
 2891TIP3    H232869   6.640   4.582  16.822  0.0318 -1.7219  1.1195
 2892TIP3   OH232870   4.864   0.028  17.086 -0.3539 -0.1621 -0.0531
 2892TIP3    H132871   4.885   0.081  17.010  0.0298 -0.9952 -0.5351
 2892TIP3    H232872   4.829   0.091  17.150  0.4912  0.7294 -0.4465
 2893TIP3   OH232873   0.161   4.322  17.438 -0.4474 -1.2086 -0.2012
 2893TIP3    H132874   0.180   4.334  17.532 -0.7775 -1.7208 -0.0697
 2893TIP3    H232875   0.230   4.263  17.408 -0.4840 -1.2359 -0.2307
 2894TIP3   OH232876   1.342   0.248  16.425  0.1812 -0.5716  0.0365
 2894TIP3    H132877   1.418   0.246  16.366  0.6704  1.1978  0.5413
 2894TIP3    H232878   1.381   0.253  16.513 -0.4682  1.3577  0.2577
 2895TIP3   OH232879   6.568   3.340  17.457 -0.2098 -0.2909 -0.6844
 2895TIP3    H132880   6.521   3.262  17.486  0.7733 -0.5452  0.3241
 2895TIP3    H232881   6.502   3.408  17.453 -0.9509 -1.0091 -0.8903
 2896TIP3   OH232882   1.847   5.917  17.728  0.0870 -0.0344 -0.3618
 2896TIP3    H132883   1.760   5.884  17.703 -0.7760  0.9871  1.1269
 2896TIP3    H232884   1.850   6.006  17.694 -0.9827  1.2684  2.6205
 2897TIP3   OH232885   4.964   0.977  14.020  0.0684  0.0085 -0.5223
 2897TIP3    H132886   4.920   0.894  14.000 -1.1926  0.1851  1.2892
 2897TIP3    H232887   4.893   1.037  14.044  1.0862  1.1115 -0.1575
 2898TIP3   OH232888   4.620   1.043  16.866 -0.0814 -0.2335  0.3072
 2898TIP3    H132889   4.620   0.993  16.948  2.0671 -0.5622  0.1515
 2898TIP3    H232890   4.708   1.033  16.831 -1.1089 -0.6457 -2.4259
 2899TIP3   OH232891   3.149   1.696  16.834  0.5611 -0.3518 -0.1665
 2899TIP3    H132892   3.115   1.689  16.923 -0.3111 -1.0095 -0.5309
 2899TIP3    H232893   3.085   1.751  16.788  1.4846  0.7448 -0.1679
 2900TIP3   OH232894   4.264   6.468  17.455 -0.4032  0.1205  0.0645
 2900TIP3    H132895   4.194   6.531  17.472 -0.2365  0.4432 -0.4371
 2900TIP3    H232896   4.290   6.484  17.364 -1.7583 -2.0200 -0.7832
 2901TIP3   OH232897   6.634   4.987  17.640 -0.5555 -0.2168 -0.2099
 2901TIP3    H132898   6.604   4.930  17.570 -0.4515 -0.0445 -0.3975
 2901TIP3    H232899   6.646   5.072  17.598  0.5955 -0.3806 -0.2303
 2902TIP3   OH232900   4.809   1.480  17.979 -0.3245  0.3614 -0.3105
 2902TIP3    H132901   4.777   1.487  17.889 -0.8330  0.2084 -0.1459
 2902TIP3    H232902   4.802   1.387  18.000 -0.2387  0.4009 -0.1047
 2903TIP3   OH232903   3.751   1.142  18.085  0.2683  0.1519  0.0626
 2903TIP3    H132904   3.800   1.192  18.152  0.2092  1.3818 -0.7788
 2903TIP3    H232905   3.787   1.053  18.092  0.6861  0.3848  1.3203
 2904TIP3   OH232906   5.099   5.161  16.833  0.1582 -0.8001  0.4255
 2904TIP3    H132907   5.184   5.142  16.793  0.2382  0.0819  0.1501
 2904TIP3    H232908   5.044   5.192  16.761 -0.2533 -0.9168  0.6833
 2905TIP3   OH232909   3.092   0.486  15.513 -0.1304 -0.3043  0.1356
 2905TIP3    H132910   3.183   0.512  15.528  0.3212 -1.0371 -1.1841
 2905TIP3    H232911   3.042   0.537  15.576  1.2406 -0.2718  1.2510
 2906TIP3   OH232912   5.085   5.918  16.110  0.0944  0.5901 -0.0611
 2906TIP3    H132913   5.163   5.971  16.093 -0.1388  0.5642 -1.3529
 2906TIP3    H232914   5.104   5.834  16.068 -0.5680  0.5406 -0.2828
 2907TIP3   OH232915   2.883   6.334  14.909 -0.1287 -0.0019  0.4590
 2907TIP3    H132916   2.893   6.327  14.814 -2.2331  2.8706 -0.1078
 2907TIP3    H232917   2.923   6.418  14.932 -0.1322 -0.3949  2.0337
 2908TIP3   OH232918   5.202   1.270  17.307 -0.3890  0.1801  0.5832
 2908TIP3    H132919   5.156   1.344  17.267 -1.6789 -0.1076  1.4816
 2908TIP3    H232920   5.280   1.259  17.253  1.0606  3.6230  1.6916
 2909TIP3   OH232921   3.942   1.000  15.416  0.3382 -0.3273 -0.5175
 2909TIP3    H132922   3.957   1.002  15.322  1.3088 -1.2084 -0.3953
 2909TIP3    H232923   4.019   1.044  15.453  0.3869 -0.7722 -0.0897
 2910TIP3   OH232924   0.489   3.256  14.954  0.2062  0.2749 -0.1968
 2910TIP3    H132925   0.469   3.344  14.920  0.7350  0.6633  0.4794
 2910TIP3    H232926   0.577   3.238  14.921 -0.4274 -0.6044 -1.5057
 2911TIP3   OH232927   1.390   2.228  18.016 -0.4862 -0.0794 -0.0765
 2911TIP3    H132928   1.392   2.133  18.025 -0.5128 -0.1118 -0.4101
 2911TIP3    H232929   1.480   2.256  18.034 -0.3183 -0.2317 -0.6660
 2912TIP3   OH232930   1.413   2.128  15.995 -0.6669  0.1315 -0.4725
 2912TIP3    H132931   1.438   2.206  15.946  0.0422  1.0370  1.2588
 2912TIP3    H232932   1.443   2.055  15.941  0.0027  1.0786 -1.4236
 2913TIP3   OH232933   3.739   5.551  14.708  0.3046  0.7034 -0.0354
 2913TIP3    H132934   3.823   5.510  14.689  1.1714  1.6493  1.5776
 2913TIP3    H232935   3.675   5.482  14.691  1.6142 -0.9653  1.4016
 2914TIP3   OH232936   1.208   3.594  17.242 -0.7256 -0.1749 -0.0013
 2914TIP3    H132937   1.177   3.512  17.280  2.0335 -1.5486 -0.4335
 2914TIP3    H232938   1.263   3.633  17.310  0.0019  0.0219 -0.6838
 2915TIP3   OH232939   4.489   6.299  17.494 -0.1751 -0.0765  0.5896
 2915TIP3    H132940   4.553   6.325  17.428  0.4404 -0.6588  0.9403
 2915TIP3    H232941   4.429   6.374  17.501  0.4979  0.4977  0.2937
 2916TIP3   OH232942   1.599   2.552  15.681 -0.1310 -0.0435  0.0642
 2916TIP3    H132943   1.631   2.527  15.594 -1.5124 -1.0250 -0.1957
 2916TIP3    H232944   1.671   2.601  15.719  0.7866 -0.2040 -1.3612
 2917TIP3   OH232945   2.512   2.612  17.764 -0.1267  0.3138 -0.3173
 2917TIP3    H132946   2.424   2.590  17.797  0.2449 -1.1314 -0.1939
 2917TIP3    H232947   2.504   2.701  17.730 -1.2920  0.7138  0.9384
 2918TIP3   OH232948   4.371   0.249  16.897 -0.0216 -0.0106 -0.0113
 2918TIP3    H132949   4.336   0.259  16.985  0.5688 -0.6574  0.3019
 2918TIP3    H232950   4.393   0.338  16.870 -0.8497  0.2745  0.2177
 2919TIP3   OH232951   5.017   4.355  16.851 -0.6336  0.1213 -0.0701
 2919TIP3    H132952   5.080   4.427  16.854  0.5225 -0.8374 -0.4355
 2919TIP3    H232953   5.037   4.302  16.928  0.5155 -1.3715 -1.3261
 2920TIP3   OH232954   0.108   1.651  17.665  0.0389 -0.3400  0.3277
 2920TIP3    H132955   0.185   1.705  17.681  0.4785  0.2165 -2.9988
 2920TIP3    H232956   0.139   1.561  17.673  1.1622 -0.1253 -1.1997
 2921TIP3   OH232957   4.667   2.344  15.686 -0.0457  0.0017 -0.0234
 2921TIP3    H132958   4.705   2.275  15.632 -1.5880 -0.4109 -0.6468
 2921TIP3    H232959   4.614   2.396  15.625  0.7809  1.5396  0.4977
 2922TIP3   OH232960   3.848   3.686  15.827 -0.0095 -0.0682 -0.1017
 2922TIP3    H132961   3.819   3.622  15.892 -1.5960  0.6712 -0.0299
 2922TIP3    H232962   3.906   3.637  15.768 -0.1743 -1.2333  0.6774
 2923TIP3   OH232963   2.425   5.541  15.676 -0.0266 -0.6639 -0.5468
 2923TIP3    H132964   2.373   5.526  15.754  0.6089  3.6794  0.9978
 2923TIP3    H232965   2.360   5.547  15.605 -1.4429  1.6429  0.8220
 2924TIP3   OH232966   3.100   1.590  16.226  0.3415 -0.2694  0.2048
 2924TIP3    H132967   3.084   1.674  16.269 -1.6014 -0.7016  0.3860
 2924TIP3    H232968   3.104   1.527  16.297 -1.8971 -0.8411 -0.1069
 2925TIP3   OH232969   2.606   6.039  15.894 -0.3040 -0.3229  0.0150
 2925TIP3    H132970   2.581   6.033  15.986  2.8922 -1.2081  0.9433
 2925TIP3    H232971   2.641   5.953  15.872  0.9379  0.4893 -1.3847
 2926TIP3   OH232972   3.204   5.858  14.074 -0.0841 -0.0904 -0.4011
 2926TIP3    H132973   3.181   5.950  14.078 -0.2716 -0.0180 -2.1836
 2926TIP3    H232974   3.162   5.819  14.150  1.6002  1.5915  1.5091
 2927TIP3   OH232975   5.293   5.097  17.470 -0.1067 -0.1559 -0.6972
 2927TIP3    H132976   5.354   5.140  17.531 -1.7980  1.3771  0.0224
 2927TIP3    H232977   5.334   5.013  17.449  2.5371  1.0711 -0.7813
 2928TIP3   OH232978   6.370   4.988  16.836 -0.3456 -0.6638  0.4020
 2928TIP3    H132979   6.378   4.925  16.765 -0.4337 -0.7003  0.4245
 2928TIP3    H232980   6.323   4.941  16.906 -0.7709 -0.4481  0.2667
 2929TIP3   OH232981   1.781   2.199  16.551 -0.3148 -0.6035  0.3440
 2929TIP3    H132982   1.862   2.149  16.546 -0.0102 -0.0214 -2.8358
 2929TIP3    H232983   1.713   2.139  16.520 -0.7835 -0.4952  1.1367
 2930TIP3   OH232984   3.798   1.723  14.377  0.4051 -0.4564  0.0351
 2930TIP3    H132985   3.715   1.756  14.344 -0.0869 -1.2355  0.4703
 2930TIP3    H232986   3.844   1.800  14.409  0.5885  0.2273 -1.7585
 2931TIP3   OH232987   0.222   6.289  16.320 -0.7933 -0.4397  0.0571
 2931TIP3    H132988   0.141   6.282  16.270 -0.5016 -1.8225 -0.2724
 2931TIP3    H232989   0.221   6.212  16.377  0.1546 -0.3145  0.2527
 2932TIP3   OH232990   4.690   2.058  17.034 -0.2121  0.4076 -0.8255
 2932TIP3    H132991   4.784   2.072  17.044 -0.2749 -0.3614  1.1553
 2932TIP3    H232992   4.683   1.971  16.993 -0.0599 -0.4669  0.9357
 2933TIP3   OH232993   2.937   4.803  15.086  0.5146 -0.1843  0.0226
 2933TIP3    H132994   2.915   4.877  15.028 -2.5077 -2.6492 -2.3596
 2933TIP3    H232995   3.010   4.760  15.043  1.8238  0.9364  1.0449
 2934TIP3   OH232996   3.505   2.374  17.901  0.7565 -1.0729  0.3549
 2934TIP3    H132997   3.420   2.334  17.920 -0.1345 -0.1573 -1.5139
 2934TIP3    H232998   3.532   2.335  17.818  1.3011  0.0016  0.0163
 2935TIP3   OH232999   5.157   6.224  14.864 -0.0671  0.5309 -0.0876
 2935TIP3    H133000   5.129   6.235  14.774  1.2927  1.7727 -0.3959
 2935TIP3    H233001   5.159   6.129  14.878 -0.5825  0.3399 -1.2412
 2936TIP3   OH233002   1.027   0.311  14.752  0.5320 -0.3106 -0.1005
 2936TIP3    H133003   0.941   0.283  14.720  0.2417  0.0201  0.3913
 2936TIP3    H233004   1.085   0.238  14.730  0.1515 -0.4845 -0.5421
 2937TIP3   OH233005   3.853   4.216  15.010  0.1003 -0.0771  0.0629
 2937TIP3    H133006   3.908   4.181  14.940  1.1313  0.8621  0.3766
 2937TIP3    H233007   3.792   4.145  15.030  0.3167 -0.6516 -1.2196
 2938TIP3   OH233008   3.384   0.909  14.742  0.1556  0.0794  0.2548
 2938TIP3    H133009   3.409   0.843  14.677  0.1761  0.4915 -0.1649
 2938TIP3    H233010   3.353   0.984  14.689  0.7432  0.6498  0.7024
 2939TIP3   OH233011   1.030   5.361  15.171  0.3737  0.1737 -0.6189
 2939TIP3    H133012   1.026   5.435  15.231 -1.1801  1.2988 -1.9802
 2939TIP3    H233013   1.072   5.396  15.092  0.5250 -0.6811 -0.9356
 2940TIP3   OH233014   0.668   3.236  17.103  0.1951  0.4397 -0.0817
 2940TIP3    H133015   0.735   3.293  17.142 -0.8091  1.4967  0.1567
 2940TIP3    H233016   0.705   3.148  17.109  0.8939  0.7994  1.5399
 2941TIP3   OH233017   2.173   4.841  16.361 -0.0974  0.3755 -0.0380
 2941TIP3    H133018   2.091   4.876  16.395 -0.9466 -0.8147 -0.7817
 2941TIP3    H233019   2.195   4.898  16.288 -0.1637  0.7944  0.2640
 2942TIP3   OH233020   2.349   0.598  16.937  0.0744 -0.0067  0.0136
 2942TIP3    H133021   2.271   0.543  16.933  0.4371 -0.4635 -0.9200
 2942TIP3    H233022   2.315   0.687  16.940 -0.5100 -0.0274 -2.9871
 2943TIP3   OH233023   2.661   6.619  17.316 -0.6250  0.1151 -0.3341
 2943TIP3    H133024   2.724   6.551  17.294 -1.5824 -1.1191  0.5707
 2943TIP3    H233025   2.611   6.582  17.389 -0.7032  2.0914  0.6764
 2944TIP3   OH233026   4.907   6.640  14.727  0.5380 -0.3005  0.0357
 2944TIP3    H133027   4.954   6.711  14.769 -1.5339  0.7239  0.7592
 2944TIP3    H233028   4.915   6.566  14.788  0.9307 -0.0545  0.2858
 2945TIP3   OH233029   4.034   1.752  16.314 -0.0145  0.0226  0.5854
 2945TIP3    H133030   3.978   1.686  16.355 -0.3302 -0.5022 -0.6482
 2945TIP3    H233031   4.101   1.701  16.268 -1.5008  0.3875 -2.1928
 2946TIP3   OH233032   3.144   3.897  17.920  0.4198 -0.4102  0.1494
 2946TIP3    H133033   3.172   3.893  18.012  1.7281 -1.5712 -0.2649
 2946TIP3    H233034   3.063   3.847  17.917  0.6565 -0.8234  0.5795
 2947TIP3   OH233035   5.179   0.812  16.086 -0.0887  0.5569 -0.1078
 2947TIP3    H133036   5.243   0.870  16.046 -1.1775  0.7026 -1.7624
 2947TIP3    H233037   5.182   0.832  16.179  2.0191  0.7574 -0.1738
 2948TIP3   OH233038   5.892   5.986  15.153  0.0075 -0.4292 -0.5683
 2948TIP3    H133039   5.920   5.953  15.068  0.9236 -1.7402  0.2165
 2948TIP3    H233040   5.967   5.972  15.211 -1.0824 -0.8897  0.7881
 2949TIP3   OH233041   0.071   3.678  18.101  0.3964 -0.0661 -0.5710
 2949TIP3    H133042   0.045   3.770  18.111 -2.6792 -0.9847  0.8173
 2949TIP3    H233043   0.046   3.656  18.011  0.6433  0.2637 -0.7267
 2950TIP3   OH233044   1.719   2.256  16.053 -0.1249  0.1994 -0.2073
 2950TIP3    H133045   1.692   2.303  16.132  2.3132  1.6797 -0.1321
 2950TIP3    H233046   1.661   2.289  15.984  0.7454  2.5291  0.0855
 2951TIP3   OH233047   3.333   6.462  14.647 -0.4487 -0.2234 -0.2121
 2951TIP3    H133048   3.264   6.517  14.684 -0.8551 -0.9534  0.1411
 2951TIP3    H233049   3.287   6.394  14.598  0.0723  0.4520 -1.7015
 2952TIP3   OH233050   2.713   5.802  15.743  0.5887 -0.2386 -0.2892
 2952TIP3    H133051   2.662   5.813  15.663 -1.3350  1.4273  1.0695
 2952TIP3    H233052   2.737   5.710  15.744  0.1633 -0.4289 -2.4721
 2953TIP3   OH233053   2.974   2.251  15.378  0.1276  0.5390 -0.0517
 2953TIP3    H133054   3.055   2.229  15.425  0.2237  0.4648 -0.2540
 2953TIP3    H233055   2.924   2.169  15.376 -0.3361  0.7876  0.8304
 2954TIP3   OH233056   2.585   1.220  14.799 -0.3729  0.1064  0.5563
 2954TIP3    H133057   2.624   1.251  14.881 -1.4787  1.4287  0.6333
 2954TIP3    H233058   2.575   1.126  14.811  0.3834  0.1337  1.5419
 2955TIP3   OH233059   1.151   1.905  16.001 -0.3318  0.2188 -0.2281
 2955TIP3    H133060   1.224   1.843  16.007  0.0395  0.6029 -0.6924
 2955TIP3    H233061   1.078   1.853  15.969  0.1243  0.1258 -1.1440
 2956TIP3   OH233062   0.878   6.527  16.290  0.0968  0.5306  0.0293
 2956TIP3    H133063   0.894   6.583  16.367 -2.9490  1.9267 -0.1905
 2956TIP3    H233064   0.831   6.584  16.229 -1.0671 -1.6495 -1.2242
 2957TIP3   OH233065   1.044   1.580  17.528  0.0291  0.9220 -0.1448
 2957TIP3    H133066   1.099   1.629  17.467  0.5732 -1.1417 -1.4141
 2957TIP3    H233067   1.096   1.504  17.553 -2.4605 -1.7160 -2.2443
 2958TIP3   OH233068   6.677   6.698  14.938 -0.0993  0.3500  0.3049
 2958TIP3    H133069   6.756   6.655  14.970 -0.2234  1.0220  1.5734
 2958TIP3    H233070   6.614   6.689  15.010 -0.5471  1.5077  0.0861
 2959TIP3   OH233071   5.419   6.614  16.821 -0.0098 -0.6877 -0.1104
 2959TIP3    H133072   5.483   6.574  16.879 -0.2188 -0.4652  0.2808
 2959TIP3    H233073   5.335   6.601  16.866  0.0282  1.1022  0.5454
 2960TIP3   OH233074   4.366   6.471  16.297  0.2397 -0.4632  0.6205
 2960TIP3    H133075   4.421   6.396  16.318  1.8674  1.1846  2.6424
 2960TIP3    H233076   4.426   6.535  16.258 -0.5955  0.6772  1.1497
 2961TIP3   OH233077   4.998   3.226  17.130  0.0010  0.1234  0.2832
 2961TIP3    H133078   4.950   3.242  17.049  0.2290 -0.9446 -0.0893
 2961TIP3    H233079   5.032   3.137  17.120  1.6918  0.6896  0.7179
 2962TIP3   OH233080   5.214   6.036  14.281  0.2050 -0.4643 -0.0308
 2962TIP3    H133081   5.149   6.083  14.333  0.6003  1.0989 -0.8981
 2962TIP3    H233082   5.195   5.943  14.297 -1.2183 -0.0318  0.9617
 2963TIP3   OH233083   2.306   6.532  15.002  0.1642  0.0995 -0.7913
 2963TIP3    H133084   2.346   6.565  14.922  1.4880 -0.2994 -0.3362
 2963TIP3    H233085   2.345   6.445  15.014  0.8479  0.5860  0.8397
 2964TIP3   OH233086   2.694   0.902  15.180 -0.2160  0.2786 -0.2890
 2964TIP3    H133087   2.749   0.830  15.148  0.5112  0.6976 -0.0158
 2964TIP3    H233088   2.641   0.863  15.249 -1.0878 -0.4004 -1.2967
 2965TIP3   OH233089   5.946   1.880  16.155 -0.0035 -0.4636 -0.1954
 2965TIP3    H133090   5.899   1.889  16.237  1.0883  1.0249  0.3211
 2965TIP3    H233091   6.038   1.893  16.179  0.3537 -0.2312 -1.6184
 2966TIP3   OH233092   2.480   2.667  16.307  0.7310 -0.6256 -0.1413
 2966TIP3    H133093   2.396   2.652  16.350  0.2973  0.9399 -0.3843
 2966TIP3    H233094   2.460   2.673  16.214  0.4584  3.3021  0.0198
 2967TIP3   OH233095   6.120   4.287  17.462  0.1051 -0.5509 -0.6125
 2967TIP3    H133096   6.135   4.319  17.373  1.4718  0.8492  0.0832
 2967TIP3    H233097   6.042   4.333  17.491  0.2860 -0.1806 -0.7060
 2968TIP3   OH233098   4.523   5.525  15.766  0.1592  0.1467 -0.2414
 2968TIP3    H133099   4.556   5.436  15.771  0.0116 -0.0221 -1.8017
 2968TIP3    H233100   4.428   5.516  15.780  0.1320  0.0483 -0.4881
 2969TIP3   OH233101   2.189   1.145  15.680  0.5004 -0.6127  0.1183
 2969TIP3    H133102   2.118   1.084  15.704  1.1712 -1.0739  0.9689
 2969TIP3    H233103   2.264   1.115  15.730  1.0229  0.5304  0.0388
 2970TIP3   OH233104   5.757   1.317  16.133 -0.1190 -0.0341 -0.5525
 2970TIP3    H133105   5.752   1.316  16.038 -1.3085 -0.8285 -0.5038
 2970TIP3    H233106   5.676   1.360  16.161 -1.5487 -2.9364  0.1471
 2971TIP3   OH233107   6.297   4.746  17.365 -0.3831 -0.4473  0.0579
 2971TIP3    H133108   6.283   4.731  17.459 -0.7981 -0.6896 -0.0359
 2971TIP3    H233109   6.360   4.818  17.361 -0.2297 -0.5496  0.5236
 2972TIP3   OH233110   5.116   6.185  17.369 -0.0491  0.2328 -0.2542
 2972TIP3    H133111   5.174   6.148  17.303  0.2932 -0.2204  0.2848
 2972TIP3    H233112   5.150   6.273  17.384 -1.8115  1.4128 -2.6734
 2973TIP3   OH233113   6.174   4.572  17.805 -0.1509  0.0234  0.4221
 2973TIP3    H133114   6.230   4.518  17.861  0.7866 -1.5594 -1.8829
 2973TIP3    H233115   6.108   4.511  17.772 -0.4909  0.8347 -0.4387
 2974TIP3   OH233116   3.477   6.618  18.015 -0.2254 -0.9298 -0.3021
 2974TIP3    H133117   3.498   6.662  18.097 -1.1526  0.5591 -0.8305
 2974TIP3    H233118   3.540   6.651  17.952 -0.2722 -1.1594 -0.4735
 2975TIP3   OH233119   1.021   1.513  15.375 -0.3862 -0.3188  0.6100
 2975TIP3    H133120   0.990   1.553  15.456  0.0585  1.4653 -0.0402
 2975TIP3    H233121   1.116   1.511  15.383 -0.1467  2.0202 -0.7187
 2976TIP3   OH233122   1.739   5.469  17.198  0.2881  0.1898  0.0526
 2976TIP3    H133123   1.760   5.394  17.255 -0.7949  0.4086  0.7710
 2976TIP3    H233124   1.815   5.477  17.141  1.2572 -0.2817  1.2245
 2977TIP3   OH233125   0.487   2.808  16.008  0.5177 -0.7867 -0.5062
 2977TIP3    H133126   0.446   2.892  15.989 -0.6507 -1.6646 -2.1114
 2977TIP3    H233127   0.573   2.830  16.044 -0.0912  1.0793 -0.1221
 2978TIP3   OH233128   6.435   6.320  15.206  0.4095 -0.0815 -0.0054
 2978TIP3    H133129   6.355   6.267  15.204 -0.2029  0.8458 -1.0815
 2978TIP3    H233130   6.426   6.374  15.284 -0.9416  1.3322 -1.0618
 2979TIP3   OH233131   1.150   5.871  17.386  0.3374  1.0823 -0.5015
 2979TIP3    H133132   1.188   5.912  17.464  2.5383 -1.0315 -0.3573
 2979TIP3    H233133   1.126   5.783  17.415 -1.3063  1.1226 -1.5997
 2980TIP3   OH233134   0.287   4.304  16.210 -0.2329 -0.3169 -0.0692
 2980TIP3    H133135   0.315   4.383  16.257  0.1612 -0.4178 -0.1237
 2980TIP3    H233136   0.200   4.285  16.244 -1.2666  1.3861 -1.6400
 2981TIP3   OH233137   6.010   3.360  17.731  0.0073  0.8470 -0.1353
 2981TIP3    H133138   5.976   3.274  17.756  0.0839  0.0209 -2.5515
 2981TIP3    H233139   5.934   3.418  17.735 -0.1937  0.5352  0.8591
 2982TIP3   OH233140   4.893   1.214  16.248  0.3169 -0.2382 -0.3455
 2982TIP3    H133141   4.816   1.242  16.299  0.6578 -1.4084  0.8810
 2982TIP3    H233142   4.959   1.194  16.315  0.9660 -1.3159 -1.2906
 2983TIP3   OH233143   6.489   0.589  17.430 -0.6147 -0.1924  0.0174
 2983TIP3    H133144   6.452   0.564  17.346 -1.5749 -2.2274  0.9558
 2983TIP3    H233145   6.551   0.518  17.450  1.6944  1.6478 -0.1655
 2984TIP3   OH233146   6.326   1.154  17.434  0.2380  0.3904 -0.3779
 2984TIP3    H133147   6.339   1.246  17.410 -1.2669  1.1702  1.5188
 2984TIP3    H233148   6.249   1.127  17.384  1.8448 -0.5612 -2.5150
 2985TIP3   OH233149   5.419   6.719  17.226  0.3635 -0.1336 -0.5141
 2985TIP3    H133150   5.462   6.647  17.272  0.8866  0.0649 -0.6964
 2985TIP3    H233151   5.351   6.749  17.287  0.3085 -0.6102 -0.3343
 2986TIP3   OH233152   3.076   5.471  14.770 -0.1209  0.3380  0.0775
 2986TIP3    H133153   3.082   5.539  14.702  0.4041  0.7014  0.4839
 2986TIP3    H233154   3.127   5.398  14.735 -0.5512  0.2057 -0.2877
 2987TIP3   OH233155   3.757   0.868  15.625  0.0366  0.5757  0.2607
 2987TIP3    H133156   3.775   0.780  15.659  0.4511  0.3669 -0.4863
 2987TIP3    H233157   3.839   0.895  15.583  0.1953  1.6707  1.2210
 2988TIP3   OH233158   6.226   2.484  15.871  0.3349 -0.3644  0.2791
 2988TIP3    H133159   6.222   2.444  15.958 -1.2216  0.7624  0.7626
 2988TIP3    H233160   6.294   2.434  15.826 -1.5501 -3.6992  0.7701
 2989TIP3   OH233161   4.881   5.410  15.969  0.2856 -0.0315 -0.4271
 2989TIP3    H133162   4.803   5.461  15.994  1.0067  0.8058  0.1667
 2989TIP3    H233163   4.911   5.371  16.051  0.6371 -0.1308 -0.6018
 2990TIP3   OH233164   6.645   4.133  16.716 -0.6309 -0.1767 -0.4534
 2990TIP3    H133165   6.712   4.170  16.773 -0.7413  1.0815 -1.1034
 2990TIP3    H233166   6.653   4.038  16.727  1.3587 -0.0611 -0.6294
 2991TIP3   OH233167   6.258   4.012  15.548 -0.6992 -0.1036 -0.3673
 2991TIP3    H133168   6.289   4.067  15.476  0.7535 -1.8970 -1.1975
 2991TIP3    H233169   6.332   4.009  15.609  0.0251 -2.5319 -1.2332
 2992TIP3   OH233170   0.357   2.576  17.906 -0.0890  0.5270  0.0148
 2992TIP3    H133171   0.445   2.550  17.933  0.8414  1.8893 -1.5575
 2992TIP3    H233172   0.366   2.602  17.814 -2.4172 -0.6037 -0.6175
 2993TIP3   OH233173   2.339   6.267  15.053 -0.0897 -0.0603  0.0020
 2993TIP3    H133174   2.396   6.213  14.997  1.0583 -0.8288  1.8178
 2993TIP3    H233175   2.253   6.226  15.046  0.6108 -1.7527  0.7887
 2994TIP3   OH233176   2.886   0.195  17.979  0.1651 -0.2490 -0.6855
 2994TIP3    H133177   2.941   0.272  17.998 -0.2134  0.3595 -1.9153
 2994TIP3    H233178   2.803   0.232  17.950 -0.8660 -1.1635  1.0071
 2995TIP3   OH233179   3.764   5.091  16.892 -0.3021  0.1437  0.1118
 2995TIP3    H133180   3.741   5.183  16.877 -2.4444 -0.1824  1.0108
 2995TIP3    H233181   3.680   5.049  16.911  0.1787 -2.5479 -2.8624
 2996TIP3   OH233182   2.794   0.545  15.382 -0.4384 -0.2556 -0.3188
 2996TIP3    H133183   2.835   0.592  15.309 -1.1725  0.0423 -0.5530
 2996TIP3    H233184   2.830   0.456  15.377 -0.7390 -0.3353 -1.2640
 2997TIP3   OH233185   2.202   5.974  15.486  0.1807  0.3214  0.2777
 2997TIP3    H133186   2.179   6.067  15.492 -0.4276  0.2136 -0.2307
 2997TIP3    H233187   2.289   5.974  15.447  0.2435  0.6845  0.4113
 2998TIP3   OH233188   4.142   3.548  17.265 -0.1441  0.0881  0.1581
 2998TIP3    H133189   4.195   3.593  17.331  0.4867 -0.1658 -0.1686
 2998TIP3    H233190   4.205   3.512  17.203 -0.4618 -2.5305  1.1887
 2999TIP3   OH233191   5.139   4.844  15.617  0.1309 -0.3742  0.4221
 2999TIP3    H133192   5.153   4.751  15.634 -0.0280 -0.7279 -1.1669
 2999TIP3    H233193   5.162   4.888  15.699 -0.7206 -1.8788  1.5224
 3000TIP3   OH233194   0.356   3.986  18.152 -0.0640  0.1925  0.2685
 3000TIP3    H133195   0.264   3.959  18.153  0.3921 -1.5660 -0.8386
 3000TIP3    H233196   0.353   4.081  18.139 -1.7285 -0.1744 -2.9493
 3001TIP3   OH233197   6.241   3.817  14.870 -0.1319 -0.1180 -0.2939
 3001TIP3    H133198   6.178   3.795  14.939  1.1148  0.7881  1.2028
 3001TIP3    H233199   6.191   3.808  14.788 -1.0357 -3.4750  0.5005
 3002TIP3   OH233200   1.740   3.051  14.969  0.3584  0.7366 -0.1568
 3002TIP3    H133201   1.743   2.955  14.966  0.0064  0.7480 -1.0248
 3002TIP3    H233202   1.770   3.078  14.883  3.1459  1.4896  0.9292
 3003TIP3   OH233203   0.149   5.963  15.218  0.1053 -0.2463  0.4894
 3003TIP3    H133204   0.112   6.037  15.267  1.0841  0.4289  0.2404
 3003TIP3    H233205   0.151   5.891  15.280 -0.0736  0.1735  0.9883
 3004TIP3   OH233206   6.277   5.846  15.596  0.1363  0.3553  0.0352
 3004TIP3    H133207   6.339   5.913  15.624  0.6682 -0.2403  0.3028
 3004TIP3    H233208   6.330   5.769  15.580 -0.5878 -0.3533  0.8651
 3005TIP3   OH233209   4.834   4.526  16.744 -0.3642 -0.3585  0.0279
 3005TIP3    H133210   4.895   4.552  16.674 -2.5600 -0.5755 -2.1152
 3005TIP3    H233211   4.888   4.476  16.805  1.7814  0.2627 -1.2439
 3006TIP3   OH233212   6.238   0.973  15.958 -0.2931  0.4122  0.2747
 3006TIP3    H133213   6.252   0.930  15.874  0.9437  0.9407  0.1925
 3006TIP3    H233214   6.170   0.921  16.001 -0.5433 -0.1848 -0.8129
 3007TIP3   OH233215   3.455   3.887  17.894  0.3933  0.2734 -0.1009
 3007TIP3    H133216   3.503   3.952  17.945  1.7696  0.0331 -1.0197
 3007TIP3    H233217   3.370   3.927  17.875 -0.5053  0.0582  3.0030
 3008TIP3   OH233218   6.099   2.952  15.108  0.2840 -0.0211  0.1178
 3008TIP3    H133219   6.070   2.875  15.156  0.5548 -1.8773 -2.4426
 3008TIP3    H233220   6.189   2.967  15.137  0.1924 -0.6235  0.7207
 3009TIP3   OH233221   4.246   2.921  16.064  0.2102  0.0610 -0.5159
 3009TIP3    H133222   4.291   2.980  16.125 -1.4076 -0.3545  1.1720
 3009TIP3    H233223   4.243   2.837  16.110 -3.1786  0.3213  0.0275
 3010TIP3   OH233224   4.133   5.537  14.882  0.0393 -0.6243  0.5131
 3010TIP3    H133225   4.180   5.566  14.803  0.9138 -1.9916  0.4871
 3010TIP3    H233226   4.195   5.479  14.926 -0.7803 -0.5983  1.7527
 3011TIP3   OH233227   4.128   5.630  15.432  0.9218  0.2299 -0.2902
 3011TIP3    H133228   4.049   5.594  15.473  1.2837  0.6726  0.8166
 3011TIP3    H233229   4.096   5.671  15.351  0.1358 -0.2643 -0.2422
 3012TIP3   OH233230   2.460   2.073  14.954 -0.8109 -0.0720  0.4956
 3012TIP3    H133231   2.446   2.054  14.861 -0.6904  1.5421  0.1151
 3012TIP3    H233232   2.439   2.166  14.963 -0.5006 -0.1231  2.0262
 3013TIP3   OH233233   4.922   2.181  17.912 -0.1578 -0.3361 -0.3601
 3013TIP3    H133234   4.849   2.174  17.973 -0.7424 -0.4288 -1.0534
 3013TIP3    H233235   4.948   2.090  17.894 -1.1494 -0.4006 -1.5971
 3014TIP3   OH233236   6.304   1.909  14.840  0.0364 -0.0550  0.0110
 3014TIP3    H133237   6.242   1.965  14.886  2.2472  0.4594  2.5667
 3014TIP3    H233238   6.301   1.826  14.887  1.4283  0.0612  0.3473
 3015TIP3   OH233239   4.272   6.109  17.557 -0.6756  0.9007 -0.1262
 3015TIP3    H133240   4.216   6.038  17.523  0.8457 -0.6273  0.4086
 3015TIP3    H233241   4.258   6.106  17.652  0.1626  0.6087 -0.0043
 3016TIP3   OH233242   1.694   1.303  15.756 -0.8620 -0.0523  0.1812
 3016TIP3    H133243   1.651   1.301  15.841  0.0902  1.7649  0.7638
 3016TIP3    H233244   1.775   1.353  15.771 -0.1284 -0.6358 -1.5483
 3017TIP3   OH233245   5.102   4.682  14.862 -0.2758 -0.0153 -0.1456
 3017TIP3    H133246   5.037   4.693  14.793  1.8618  1.1882 -2.0775
 3017TIP3    H233247   5.155   4.761  14.858  1.5260 -1.0834  1.1570
 3018TIP3   OH233248   1.588   0.908  17.024 -0.1106  0.9035  0.2277
 3018TIP3    H133249   1.630   0.920  16.939  2.4803  0.1683  1.3168
 3018TIP3    H233250   1.585   0.813  17.036 -1.2240  0.9780  0.6232
 3019TIP3   OH233251   3.012   1.654  17.064 -0.5681 -0.3309 -0.6761
 3019TIP3    H133252   2.917   1.643  17.061 -0.6983  0.8309 -2.6531
 3019TIP3    H233253   3.045   1.570  17.096 -2.3752  0.3473  3.6544
 3020TIP3   OH233254   1.836   3.089  15.233 -0.3916 -0.4325  0.3362
 3020TIP3    H133255   1.802   3.069  15.146 -0.2079  0.2784  0.0916
 3020TIP3    H233256   1.869   3.005  15.266 -0.0688 -0.6262 -0.4514
 3021TIP3   OH233257   4.884   2.191  15.843  0.6058  0.2762 -0.0543
 3021TIP3    H133258   4.806   2.241  15.870  0.3530 -0.9346  1.6095
 3021TIP3    H233259   4.850   2.127  15.780  0.9658  2.1976 -2.3718
 3022TIP3   OH233260   2.557   6.095  18.012 -0.4052  0.4718  0.0611
 3022TIP3    H133261   2.501   6.155  17.964 -1.1154  1.0978  1.6216
 3022TIP3    H233262   2.582   6.142  18.091  0.7088 -0.5352  0.3474
 3023TIP3   OH233263   2.096   6.340  16.569 -0.2034  0.7236  0.3030
 3023TIP3    H133264   2.034   6.271  16.544  0.5397 -0.0949  0.6685
 3023TIP3    H233265   2.130   6.372  16.485  2.3714 -2.0977  0.0743
 3024TIP3   OH233266   3.352   0.814  15.732  0.1253 -0.5185 -0.2401
 3024TIP3    H133267   3.375   0.898  15.694  0.3290  0.2261  1.4285
 3024TIP3    H233268   3.279   0.833  15.790  0.7133 -1.3184  0.8069
 3025TIP3   OH233269   4.323   4.217  16.632  0.2836  0.2386  0.1350
 3025TIP3    H133270   4.271   4.210  16.552 -0.9890 -1.1359  1.0203
 3025TIP3    H233271   4.318   4.130  16.671 -2.5142  1.7532  3.7218
 3026TIP3   OH233272   3.567   0.992  15.071 -0.0376 -0.1120  0.7158
 3026TIP3    H133273   3.510   1.004  15.147  0.3575 -0.3660  1.0562
 3026TIP3    H233274   3.517   0.935  15.013  0.3415 -1.3476  1.5524
 3027TIP3   OH233275   6.676   1.458  15.161 -0.6564  0.1327  0.8268
 3027TIP3    H133276   6.669   1.407  15.080 -4.2496  0.0016  1.0658
 3027TIP3    H233277   6.702   1.545  15.132  0.4547 -0.4858 -0.1460
 3028TIP3   OH233278   6.119   4.073  16.967  0.0047 -0.3094  0.3219
 3028TIP3    H133279   6.136   4.150  16.912  0.3203  0.1131  1.0012
 3028TIP3    H233280   6.036   4.038  16.934 -0.2867  0.4861  0.1886
 3029TIP3   OH233281   5.342   5.037  16.730 -0.1449 -0.1517 -0.0815
 3029TIP3    H133282   5.277   4.988  16.680 -0.4788 -0.5541  0.7263
 3029TIP3    H233283   5.388   5.091  16.665 -0.8911 -0.3007 -0.7372
 3030TIP3   OH233284   6.435   0.925  16.589  0.0929 -0.4105  0.3068
 3030TIP3    H133285   6.453   1.016  16.565  4.3487 -0.8681  1.0880
 3030TIP3    H233286   6.368   0.931  16.657 -1.2094  1.9169 -1.0683
 3031TIP3   OH233287   4.058   1.086  17.370 -0.2620  0.0428 -0.1988
 3031TIP3    H133288   4.056   1.159  17.432 -0.8193  2.8044 -3.1621
 3031TIP3    H233289   3.968   1.054  17.367 -0.1431 -0.3902  0.6897
 3032TIP3   OH233290   2.889   2.999  16.578  0.0619  0.2356 -0.3193
 3032TIP3    H133291   2.832   3.053  16.523 -0.8796  1.6692  1.9160
 3032TIP3    H233292   2.829   2.954  16.637  1.0899 -0.4255  0.2411
 3033TIP3   OH233293   3.304   6.378  17.881 -0.3508 -0.2403  0.4657
 3033TIP3    H133294   3.387   6.337  17.859 -1.2081 -2.3582  0.9614
 3033TIP3    H233295   3.323   6.432  17.958  0.6896 -0.1112  0.1263
 3034TIP3   OH233296   6.172   0.555  15.537  0.0029 -0.0795 -0.3377
 3034TIP3    H133297   6.114   0.566  15.462 -0.2330  1.6607  0.0547
 3034TIP3    H233298   6.234   0.627  15.531  1.3922 -1.2136 -0.0781
 3035TIP3   OH233299   4.361   1.069  15.100  0.4091 -0.0242  0.6359
 3035TIP3    H133300   4.396   1.034  15.181  1.3566  0.1235  0.3046
 3035TIP3    H233301   4.419   1.036  15.032  1.1020  1.8291  0.2774
 3036TIP3   OH233302   5.742   3.032  15.498 -0.5336  0.4044 -0.1902
 3036TIP3    H133303   5.650   3.012  15.515 -0.6768 -0.5408 -1.8503
 3036TIP3    H233304   5.741   3.121  15.461 -0.4229  1.6056  2.4632
 3037TIP3   OH233305   5.257   0.393  14.314 -0.3110  0.2611  0.1268
 3037TIP3    H133306   5.249   0.324  14.248  0.7681 -0.8546  1.1174
 3037TIP3    H233307   5.330   0.447  14.283 -0.5081  0.3793 -0.1369
 3038TIP3   OH233308   6.098   1.711  14.910  0.4216 -0.0527  0.4441
 3038TIP3    H133309   6.151   1.631  14.905 -0.1751 -0.5448  1.6066
 3038TIP3    H233310   6.053   1.716  14.826  0.2844 -1.0725  0.4533
 3039TIP3   OH233311   6.220   4.334  16.370  0.0987  0.0712 -0.1273
 3039TIP3    H133312   6.160   4.305  16.438 -1.0567  1.5357 -0.4719
 3039TIP3    H233313   6.294   4.273  16.376 -1.1923 -1.5156  0.6064
 3040TIP3   OH233314   6.430   5.987  15.290 -0.3870  0.2811  0.6279
 3040TIP3    H133315   6.356   6.046  15.277 -1.3886 -1.3017 -1.5199
 3040TIP3    H233316   6.395   5.916  15.342 -0.4126 -0.4623 -0.3722
 3041TIP3   OH233317   2.392   2.684  16.616 -0.5072 -0.1329 -0.8019
 3041TIP3    H133318   2.322   2.629  16.581 -0.1762  0.1104 -1.8903
 3041TIP3    H233319   2.472   2.634  16.600 -0.4059 -0.4327  0.4805
 3042TIP3   OH233320   2.371   2.309  14.793 -0.4086 -0.3440  0.1501
 3042TIP3    H133321   2.415   2.250  14.732 -1.9583 -0.3344 -1.0362
 3042TIP3    H233322   2.298   2.345  14.743 -2.5390 -1.3026  2.3350
 3043TIP3   OH233323   2.251   2.486  16.464 -1.2257  0.0960  0.1647
 3043TIP3    H133324   2.292   2.405  16.434 -1.7371 -0.9773  2.1397
 3043TIP3    H233325   2.218   2.528  16.385  0.5690 -0.7339 -1.0906
 3044TIP3   OH233326   2.572   5.449  17.073  0.3754  0.2337  0.2380
 3044TIP3    H133327   2.496   5.392  17.088  1.0210 -0.3441  1.5392
 3044TIP3    H233328   2.587   5.492  17.157  1.2845  0.5948 -0.0939
 3045TIP3   OH233329   4.291   2.265  15.464  0.0206  0.1570  0.2662
 3045TIP3    H133330   4.317   2.198  15.400 -0.0986 -0.1635  0.5465
 3045TIP3    H233331   4.201   2.242  15.486 -0.9940  1.9733 -1.6115
 3046TIP3   OH233332   2.951   1.251  15.752  0.0738  0.2400  0.0959
 3046TIP3    H133333   2.931   1.309  15.825  0.2616 -0.1719  0.4786
 3046TIP3    H233334   3.045   1.259  15.740  0.1079 -0.0095  0.1780
 3047TIP3   OH233335   0.541   2.284  17.348 -0.2501  0.4478  0.0396
 3047TIP3    H133336   0.629   2.313  17.325 -0.0571  0.7597  1.0827
 3047TIP3    H233337   0.493   2.365  17.364 -0.9951  0.3140 -1.3812
 3048TIP3   OH233338   1.009   6.182  15.145  0.4248  0.6824 -0.0695
 3048TIP3    H133339   0.950   6.151  15.214 -1.2792  0.0288 -1.7265
 3048TIP3    H233340   1.091   6.136  15.162  0.2930  1.0944  1.9198
 3049TIP3   OH233341   6.423   6.222  15.897 -1.1272  0.2293 -0.3430
 3049TIP3    H133342   6.467   6.197  15.978  1.0881  0.8537 -1.2791
 3049TIP3    H233343   6.347   6.274  15.926  0.2969  1.4877  1.3315
 3050TIP3   OH233344   4.749   0.347  16.560  0.2819 -0.1429  0.0601
 3050TIP3    H133345   4.795   0.269  16.592 -0.3605  0.2859  2.2144
 3050TIP3    H233346   4.729   0.397  16.640 -0.9196  1.3357 -1.1102
 3051TIP3   OH233347   3.644   1.198  16.200  0.3468  1.0604 -0.1360
 3051TIP3    H133348   3.738   1.190  16.188  0.3676  1.2707 -0.1117
 3051TIP3    H233349   3.631   1.189  16.295  0.1307 -1.1501 -0.3131
 3052TIP3   OH233350   3.647   6.017  17.788  0.0228  0.7109 -0.1274
 3052TIP3    H133351   3.713   5.972  17.841 -0.5245  0.6678  0.5377
 3052TIP3    H233352   3.644   5.968  17.706  1.0635  0.9291 -0.3188
 3053TIP3   OH233353   2.357   2.591  15.999 -0.3685 -0.3491  0.9433
 3053TIP3    H133354   2.417   2.603  15.926 -0.7705 -2.3061  0.2255
 3053TIP3    H233355   2.336   2.680  16.028 -0.1882  0.4923 -1.3026
 3054TIP3   OH233356   4.129   6.331  15.413 -0.0538 -0.1567  0.3603
 3054TIP3    H133357   4.069   6.257  15.398 -0.2630  0.1214 -0.2459
 3054TIP3    H233358   4.148   6.364  15.325 -0.5768  0.9892  0.6465
 3055TIP3   OH233359   2.826   3.541  16.134 -0.4860 -0.0302  0.2737
 3055TIP3    H133360   2.863   3.625  16.161  0.8080  0.0368 -1.5428
 3055TIP3    H233361   2.865   3.524  16.048 -0.6011 -2.5639  0.6488
 3056TIP3   OH233362   3.158   5.404  16.032 -0.3605  0.0799 -0.1424
 3056TIP3    H133363   3.215   5.434  15.961  0.3399  1.0827  0.8128
 3056TIP3    H233364   3.070   5.423  16.002  0.0187  2.7029  0.1710
 3057TIP3   OH233365   3.118   2.530  16.026  0.6786  0.4932  0.2766
 3057TIP3    H133366   3.207   2.563  16.029  0.5450  0.7479  2.1616
 3057TIP3    H233367   3.127   2.441  15.990  1.8555  0.0315  1.6363
 3058TIP3   OH233368   4.723   1.317  17.205  0.3476 -0.2048 -0.2526
 3058TIP3    H133369   4.801   1.262  17.215  0.7367  0.2222 -0.8588
 3058TIP3    H233370   4.667   1.268  17.145  0.7473  0.1030 -0.8902
 3059TIP3   OH233371   6.582   4.487  17.930 -0.3031  0.2674  0.1363
 3059TIP3    H133372   6.536   4.544  17.869  0.8469  0.6607 -0.4001
 3059TIP3    H233373   6.557   4.398  17.904  1.7215  0.2999 -2.2912
 3060TIP3   OH233374   0.749   4.916  17.090  0.4506  0.0536  0.0011
 3060TIP3    H133375   0.842   4.917  17.068  0.0237  0.8471 -1.9551
 3060TIP3    H233376   0.706   4.873  17.016 -0.7590 -0.2289  0.8264
 3061TIP3   OH233377   4.269   4.796  15.691 -0.2345  0.5524 -0.5969
 3061TIP3    H133378   4.293   4.784  15.783  1.2067  1.4167 -0.8288
 3061TIP3    H233379   4.180   4.831  15.694 -0.8944 -1.0837  0.3729
 3062TIP3   OH233380   2.067   5.247  16.222 -0.4263  0.7202  0.8255
 3062TIP3    H133381   2.087   5.324  16.274 -1.5125  1.3956  0.2947
 3062TIP3    H233382   1.975   5.227  16.241 -0.8972  1.0608 -0.8676
 3063TIP3   OH233383   3.362   2.355  16.868  0.1369 -0.4788  0.2942
 3063TIP3    H133384   3.274   2.326  16.845  0.5027 -2.5425  1.1688
 3063TIP3    H233385   3.361   2.360  16.964  0.8015  0.0154  0.2820
 3064TIP3   OH233386   2.079   6.575  17.229 -0.7969  0.0052  0.5024
 3064TIP3    H133387   2.117   6.517  17.163 -1.8652 -0.6704  0.4570
 3064TIP3    H233388   2.012   6.624  17.182 -0.8398  0.2908  0.8550
 3065TIP3   OH233389   5.203   0.044  17.004 -0.0962 -1.0239  0.1025
 3065TIP3    H133390   5.159   0.117  17.047  1.5801 -0.7668  1.4418
 3065TIP3    H233391   5.279   0.026  17.058 -0.2160 -3.5031 -0.4356
 3066TIP3   OH233392   2.547   6.000  16.639  0.0349  0.2165  0.0841
 3066TIP3    H133393   2.620   5.978  16.697  0.3940 -0.5254 -0.6258
 3066TIP3    H233394   2.488   6.054  16.693  0.4791 -0.2428  1.0496
 3067TIP3   OH233395   3.446   4.068  17.306 -0.4554 -0.3931 -0.5424
 3067TIP3    H133396   3.354   4.068  17.333 -0.0951 -0.4213  0.7578
 3067TIP3    H233397   3.479   4.155  17.332  0.4067 -1.1341  0.9603
 3068TIP3   OH233398   2.093   5.251  15.860  0.7574 -0.2100 -0.0950
 3068TIP3    H133399   2.067   5.246  15.768 -1.0753 -0.2353  0.3907
 3068TIP3    H233400   2.022   5.209  15.907  0.9405  1.1459  1.4635
 3069TIP3   OH233401   2.044   2.271  17.471  0.4225 -0.6245  0.6007
 3069TIP3    H133402   2.129   2.299  17.507  0.9582 -0.7041 -0.5340
 3069TIP3    H233403   2.049   2.295  17.379  0.1100 -2.6611  0.0089
 3070TIP3   OH233404   2.627   6.362  15.561  0.4923  0.2921  0.6444
 3070TIP3    H133405   2.562   6.347  15.493  1.4472  1.7463 -0.6619
 3070TIP3    H233406   2.609   6.451  15.593 -0.6539 -0.7525  3.1715
 3071TIP3   OH233407   0.630   3.275  18.035  0.7866 -0.4137  0.0756
 3071TIP3    H133408   0.694   3.328  17.987  1.7217 -0.5346  1.1410
 3071TIP3    H233409   0.602   3.331  18.107 -0.7931 -0.1389 -0.7249
 3072TIP3   OH233410   2.198   6.708  17.434 -0.3491  0.0603  0.4854
 3072TIP3    H133411   2.202   6.797  17.400  0.9386 -0.7308 -1.5868
 3072TIP3    H233412   2.161   6.656  17.363 -2.7819 -0.8538  2.2774
 3073TIP3   OH233413   1.815   1.719  16.238  0.1899  0.5734 -0.0279
 3073TIP3    H133414   1.778   1.772  16.167 -0.0162  0.9108  0.3299
 3073TIP3    H233415   1.768   1.747  16.316  0.6339  0.4247  0.2957
 3074TIP3   OH233416   4.263   4.206  16.987  0.8625  0.3110  0.3457
 3074TIP3    H133417   4.175   4.208  16.950  0.6731  1.0135  0.8098
 3074TIP3    H233418   4.275   4.116  17.016  0.3903  0.1540  0.0636
 3075TIP3   OH233419   2.782   0.063  17.555 -0.7969 -0.4548 -0.0355
 3075TIP3    H133420   2.782   0.154  17.587  0.2954 -0.2047 -0.6626
 3075TIP3    H233421   2.700   0.055  17.507 -0.0381  0.8841 -1.6905
 3076TIP3   OH233422   4.753   4.999  16.523  0.1129 -0.9575  0.6270
 3076TIP3    H133423   4.715   4.940  16.458 -0.5210 -2.6293  2.4083
 3076TIP3    H233424   4.822   4.947  16.565  1.2800  0.4704  0.5603
 3077TIP3   OH233425   1.085   2.046  16.264  0.0275 -0.4727  0.2524
 3077TIP3    H133426   1.081   1.998  16.181  1.1966 -1.4977  0.7584
 3077TIP3    H233427   1.048   1.985  16.328 -1.5185  0.5696  0.4126
 3078TIP3   OH233428   0.509   2.393  16.687 -0.0664 -0.4978  0.5550
 3078TIP3    H133429   0.544   2.397  16.598  1.1290 -1.2582  0.9802
 3078TIP3    H233430   0.415   2.410  16.676  0.1659  0.0536 -0.7677
 3079TIP3   OH233431   6.551   3.292  17.077 -0.0118  0.5438  0.0466
 3079TIP3    H133432   6.614   3.264  17.011 -1.7039 -0.8006 -1.0857
 3079TIP3    H233433   6.525   3.210  17.120 -2.2740  0.7920 -0.7427
 3080TIP3   OH233434   1.831   5.692  15.952 -0.2599 -0.1750 -0.1488
 3080TIP3    H133435   1.747   5.703  15.998 -0.0644  1.6671 -0.1811
 3080TIP3    H233436   1.825   5.604  15.914 -0.8353 -1.4173  2.5352
 3081TIP3   OH233437   0.035   6.151  15.993 -0.1319  0.3906  0.3421
 3081TIP3    H133438   0.003   6.090  15.927 -0.6562  1.5516 -0.5308
 3081TIP3    H233439   0.075   6.222  15.942  0.5664  0.7147  1.3231
 3082TIP3   OH233440   0.036   4.515  15.681 -0.0695 -0.0446 -0.5588
 3082TIP3    H133441   0.012   4.453  15.612  1.9385  0.5531 -1.8697
 3082TIP3    H233442   0.067   4.460  15.753 -0.8339 -0.6363 -0.6729
 3083TIP3   OH233443   1.993   0.600  16.773  0.0610 -0.1890 -0.1780
 3083TIP3    H133444   2.063   0.622  16.711  1.0196  1.6386  1.4354
 3083TIP3    H233445   2.024   0.520  16.816  1.0260  0.4117  0.2752
 3084TIP3   OH233446   0.241   5.031  16.254 -0.1108 -0.1830 -0.2716
 3084TIP3    H133447   0.191   5.096  16.205 -1.9364 -1.9965 -0.9569
 3084TIP3    H233448   0.321   5.018  16.203 -0.9813 -0.4251 -1.6261
 3085TIP3   OH233449   3.763   5.105  14.706  0.1050 -0.4696  0.3940
 3085TIP3    H133450   3.790   5.031  14.761 -1.9684  0.3135  2.6405
 3085TIP3    H233451   3.679   5.078  14.669 -0.5333  0.6080  1.0126
 3086TIP3   OH233452   5.358   6.411  14.036 -0.4136 -0.4438  0.0137
 3086TIP3    H133453   5.273   6.377  14.009 -0.9267  1.4944 -0.9575
 3086TIP3    H233454   5.418   6.337  14.025 -1.8657 -1.7111  0.2944
 3087TIP3   OH233455   6.468   6.703  15.125 -0.1616  0.4978  0.6328
 3087TIP3    H133456   6.427   6.784  15.156 -0.6097 -0.0627  1.5653
 3087TIP3    H233457   6.394   6.650  15.094 -0.0705 -0.2001  1.5654
 3088TIP3   OH233458   6.293   5.440  15.935 -0.0896  0.4509  0.6479
 3088TIP3    H133459   6.368   5.496  15.953 -0.5878  1.0570  0.8832
 3088TIP3    H233460   6.274   5.397  16.018 -0.1866  0.5275  0.6653
 3089TIP3   OH233461   5.326   2.177  15.044  0.0463 -0.2373  0.6346
 3089TIP3    H133462   5.340   2.097  14.994 -0.5509 -0.8757  1.4723
 3089TIP3    H233463   5.286   2.238  14.981  1.4389 -0.2198 -0.2911
 3090TIP3   OH233464   6.033   0.380  17.581 -0.3787 -0.1149  0.5859
 3090TIP3    H133465   5.952   0.330  17.574 -1.0873  0.8988  1.1586
 3090TIP3    H233466   6.027   0.445  17.511 -0.6090  0.6834  1.3282
 3091TIP3   OH233467   3.087   0.543  17.609  0.6896 -0.5975  0.0082
 3091TIP3    H133468   3.083   0.634  17.579  0.8717 -0.0471  1.5768
 3091TIP3    H233469   3.011   0.532  17.665 -0.3291 -1.9799 -1.5472
 3092TIP3   OH233470   4.294   1.889  16.888  0.0805 -0.5124  0.2338
 3092TIP3    H133471   4.234   1.833  16.936 -0.5450 -0.4909 -0.4978
 3092TIP3    H233472   4.375   1.887  16.939 -0.0677 -1.7178  0.4531
 3093TIP3   OH233473   1.035   5.327  16.570  0.1583 -0.2837  0.2903
 3093TIP3    H133474   1.095   5.350  16.499 -0.4651 -1.0671 -0.5091
 3093TIP3    H233475   1.067   5.243  16.602 -0.7016 -0.8975 -0.3975
 3094TIP3   OH233476   4.142   0.408  15.568  0.2554 -0.3484  0.0583
 3094TIP3    H133477   4.153   0.499  15.540 -0.5644 -0.0407  0.7127
 3094TIP3    H233478   4.218   0.363  15.532  1.2273  0.7938  0.6110
 3095TIP3   OH233479   4.170   3.932  15.650 -0.5234  0.3978  0.3128
 3095TIP3    H133480   4.122   3.909  15.730 -1.6499 -1.4219 -0.8307
 3095TIP3    H233481   4.102   3.946  15.584  0.4348  0.6663 -0.6563
 3096TIP3   OH233482   2.322   1.402  15.643  0.1974  0.1616  0.2158
 3096TIP3    H133483   2.275   1.320  15.659  0.4468  0.3330  2.1470
 3096TIP3    H233484   2.406   1.375  15.606 -0.0574 -0.3844  0.0260
 3097TIP3   OH233485   2.698   1.289  16.332  0.5172 -0.0656 -0.0760
 3097TIP3    H133486   2.661   1.375  16.349  1.6082  0.9726 -2.5400
 3097TIP3    H233487   2.778   1.286  16.385 -0.3932 -0.3242  1.3562
 3098TIP3   OH233488   5.894   1.301  16.640 -0.0145  0.2562 -0.1094
 3098TIP3    H133489   5.931   1.216  16.662  0.1308  0.7010  1.4815
 3098TIP3    H233490   5.931   1.322  16.554  0.4738 -0.9616 -0.2200
 3099TIP3   OH233491   5.278   0.750  17.120  0.3595 -0.1254  0.2524
 3099TIP3    H133492   5.205   0.751  17.058  1.6056  3.3421 -1.4023
 3099TIP3    H233493   5.237   0.736  17.205 -2.0445  0.0359 -0.7968
 3100TIP3   OH233494   5.755   0.289  15.478 -0.0138 -0.3423  0.3669
 3100TIP3    H133495   5.723   0.205  15.509  0.0214 -0.6597 -0.4335
 3100TIP3    H233496   5.751   0.346  15.555  0.2189 -1.1429  0.9894
 3101TIP3   OH233497   2.826   1.025  16.745  0.1687  0.6136  0.5438
 3101TIP3    H133498   2.756   1.008  16.682 -0.4031 -0.0051  1.3328
 3101TIP3    H233499   2.842   0.940  16.787  0.5589  1.0114  1.2188
 3102TIP3   OH233500   4.678   2.508  16.204  0.1262  1.0081  0.2571
 3102TIP3    H133501   4.761   2.541  16.237 -0.1893  0.8660  1.2172
 3102TIP3    H233502   4.669   2.548  16.118  0.4026  2.3704  0.8332
 3103TIP3   OH233503   6.310   4.999  17.987 -0.1993  0.2165  0.2578
 3103TIP3    H133504   6.230   4.988  17.935 -0.5022 -1.6552  1.0126
 3103TIP3    H233505   6.282   4.978  18.077  1.0483 -0.0416  0.5960
 3104TIP3   OH233506   4.846   6.021  16.090  0.0519 -0.5113 -0.0805
 3104TIP3    H133507   4.934   6.002  16.057 -0.0285  1.4660 -1.6768
 3104TIP3    H233508   4.855   6.024  16.185  2.2179  1.5758 -0.2608
 3105TIP3   OH233509   3.009   3.288  16.656 -0.2149  0.0040 -0.5768
 3105TIP3    H133510   3.084   3.233  16.638  1.6147  2.0423  0.3668
 3105TIP3    H233511   2.988   3.270  16.748 -0.5298 -0.1425 -0.6750
 3106TIP3   OH233512   5.455   4.553  15.560  0.2875  0.4262  0.4601
 3106TIP3    H133513   5.496   4.569  15.475 -1.2872 -1.9615 -0.8529
 3106TIP3    H233514   5.525   4.516  15.613  0.2948 -2.4992 -1.3735
 3107TIP3   OH233515   1.129   6.447  17.640 -0.1773  0.9223  0.3937
 3107TIP3    H133516   1.187   6.512  17.678 -0.6855  1.1458  0.8014
 3107TIP3    H233517   1.184   6.396  17.581  0.2159  1.7323  0.0579
 3108TIP3   OH233518   3.938   3.960  16.820 -0.3021  0.2049 -0.1299
 3108TIP3    H133519   3.860   3.967  16.874  0.0355  1.3464  0.2426
 3108TIP3    H233520   3.990   3.891  16.861 -0.5030  0.3733  0.4084
 3109TIP3   OH233521   1.852   4.056  17.621  0.0590  0.6394 -0.0289
 3109TIP3    H133522   1.820   3.977  17.665 -1.8049  1.9500  1.0676
 3109TIP3    H233523   1.835   4.127  17.682 -2.4840  2.5290 -2.6837
 3110TIP3   OH233524   6.371   3.231  17.806  0.3920 -0.1013  0.1649
 3110TIP3    H133525   6.338   3.207  17.719 -0.0262  0.2583  0.2167
 3110TIP3    H233526   6.415   3.153  17.838  1.3641  0.0527 -0.7617
 3111TIP3   OH233527   2.987   6.049  14.944  0.1144 -0.3575 -0.2248
 3111TIP3    H133528   2.978   6.136  14.906  0.1555 -1.0290 -1.8944
 3111TIP3    H233529   2.909   6.037  14.997  1.0727  1.4369  1.7219
 3112TIP3   OH233530   0.960   4.338  15.206  0.2667 -0.2632 -0.3861
 3112TIP3    H133531   0.950   4.297  15.120  2.4848 -1.0464 -0.3359
 3112TIP3    H233532   1.017   4.414  15.190 -0.7615  0.6385  0.1252
 3113TIP3   OH233533   5.282   4.006  17.001  0.3525  0.3155 -0.3087
 3113TIP3    H133534   5.272   3.911  17.007  1.0446  0.3025  0.8387
 3113TIP3    H233535   5.372   4.020  16.973  0.1820  0.6449 -0.7171
 3114TIP3   OH233536   5.599   1.269  15.662 -0.1374 -0.3018 -0.2303
 3114TIP3    H133537   5.628   1.343  15.609 -1.0959  0.1670 -0.1268
 3114TIP3    H233538   5.511   1.293  15.690  0.6890 -0.0178  2.4742
 3115TIP3   OH233539   3.120   0.207  15.587  0.3243 -0.5037  0.0371
 3115TIP3    H133540   3.211   0.190  15.561  0.3191 -1.6925  0.7416
 3115TIP3    H233541   3.095   0.285  15.536  0.8448 -1.7634 -2.2936
 3116TIP3   OH233542   4.064   6.257  17.425 -0.0065  0.1365  0.2558
 3116TIP3    H133543   4.087   6.166  17.444  0.8696  0.2020 -0.4084
 3116TIP3    H233544   4.149   6.301  17.416 -0.4205  0.8429 -0.2702
 3117TIP3   OH233545   3.875   0.205  17.062 -0.3583  0.0134  0.2475
 3117TIP3    H133546   3.854   0.195  16.969  1.3157 -0.5731 -0.1044
 3117TIP3    H233547   3.868   0.117  17.099 -1.4465  0.3118  0.7990
 3118TIP3   OH233548   4.323   4.595  15.536 -0.0320 -0.4924  0.7015
 3118TIP3    H133549   4.336   4.633  15.449  1.1328  0.5613  1.2991
 3118TIP3    H233550   4.290   4.668  15.589 -0.6868 -1.1136  1.1617
 3119TIP3   OH233551   3.677   2.759  17.309  0.1848  0.5423 -0.3842
 3119TIP3    H133552   3.731   2.791  17.236  0.0119  0.5555 -0.5080
 3119TIP3    H233553   3.598   2.724  17.266  0.4243 -0.1652 -0.2602
 3120TIP3   OH233554   0.188   3.492  17.509 -0.0214  0.5141 -0.6504
 3120TIP3    H133555   0.184   3.472  17.416  0.5192 -0.7105 -0.4237
 3120TIP3    H233556   0.188   3.588  17.512 -2.4926  0.6106 -1.7739
 3121TIP3   OH233557   3.229   1.380  15.269  0.1081 -0.2059  0.1716
 3121TIP3    H133558   3.283   1.432  15.329  0.8339  0.2295 -0.8312
 3121TIP3    H233559   3.142   1.379  15.309  0.6122 -0.0683  1.3116
 3122TIP3   OH233560   5.704   4.851  17.520  0.1826  0.2930  0.2569
 3122TIP3    H133561   5.756   4.832  17.442 -0.8631  0.0055 -0.3798
 3122TIP3    H233562   5.614   4.859  17.489 -0.2283  0.3844  1.4036
 3123TIP3   OH233563   3.044   5.785  14.884  0.1060 -0.1256 -0.4384
 3123TIP3    H133564   3.018   5.876  14.901  0.1716 -0.4952  2.0260
 3123TIP3    H233565   3.136   5.792  14.858  0.0237  0.5262 -0.5855
 3124TIP3   OH233566   4.512   0.137  17.562 -0.2718 -0.3490 -0.3081
 3124TIP3    H133567   4.585   0.170  17.616 -1.4449  0.0992  1.0662
 3124TIP3    H233568   4.542   0.052  17.531  1.6590  0.6910 -1.5043
 3125TIP3   OH233569   1.046   0.063  15.771  0.1086  0.5859 -0.1722
 3125TIP3    H133570   1.026   0.040  15.861  0.4442  0.9119 -0.0157
 3125TIP3    H233571   0.961   0.060  15.726  0.2298 -1.7958 -0.3636
 3126TIP3   OH233572   6.587   6.672  16.866  0.2082  0.1308 -0.5398
 3126TIP3    H133573   6.643   6.611  16.818  0.3398 -1.5153  1.5719
 3126TIP3    H233574   6.519   6.617  16.905 -0.3280  1.4850  0.5141
 3127TIP3   OH233575   4.629   2.104  17.326  0.4115 -0.2117  0.1239
 3127TIP3    H133576   4.665   2.016  17.322  0.0448 -0.4187  1.1398
 3127TIP3    H233577   4.662   2.147  17.247  2.6090 -0.4785  0.8376
 3128TIP3   OH233578   5.810   0.666  17.014 -0.2736  0.3582 -0.0095
 3128TIP3    H133579   5.860   0.585  17.020 -0.5351  0.1188 -0.8262
 3128TIP3    H233580   5.736   0.654  17.074 -1.1982 -0.6883 -1.2968
 3129TIP3   OH233581   3.386   5.447  14.754 -0.2427  0.1124 -0.3353
 3129TIP3    H133582   3.325   5.379  14.726 -1.3975  1.1138 -0.3408
 3129TIP3    H233583   3.425   5.412  14.834 -0.5408 -0.7019 -0.5322
 3130TIP3   OH233584   4.090   5.395  15.711  0.2854 -0.3406 -0.0375
 3130TIP3    H133585   4.144   5.369  15.635 -0.9298 -0.9951 -0.7108
 3130TIP3    H233586   4.002   5.406  15.675  0.1330  1.7615  0.8351
 3131TIP3   OH233587   0.208   3.052  16.413  0.3065 -0.0692  0.2095
 3131TIP3    H133588   0.112   3.051  16.416  0.2516 -1.1425 -1.1703
 3131TIP3    H233589   0.233   3.112  16.483 -1.4342  1.8806 -0.7298
 3132TIP3   OH233590   2.199   1.498  16.010 -0.2440 -0.1830 -0.4774
 3132TIP3    H133591   2.179   1.533  15.924 -0.1114  1.9138  0.2864
 3132TIP3    H233592   2.163   1.562  16.071  2.0461 -0.1712  0.9944
 3133TIP3   OH233593   3.700   0.619  17.618  0.2130 -0.3949 -0.2648
 3133TIP3    H133594   3.774   0.680  17.623 -0.2738  0.2350 -0.5877
 3133TIP3    H233595   3.735   0.536  17.650  0.8396  0.0992  0.3534
 3134TIP3   OH233596   6.281   1.798  15.717 -0.2549  0.1445 -0.0398
 3134TIP3    H133597   6.307   1.875  15.767 -2.2318  1.4537 -0.9106
 3134TIP3    H233598   6.336   1.800  15.638 -0.5911  0.9224 -0.2577
 3135TIP3   OH233599   6.137   0.294  15.647 -0.6798  0.0002  0.3185
 3135TIP3    H133600   6.148   0.386  15.624 -1.9054 -0.5273 -2.8087
 3135TIP3    H233601   6.207   0.249  15.602 -2.4638 -0.9651 -1.6485
 3136TIP3   OH233602   4.223   4.484  16.386 -0.3269 -0.4103 -0.0746
 3136TIP3    H133603   4.181   4.556  16.433  0.1990 -0.8012  1.0407
 3136TIP3    H233604   4.316   4.494  16.406  0.2024  0.5759 -2.6934
 3137TIP3   OH233605   1.990   3.769  17.603 -0.7010 -0.1859 -0.2364
 3137TIP3    H133606   2.038   3.852  17.613  0.3449 -0.8941  0.7901
 3137TIP3    H233607   2.029   3.728  17.526  0.8713 -1.0646  0.9745
 3138TIP3   OH233608   2.194   5.323  14.451  0.0467  0.2391  0.8717
 3138TIP3    H133609   2.104   5.343  14.478 -0.2340 -1.8012  1.5760
 3138TIP3    H233610   2.246   5.335  14.531  0.1232 -0.2851  0.9001
 3139TIP3   OH233611   2.197   3.521  15.263  0.1033 -0.6320 -0.4001
 3139TIP3    H133612   2.209   3.508  15.169 -0.7170  2.3066 -1.0178
 3139TIP3    H233613   2.113   3.566  15.271  0.0991 -0.9084  1.7736
 3140TIP3   OH233614   4.006   3.490  16.416  0.0165  0.6850  0.3187
 3140TIP3    H133615   4.011   3.482  16.511 -1.0380  0.4354  0.3571
 3140TIP3    H233616   4.081   3.546  16.393  0.4840  0.4639  1.2462
 3141TIP3   OH233617   1.087   5.657  15.927 -0.3099  0.2147 -1.0758
 3141TIP3    H133618   1.124   5.744  15.941  0.5331 -0.1165 -1.2032
 3141TIP3    H233619   0.994   5.673  15.909  0.0701  1.1717 -2.2617
 3142TIP3   OH233620   4.217   3.294  17.882 -0.1079  0.2470 -0.1487
 3142TIP3    H133621   4.155   3.323  17.814 -0.0899  0.9310  0.1153
 3142TIP3    H233622   4.164   3.243  17.942 -0.0067 -0.8860 -0.9924
 3143TIP3   OH233623   5.856   5.716  16.899  0.9381 -0.6186 -0.3098
 3143TIP3    H133624   5.906   5.782  16.948 -1.2064  2.4004 -1.8320
 3143TIP3    H233625   5.900   5.711  16.814  0.8079 -0.7736 -0.3692
 3144TIP3   OH233626   2.169   0.044  15.760 -0.2713  0.4990  0.1722
 3144TIP3    H133627   2.147   0.064  15.669 -0.1063 -0.5140 -0.0960
 3144TIP3    H233628   2.252   0.090  15.775 -0.3187  0.7011 -0.1767
 3145TIP3   OH233629   4.733   0.042  16.370  0.5885 -0.3455 -0.1530
 3145TIP3    H133630   4.645   0.046  16.332  0.4709  0.7616  0.2123
 3145TIP3    H233631   4.781   0.113  16.328  0.5248  0.7549  1.5412
 3146TIP3   OH233632   5.133   6.019  15.195 -0.8175  0.7571 -0.2570
 3146TIP3    H133633   5.172   5.941  15.234 -1.5648  0.2462 -0.5040
 3146TIP3    H233634   5.051   5.988  15.156 -0.7498  1.5084 -1.0423
 3147TIP3   OH233635   0.572   5.998  16.051  0.1270  0.2911  0.3531
 3147TIP3    H133636   0.585   5.922  16.108  0.5241 -0.8055 -1.1431
 3147TIP3    H233637   0.481   6.024  16.066 -0.1060 -0.6696  0.6400
 3148TIP3   OH233638   2.070   4.601  16.623  0.0844 -0.4174  0.2946
 3148TIP3    H133639   2.031   4.651  16.695 -1.3617 -2.0985  0.7495
 3148TIP3    H233640   2.083   4.513  16.659  2.2863 -0.4909 -0.5697
 3149TIP3   OH233641   2.840   1.697  16.095  0.6319  0.2491 -0.1718
 3149TIP3    H133642   2.904   1.751  16.142  0.0670  0.1733  0.6878
 3149TIP3    H233643   2.766   1.688  16.155  0.2432 -0.5418 -0.7474
 3150TIP3   OH233644   0.937   3.816  16.351 -0.5470  0.2233 -0.1708
 3150TIP3    H133645   0.933   3.731  16.395 -2.3355  0.4184  0.1392
 3150TIP3    H233646   0.993   3.802  16.275  0.8445 -0.6807  0.9692
 3151TIP3   OH233647   2.032   2.992  14.875  0.2994 -0.0030 -0.0889
 3151TIP3    H133648   2.119   2.953  14.875  0.9630  1.2544 -2.1126
 3151TIP3    H233649   1.980   2.933  14.821 -0.4536 -1.3403  2.0269
 3152TIP3   OH233650   2.628   0.407  17.044  0.2099 -0.2288 -0.6564
 3152TIP3    H133651   2.542   0.366  17.039  0.1546 -0.7115  2.4512
 3152TIP3    H233652   2.611   0.494  17.082  0.8676  0.7411 -2.4728
 3153TIP3   OH233653   2.171   2.790  16.734 -0.1780  0.4518  0.0087
 3153TIP3    H133654   2.211   2.790  16.821 -0.9215 -0.5529  0.3673
 3153TIP3    H233655   2.244   2.780  16.674  0.3294  1.0071  0.5204
 3154TIP3   OH233656   4.262   5.998  15.254 -0.0221  0.0055  0.0093
 3154TIP3    H133657   4.351   5.989  15.289  0.1526 -0.2160 -0.4801
 3154TIP3    H233658   4.274   6.035  15.167 -0.1755 -2.5052 -1.1750
 3155TIP3   OH233659   1.432   5.697  16.863  0.5664  0.7328  0.1384
 3155TIP3    H133660   1.472   5.635  16.924 -0.7670  0.0521  0.3573
 3155TIP3    H233661   1.437   5.654  16.778  0.9659  0.9853  0.0271
 3156TIP3   OH233662   2.707   4.482  17.352 -0.4666 -0.1751 -0.0263
 3156TIP3    H133663   2.619   4.459  17.380  0.4694 -1.7351  1.8763
 3156TIP3    H233664   2.715   4.445  17.264 -1.6088 -0.2373 -0.1194
 3157TIP3   OH233665   1.852   0.738  14.960  0.4038 -0.0180 -0.4102
 3157TIP3    H133666   1.770   0.692  14.942 -0.4089  0.0943  2.5117
 3157TIP3    H233667   1.921   0.679  14.928 -0.7394 -1.3683 -0.4400
 3158TIP3   OH233668   6.413   4.694  18.031 -0.2587 -0.3232 -0.4711
 3158TIP3    H133669   6.382   4.776  17.993  1.3887 -0.5126 -2.3976
 3158TIP3    H233670   6.508   4.701  18.028 -0.0669 -2.5833 -1.3670
 3159TIP3   OH233671   3.345   1.741  15.533  1.0667  0.2304 -0.6090
 3159TIP3    H133672   3.269   1.690  15.561  0.2004  1.1243 -1.2656
 3159TIP3    H233673   3.347   1.816  15.592  0.0785  1.3746 -1.9573
 3160TIP3   OH233674   0.939   0.786  14.512 -0.0281  0.1077 -0.2957
 3160TIP3    H133675   0.853   0.777  14.472  0.1742  0.2183 -0.7555
 3160TIP3    H233676   1.001   0.770  14.441  0.3509  2.4014 -0.5765
 3161TIP3   OH233677   5.894   0.602  16.348 -0.4457  0.3605 -0.1324
 3161TIP3    H133678   5.948   0.670  16.309 -1.0875  0.1303 -1.4776
 3161TIP3    H233679   5.918   0.602  16.441  0.7523  1.2756 -0.4269
 3162TIP3   OH233680   3.050   2.788  16.490  0.9333  0.3926  0.5727
 3162TIP3    H133681   3.035   2.780  16.584 -1.0467  0.6180  0.3285
 3162TIP3    H233682   2.991   2.858  16.462  1.7354  0.5598 -0.7883
 3163TIP3   OH233683   3.502   6.530  15.200 -0.1888 -0.2601 -0.2454
 3163TIP3    H133684   3.480   6.531  15.106 -1.7737 -1.0743  0.0823
 3163TIP3    H233685   3.418   6.541  15.244  0.5798  0.4029  1.0955
 3164TIP3   OH233686   0.911   5.120  15.042 -0.0446 -0.8803  0.4653
 3164TIP3    H133687   0.915   5.059  15.116 -1.9630  0.8752  2.1269
 3164TIP3    H233688   0.954   5.200  15.075 -2.0298  0.3551  0.2248
 3165TIP3   OH233689   4.403   3.537  16.751  0.3220 -0.2745 -0.0290
 3165TIP3    H133690   4.471   3.506  16.811 -1.4847 -1.2582  1.6258
 3165TIP3    H233691   4.450   3.554  16.670  2.3786 -2.0142  0.6692
 3166TIP3   OH233692   3.508   1.137  17.403 -0.4601  0.2764 -0.2326
 3166TIP3    H133693   3.426   1.178  17.377 -0.4987 -0.0245 -0.5834
 3166TIP3    H233694   3.509   1.053  17.358  0.7354  0.8981 -1.4281
 3167TIP3   OH233695   5.394   2.433  16.826 -0.6247  0.0621  0.3327
 3167TIP3    H133696   5.418   2.346  16.795 -2.8024 -1.3241  2.1798
 3167TIP3    H233697   5.472   2.464  16.872 -0.1711 -1.4721  0.6793
 3168TIP3   OH233698   5.962   2.903  15.545  0.1001  0.2449 -0.7204
 3168TIP3    H133699   5.918   2.818  15.545  0.2686  0.0147  2.6191
 3168TIP3    H233700   5.890   2.966  15.540 -0.3426 -0.1373  0.4393
 3169TIP3   OH233701   5.787   3.566  16.003  0.2303  0.3882 -0.1513
 3169TIP3    H133702   5.701   3.527  16.020  1.5551 -2.1757  1.1025
 3169TIP3    H233703   5.796   3.634  16.070 -1.3132  1.6407 -1.1422
 3170TIP3   OH233704   0.857   4.879  14.913  0.2473 -0.2258 -0.3229
 3170TIP3    H133705   0.912   4.956  14.901 -0.2686 -0.0841 -2.0686
 3170TIP3    H233706   0.769   4.914  14.925  0.4534 -0.4414  2.6501
 3171TIP3   OH233707   5.623   6.442  16.979  0.0526 -0.0315  0.8711
 3171TIP3    H133708   5.692   6.496  16.940 -1.0583  0.8902  0.1241
 3171TIP3    H233709   5.638   6.448  17.074  0.4842  0.8515  0.7554
 3172TIP3   OH233710   1.013   5.176  15.875  0.1128  0.0913  0.0692
 3172TIP3    H133711   1.024   5.142  15.786 -2.1805  0.7500 -0.5189
 3172TIP3    H233712   0.929   5.140  15.904  0.7287  0.0542  1.9077
 3173TIP3   OH233713   5.697   6.642  16.186  0.1287 -0.0059  0.2590
 3173TIP3    H133714   5.684   6.672  16.276  2.6272 -1.1923  1.1191
 3173TIP3    H233715   5.780   6.681  16.160 -0.4585  0.1427 -1.4928
 3174TIP3   OH233716   2.179   5.750  14.568 -0.8886 -0.4441  0.5982
 3174TIP3    H133717   2.211   5.707  14.489  0.7544 -0.4196  1.2205
 3174TIP3    H233718   2.236   5.826  14.579 -0.8839 -0.6239  1.9706
 3175TIP3   OH233719   2.273   1.852  17.706  0.1829 -0.5268  0.9093
 3175TIP3    H133720   2.346   1.906  17.736  1.0566 -1.2328  0.1118
 3175TIP3    H233721   2.195   1.899  17.735  0.7017  3.0662 -2.7140
 3176TIP3   OH233722   3.658   0.840  16.801 -0.1451 -0.3184 -0.1494
 3176TIP3    H133723   3.658   0.768  16.865 -0.9019  0.3014  0.5764
 3176TIP3    H233724   3.593   0.814  16.736  0.4011 -0.8089 -0.5064
 3177TIP3   OH233725   0.150   2.275  15.618  0.0884 -0.2765 -0.3946
 3177TIP3    H133726   0.237   2.314  15.625 -0.6646  1.3903  0.2843
 3177TIP3    H233727   0.100   2.315  15.689 -1.5671 -0.2516 -1.5135
 3178TIP3   OH233728   6.280   4.975  15.644 -0.2890  0.2101  0.2200
 3178TIP3    H133729   6.205   4.964  15.585 -1.3006 -0.4592  1.5966
 3178TIP3    H233730   6.275   5.066  15.672 -1.0744 -0.0478  0.9362
 3179TIP3   OH233731   2.978   5.134  16.003 -0.3753  0.2390  0.3055
 3179TIP3    H133732   3.041   5.075  15.962  0.7600 -0.2848  2.5967
 3179TIP3    H233733   2.945   5.084  16.078 -1.3242  1.5838  0.8252
 3180TIP3   OH233734   2.157   6.202  15.675  0.2575 -0.3954 -0.0013
 3180TIP3    H133735   2.172   6.149  15.754 -0.6378  0.0614  0.4888
 3180TIP3    H233736   2.225   6.269  15.679 -0.0294 -0.1376  0.5934
 3181TIP3   OH233737   1.135   0.814  17.757 -0.1172  0.0254 -0.0110
 3181TIP3    H133738   1.083   0.807  17.837 -1.0683 -3.2748 -0.7447
 3181TIP3    H233739   1.071   0.835  17.688 -0.1949 -1.8554 -0.5700
 3182TIP3   OH233740   1.331   5.430  15.140 -0.4656 -0.3374  0.4846
 3182TIP3    H133741   1.287   5.354  15.178  0.8104 -1.3647 -0.0203
 3182TIP3    H233742   1.287   5.444  15.056  0.6536 -1.8886 -0.4077
 3183TIP3   OH233743   4.078   6.048  16.930 -0.0268 -0.0310 -0.0903
 3183TIP3    H133744   4.012   6.095  16.980  0.1349  0.4975 -0.3639
 3183TIP3    H233745   4.071   6.085  16.842 -0.2684 -0.9067 -0.4449
 3184TIP3   OH233746   0.990   1.140  15.460  0.0070 -0.2399  0.1304
 3184TIP3    H133747   0.933   1.075  15.419 -0.7458  0.0693  0.6677
 3184TIP3    H233748   1.079   1.111  15.438 -0.3479 -0.7681 -0.6555
 3185TIP3   OH233749   4.289   2.897  16.823 -0.0332  0.1256  0.1061
 3185TIP3    H133750   4.353   2.839  16.782 -0.1091 -0.9160  1.4190
 3185TIP3    H233751   4.280   2.865  16.912  0.0975  2.3184  0.9838
 3186TIP3   OH233752   5.486   2.160  15.504  0.5971  0.7881  0.6064
 3186TIP3    H133753   5.580   2.173  15.513  1.2219 -0.9713 -2.0758
 3186TIP3    H233754   5.462   2.210  15.426 -0.1377 -0.8443 -0.2581
 3187TIP3   OH233755   0.651   2.574  15.497 -0.6657 -0.1660  0.3359
 3187TIP3    H133756   0.633   2.534  15.411 -1.6051  0.9398 -0.0072
 3187TIP3    H233757   0.585   2.644  15.505  1.1558  1.5883  0.7206
 3188TIP3   OH233758   2.396   1.077  15.833  0.0021  0.3921  0.1132
 3188TIP3    H133759   2.486   1.081  15.801  0.1527  3.1289  0.6184
 3188TIP3    H233760   2.404   1.090  15.928 -0.8855 -0.4860  0.3234
 3189TIP3   OH233761   1.446   5.763  17.765  0.2844 -0.0522  0.3639
 3189TIP3    H133762   1.369   5.819  17.772 -0.1975 -0.4536 -1.2825
 3189TIP3    H233763   1.417   5.689  17.711  1.5397 -0.7381  0.5812
 3190TIP3   OH233764   0.735   0.756  15.001 -0.1319  0.5292 -0.1647
 3190TIP3    H133765   0.828   0.752  15.024  0.0745  2.9595 -0.2858
 3190TIP3    H233766   0.692   0.780  15.083 -0.8377 -1.5489  0.1298
 3191TIP3   OH233767   3.061   3.178  16.946  0.2267  0.3267 -0.1969
 3191TIP3    H133768   3.014   3.130  17.014  1.4968 -1.5959 -0.6183
 3191TIP3    H233769   3.152   3.179  16.975  0.5936  0.5105 -1.2983
 3192TIP3   OH233770   1.809   4.302  16.219  0.0598  0.1789 -0.0569
 3192TIP3    H133771   1.863   4.335  16.292 -1.8062  3.3922  0.0463
 3192TIP3    H233772   1.725   4.280  16.259 -0.0859 -0.7813 -0.8499
 3193TIP3   OH233773   4.093   3.224  16.333 -0.0082  0.1678  0.1590
 3193TIP3    H133774   4.055   3.306  16.365 -0.3528  0.4074 -0.8158
 3193TIP3    H233775   4.073   3.224  16.239  0.1063 -0.9687  0.1227
 3194TIP3   OH233776   1.590   1.619  16.352  0.3762  0.1749  0.0197
 3194TIP3    H133777   1.552   1.544  16.399  0.7969  0.4102  0.7543
 3194TIP3    H233778   1.591   1.592  16.261 -0.2531 -0.3880  0.1672
 3195TIP3   OH233779   5.662   5.953  14.163 -0.9753  0.0624 -0.2222
 3195TIP3    H133780   5.567   5.960  14.163 -1.2912 -2.7720 -0.5956
 3195TIP3    H233781   5.690   5.999  14.084 -2.0793  0.5786 -0.3248
 3196TIP3   OH233782   4.171   2.568  16.345  0.2047 -0.4054  0.2085
 3196TIP3    H133783   4.180   2.524  16.429 -2.4341 -0.6428  0.4676
 3196TIP3    H233784   4.178   2.497  16.280 -1.4459 -0.8583  0.4824
 3197TIP3   OH233785   2.986   4.537  15.698 -0.6248  0.2399  0.1338
 3197TIP3    H133786   2.962   4.505  15.611  0.7048  0.1507 -0.2117
 3197TIP3    H233787   2.902   4.561  15.738 -1.2051  0.9256 -1.4147
 3198TIP3   OH233788   1.929   2.362  18.087 -0.2624  0.0393 -0.1141
 3198TIP3    H133789   1.945   2.330  17.998  0.0530  3.0754 -1.2757
 3198TIP3    H233790   1.981   2.442  18.093 -1.0401  0.4346  2.4784
 3199TIP3   OH233791   0.471   1.156  17.403 -0.1158  0.2608  0.4400
 3199TIP3    H133792   0.409   1.086  17.424 -1.7077  1.0845 -1.2009
 3199TIP3    H233793   0.547   1.138  17.458 -0.4564 -2.7384  0.1043
 3200TIP3   OH233794   3.739   1.624  15.070  0.7188 -0.3905 -0.0302
 3200TIP3    H133795   3.734   1.656  14.980  2.2226  1.5119  0.4993
 3200TIP3    H233796   3.824   1.581  15.075  1.8373  1.7887  1.0971
 3201TIP3   OH233797   4.675   2.401  17.912 -0.4945  0.2832 -0.3456
 3201TIP3    H133798   4.679   2.443  17.999  0.8276 -0.4775 -0.0146
 3201TIP3    H233799   4.747   2.442  17.863  1.9771 -2.6496  0.5240
 3202TIP3   OH233800   5.266   3.515  16.523  0.1112 -0.2724  0.5097
 3202TIP3    H133801   5.220   3.594  16.496  2.0323  0.9088  0.4609
 3202TIP3    H233802   5.286   3.529  16.615 -1.1236 -1.5660  1.0088
 3203TIP3   OH233803   6.180   5.630  17.650 -0.1651  0.0642  0.3730
 3203TIP3    H133804   6.145   5.720  17.650 -0.2338  0.0412 -0.6285
 3203TIP3    H233805   6.166   5.599  17.561  1.7081 -0.2331  0.1550
 3204TIP3   OH233806   2.379   4.577  17.049 -0.5225  0.3027 -0.4551
 3204TIP3    H133807   2.399   4.605  16.960 -1.3798  1.8327 -0.1981
 3204TIP3    H233808   2.455   4.606  17.101  0.5019 -1.5667 -0.8093
 3205TIP3   OH233809   5.636   4.106  15.786 -0.7838  0.5892  0.0740
 3205TIP3    H133810   5.660   4.120  15.877 -0.1496 -3.2610  0.6664
 3205TIP3    H233811   5.549   4.145  15.778  0.0187  2.9110  1.6330
 3206TIP3   OH233812   1.639   2.318  17.401  0.1457  0.8907 -0.2329
 3206TIP3    H133813   1.612   2.269  17.324 -2.4804  3.0021 -0.7970
 3206TIP3    H233814   1.618   2.409  17.381  0.5910  1.6946  2.4745
 3207TIP3   OH233815   0.766   5.813  16.746  0.3166 -0.1582  0.8749
 3207TIP3    H133816   0.802   5.898  16.722 -0.8307  0.5827  1.6913
 3207TIP3    H233817   0.838   5.768  16.790  1.7941 -0.7046 -1.8840
 3208TIP3   OH233818   1.291   3.363  16.658  0.1750  0.0946 -0.1984
 3208TIP3    H133819   1.206   3.393  16.625 -0.3115 -1.3687 -0.3230
 3208TIP3    H233820   1.277   3.349  16.751  0.5437  0.6944 -0.0429
 3209TIP3   OH233821   1.683   5.779  15.055 -0.1057 -0.2480  0.0187
 3209TIP3    H133822   1.707   5.722  14.982 -0.6981  1.1925 -1.3811
 3209TIP3    H233823   1.639   5.853  15.013 -0.0682  0.8516  1.8204
 3210TIP3   OH233824   0.226   2.734  15.281 -0.3333  0.3297  0.4757
 3210TIP3    H133825   0.142   2.777  15.298 -0.3476  0.3120  0.4496
 3210TIP3    H233826   0.273   2.795  15.224 -0.8391 -0.2397 -0.5809
 3211TIP3   OH233827   3.121   2.796  17.945 -0.6309  0.3724  0.0222
 3211TIP3    H133828   3.107   2.891  17.942  1.1633  0.6373 -1.8606
 3211TIP3    H233829   3.057   2.760  17.883 -0.2135  0.5283 -0.5059
 3212TIP3   OH233830   5.236   6.245  16.897 -0.2639 -0.3164  0.4153
 3212TIP3    H133831   5.188   6.230  16.816 -0.9989 -1.4048  1.0246
 3212TIP3    H233832   5.265   6.158  16.924 -1.5683 -0.2501  2.2304
 3213TIP3   OH233833   1.182   0.688  16.499 -0.0996  0.2524  1.1007
 3213TIP3    H133834   1.185   0.776  16.535  3.0560 -0.3938  2.8439
 3213TIP3    H233835   1.264   0.679  16.450  0.0612 -1.9577  1.6576
 3214TIP3   OH233836   5.884   3.210  16.841  0.4157 -0.4840  0.3986
 3214TIP3    H133837   5.955   3.153  16.869  2.1740  0.1882 -2.3390
 3214TIP3    H233838   5.890   3.211  16.745 -2.4710  0.6680  0.1415
 3215TIP3   OH233839   4.334   2.570  16.814 -0.1308  0.4837  0.6153
 3215TIP3    H133840   4.258   2.627  16.797  1.1969  1.9543 -0.6882
 3215TIP3    H233841   4.304   2.482  16.791 -1.3908  1.0547 -0.0206
 3216TIP3   OH233842   0.460   3.835  16.841  0.2801  0.4594 -0.8222
 3216TIP3    H133843   0.453   3.924  16.808 -0.7181  0.8297  0.3243
 3216TIP3    H233844   0.508   3.844  16.923 -0.5248  0.0606 -0.2974
 3217TIP3   OH233845   5.450   3.343  17.826  0.4609  0.7841 -0.5550
 3217TIP3    H133846   5.362   3.380  17.833 -0.8197 -2.1251  0.4037
 3217TIP3    H233847   5.505   3.401  17.879 -1.1540  1.8805 -0.0096
 3218TIP3   OH233848   5.682   3.831  15.846 -0.1401 -0.0618  0.0934
 3218TIP3    H133849   5.731   3.818  15.927  1.5087  0.9906 -0.6687
 3218TIP3    H233850   5.660   3.924  15.846  0.0266 -0.0099 -0.7221
 3219TIP3   OH233851   3.937   3.793  16.148 -0.1735 -0.4727  0.1978
 3219TIP3    H133852   3.873   3.804  16.218  2.3291 -0.7741  2.7148
 3219TIP3    H233853   3.950   3.882  16.114 -0.0994  0.0022  1.4140
 3220TIP3   OH233854   6.496   2.435  17.688  0.0238  0.0276  0.0134
 3220TIP3    H133855   6.525   2.504  17.629  1.2424 -1.3613 -1.1048
 3220TIP3    H233856   6.411   2.407  17.654  0.1783  0.0366 -0.3821
 3221TIP3   OH233857   2.682   6.695  16.695 -1.0128  0.2413  0.6232
 3221TIP3    H133858   2.705   6.754  16.766  0.4326 -0.5182  0.8131
 3221TIP3    H233859   2.644   6.619  16.738  0.4162 -0.4764  0.6487
 3222TIP3   OH233860   3.797   2.640  18.042  0.0314  0.3086  0.1893
 3222TIP3    H133861   3.815   2.733  18.033 -0.7845  0.6089  1.3558
 3222TIP3    H233862   3.880   2.602  18.074  0.4420  0.5797 -0.5419
 3223TIP3   OH233863   1.083   4.909  16.942 -0.7518 -0.2090 -0.6114
 3223TIP3    H133864   1.028   4.866  16.876  1.5532 -0.3590 -2.5718
 3223TIP3    H233865   1.126   4.836  16.987  0.2414 -0.0772 -1.3106
 3224TIP3   OH233866   2.696   0.413  15.051 -0.2808  0.2544  0.6570
 3224TIP3    H133867   2.636   0.412  15.125 -0.1095  1.4959  0.8314
 3224TIP3    H233868   2.758   0.483  15.071 -0.6639  1.1248 -0.9582
 3225TIP3   OH233869   6.437   6.060  15.673 -0.3304  0.1505 -0.4961
 3225TIP3    H133870   6.402   6.137  15.718  1.0303  1.0178 -0.8606
 3225TIP3    H233871   6.480   6.096  15.595 -0.7754 -1.1163 -1.3479
 3226TIP3   OH233872   0.443   5.579  17.689 -0.3457  0.3969 -0.1931
 3226TIP3    H133873   0.523   5.527  17.697 -1.6333 -2.0510 -1.9770
 3226TIP3    H233874   0.424   5.606  17.779  0.5422 -2.0979  0.8473
 3227TIP3   OH233875   3.794   2.901  17.597  0.0720  0.3055 -0.2256
 3227TIP3    H133876   3.790   2.840  17.522 -0.3262  0.6951 -0.5247
 3227TIP3    H233877   3.886   2.898  17.624 -0.4100 -2.4995  1.5135
 3228TIP3   OH233878   1.949   2.564  17.405 -0.1502  0.8824  0.0927
 3228TIP3    H133879   1.977   2.505  17.335  0.9249  0.3282  0.9733
 3228TIP3    H233880   1.938   2.649  17.362  2.0261  0.9186 -0.4712
 3229TIP3   OH233881   3.061   1.302  14.161  1.1523 -0.2233  0.3250
 3229TIP3    H133882   3.104   1.248  14.228  0.5299 -0.5019  0.5078
 3229TIP3    H233883   3.107   1.386  14.166  0.2417  0.2284  2.0743
 3230TIP3   OH233884   4.830   0.190  15.146 -0.1698  0.1240  0.5388
 3230TIP3    H133885   4.822   0.118  15.209 -0.5138 -0.9782 -0.7383
 3230TIP3    H233886   4.752   0.243  15.160 -0.1621 -0.0170  1.1494
 3231TIP3   OH233887   5.486   6.498  15.540 -0.2985 -0.3972 -0.2634
 3231TIP3    H133888   5.516   6.407  15.539 -1.5219 -0.8310 -0.4490
 3231TIP3    H233889   5.435   6.507  15.459 -0.5026  0.3322 -0.0606
 3232TIP3   OH233890   0.782   5.004  16.533 -0.0762  0.2580 -0.1551
 3232TIP3    H133891   0.773   4.909  16.538 -0.7912  0.3795  2.2078
 3232TIP3    H233892   0.775   5.024  16.440  1.6588 -2.1032 -0.8955
 3233TIP3   OH233893   5.496   1.755  16.056 -0.0205 -0.0419  0.0006
 3233TIP3    H133894   5.531   1.776  16.143 -0.4159  0.8710 -0.0408
 3233TIP3    H233895   5.408   1.720  16.074  0.1872 -0.5558  0.0088
 3234TIP3   OH233896   4.019   3.273  17.416  0.9216 -0.2926  0.1101
 3234TIP3    H133897   4.110   3.252  17.438  0.8045 -0.4744  0.4218
 3234TIP3    H233898   3.968   3.239  17.489  0.6459  0.2671  0.1873
 3235TIP3   OH233899   2.997   3.038  17.181 -0.3888 -0.5704 -0.1166
 3235TIP3    H133900   2.972   2.986  17.258 -0.6199 -2.2731 -1.2819
 3235TIP3    H233901   3.063   3.098  17.213 -0.2937 -1.4154  1.3756
 3236TIP3   OH233902   4.363   2.087  16.239 -0.4177  0.6165 -0.4111
 3236TIP3    H133903   4.289   2.030  16.263 -0.4879  1.0958  0.5513
 3236TIP3    H233904   4.336   2.174  16.267  1.3498  0.4992  1.9427
 3237TIP3   OH233905   3.785   1.739  14.816  0.0412  0.6842  0.8559
 3237TIP3    H133906   3.796   1.822  14.862 -1.4040  0.7364  1.1501
 3237TIP3    H233907   3.735   1.761  14.738  0.6288  0.2598  0.3564
 3238TIP3   OH233908   0.697   3.230  17.678  0.3071 -0.2669 -0.4501
 3238TIP3    H133909   0.605   3.236  17.700  0.0646 -1.6190 -0.9970
 3238TIP3    H233910   0.710   3.295  17.609  0.3188  1.5585  1.1794
 3239TIP3   OH233911   2.481   5.721  15.982  0.5237 -0.6747 -0.0183
 3239TIP3    H133912   2.575   5.737  15.996  0.5482 -0.3686 -0.5146
 3239TIP3    H233913   2.467   5.632  16.014  0.6522 -0.1452  1.5577
 3240TIP3   OH233914   5.647   4.056  16.062  0.0130 -0.5357  0.1733
 3240TIP3    H133915   5.709   4.119  16.100 -0.7322 -0.4000  1.2095
 3240TIP3    H233916   5.606   4.014  16.138 -1.6397 -0.1494 -0.4725
 3241TIP3   OH233917   0.671   1.025  17.785 -0.0792 -0.5595 -0.4641
 3241TIP3    H133918   0.657   1.031  17.879 -0.2238 -1.9612 -0.3744
 3241TIP3    H233919   0.584   1.009  17.748  0.1682 -1.4558 -0.6821
 3242TIP3   OH233920   4.210   3.784  17.505  0.1263  0.3436 -0.0795
 3242TIP3    H133921   4.279   3.842  17.474 -0.6070  2.2953  1.7460
 3242TIP3    H233922   4.133   3.810  17.456 -0.0047  0.2522  0.0777
 3243TIP3   OH233923   5.620   1.092  15.912 -0.4363 -0.1241  0.2351
 3243TIP3    H133924   5.525   1.092  15.907 -0.5100  1.3842  1.1275
 3243TIP3    H233925   5.648   1.161  15.852  0.0874 -0.3158  0.2480
 3244TIP3   OH233926   2.608   5.318  17.344  0.2653 -0.1517 -0.2774
 3244TIP3    H133927   2.656   5.271  17.276  0.7374 -1.7376  1.0945
 3244TIP3    H233928   2.672   5.334  17.413 -0.7267 -0.7135  0.8112
 3245TIP3   OH233929   6.420   5.888  16.775  0.4066  0.5095  0.1031
 3245TIP3    H133930   6.472   5.809  16.762  0.2641  0.3119  0.6856
 3245TIP3    H233931   6.329   5.857  16.775  0.1703  1.0464 -2.3711
 3246TIP3   OH233932   0.535   0.126  15.991 -0.1745 -0.7342  0.2216
 3246TIP3    H133933   0.601   0.186  15.956  0.3289 -2.1650 -1.3977
 3246TIP3    H233934   0.456   0.145  15.941 -0.1043 -1.1868 -0.0645
 3247TIP3   OH233935   1.392   5.144  16.319  0.0889 -0.3201 -0.1190
 3247TIP3    H133936   1.330   5.214  16.299  0.0110 -0.7092 -1.2577
 3247TIP3    H233937   1.339   5.065  16.321  0.7260 -0.8841 -2.6039
 3248TIP3   OH233938   3.547   2.008  15.753 -0.0249 -0.3070  0.0594
 3248TIP3    H133939   3.546   1.970  15.840  0.3667  0.0908  0.2432
 3248TIP3    H233940   3.455   2.020  15.730 -0.1845 -1.7087 -0.1684
 3249TIP3   OH233941   2.247   4.536  17.305 -0.1739  0.8613 -0.3939
 3249TIP3    H133942   2.265   4.557  17.214 -2.1566 -0.3249 -1.1349
 3249TIP3    H233943   2.324   4.489  17.335  0.1971  0.5755 -1.7254
 3250TIP3   OH233944   6.709   2.880  16.697 -0.5014 -0.0171  0.1735
 3250TIP3    H133945   6.793   2.839  16.716 -1.1412 -1.0276  0.9377
 3250TIP3    H233946   6.720   2.920  16.611  0.7267 -0.2104  0.2248
 3251TIP3   OH233947   5.808   5.894  17.713  0.0851  0.6269 -0.8367
 3251TIP3    H133948   5.829   5.935  17.797 -0.9412 -0.2671 -0.1014
 3251TIP3    H233949   5.716   5.916  17.698  0.5770  1.7911 -2.3572
 3252TIP3   OH233950   2.395   6.399  16.616 -0.0107  0.2310  0.2666
 3252TIP3    H133951   2.451   6.348  16.558 -1.0587 -0.2747 -0.3375
 3252TIP3    H233952   2.340   6.334  16.660 -0.7619  0.7682  0.1417
 3253TIP3   OH233953   5.216   6.717  15.676  0.3617 -0.5280  0.0944
 3253TIP3    H133954   5.165   6.794  15.701  0.8187 -0.1510 -0.1111
 3253TIP3    H233955   5.306   6.740  15.698  0.6288 -0.6319 -0.8199
 3254TIP3   OH233956   4.598   5.806  17.636 -0.4768 -0.1669 -0.7090
 3254TIP3    H133957   4.626   5.716  17.623  0.0778 -0.0297 -0.4626
 3254TIP3    H233958   4.671   5.848  17.681 -0.4949  0.5493 -1.3262
 3255TIP3   OH233959   1.940   2.703  17.172 -0.1445 -0.4509  0.6034
 3255TIP3    H133960   1.926   2.788  17.130  0.0413  0.1467  1.6965
 3255TIP3    H233961   1.902   2.640  17.112  0.3286  0.3361 -0.5656
 3256TIP3   OH233962   2.934   6.695  13.849 -0.1784 -0.0208 -0.1142
 3256TIP3    H133963   2.961   6.654  13.767 -1.9379 -0.8485 -0.3171
 3256TIP3    H233964   2.973   6.782  13.846 -1.0938  0.3711 -2.3583
 3257TIP3   OH233965   3.399   5.099  16.655 -0.8604  0.0782 -0.0843
 3257TIP3    H133966   3.363   5.015  16.685 -1.4084 -0.0718 -1.1080
 3257TIP3    H233967   3.413   5.086  16.561  2.7783 -0.1948  0.3497
 3258TIP3   OH233968   0.554   4.381  17.113  0.2166  0.0193  0.0355
 3258TIP3    H133969   0.548   4.462  17.164  1.1824 -0.5276  1.0630
 3258TIP3    H233970   0.591   4.317  17.174  0.6197 -0.8876 -1.1206
 3259TIP3   OH233971   6.484   6.465  17.212  0.2126  0.0527  0.3466
 3259TIP3    H133972   6.522   6.387  17.171 -0.6774 -1.2909  1.9494
 3259TIP3    H233973   6.557   6.527  17.218  1.3239 -1.2174  0.4005
 3260TIP3   OH233974   0.755   0.546  16.887  0.7455  0.1925  0.5815
 3260TIP3    H133975   0.833   0.489  16.891  1.1381  0.6315 -0.6093
 3260TIP3    H233976   0.766   0.605  16.962  2.1014  0.9232 -0.1585
 3261TIP3   OH233977   4.989   2.265  16.601 -0.1769  0.0847  0.4161
 3261TIP3    H133978   4.917   2.268  16.538  0.1379 -0.6006  0.0201
 3261TIP3    H233979   4.947   2.281  16.686 -0.6445  0.7187  0.0824
 3262TIP3   OH233980   5.572   0.422  15.325  0.4802 -0.5222 -0.5455
 3262TIP3    H133981   5.629   0.370  15.382  0.6596 -0.3230 -0.5407
 3262TIP3    H233982   5.490   0.430  15.374  0.9747  0.5255  0.1586
 3263TIP3   OH233983   4.237   1.697  14.596 -0.6300 -0.3445  0.1834
 3263TIP3    H133984   4.297   1.623  14.599 -0.1953 -0.0908 -1.3218
 3263TIP3    H233985   4.271   1.758  14.662 -1.1060 -1.5353  1.5614
 3264TIP3   OH233986   6.229   2.318  16.078  0.1192 -0.1345  0.6047
 3264TIP3    H133987   6.173   2.362  16.141 -0.6943  1.2687 -1.0244
 3264TIP3    H233988   6.213   2.225  16.092 -1.1617  0.1894  1.4481
 3265TIP3   OH233989   1.753   4.147  17.152 -0.9111 -0.0401 -0.1613
 3265TIP3    H133990   1.792   4.161  17.239 -1.2762 -0.1210  0.0183
 3265TIP3    H233991   1.735   4.235  17.120 -1.0253 -0.0183 -0.0392
 3266TIP3   OH233992   0.246   5.092  15.527 -0.2011  0.0219  0.3098
 3266TIP3    H133993   0.282   5.042  15.600 -0.6582 -2.2236 -0.9158
 3266TIP3    H233994   0.156   5.113  15.553  0.1062  0.5349  0.9753
 3267TIP3   OH233995   3.845   0.599  17.290 -0.2935 -0.3175  0.4294
 3267TIP3    H133996   3.760   0.621  17.251  0.3215  1.8454  0.1608
 3267TIP3    H233997   3.847   0.503  17.292 -2.5276 -0.4282  0.0139
 3268TIP3   OH233998   4.148   3.309  15.702  0.0728  0.0027  0.0151
 3268TIP3    H133999   4.172   3.401  15.714  0.6495  0.1169 -1.7055
 3268TIP3    H234000   4.215   3.261  15.752  0.3138  0.4996  0.1804
 3269TIP3   OH234001   3.986   0.446  16.967  0.0428  0.7201  0.1688
 3269TIP3    H134002   3.949   0.485  16.888 -0.3768 -0.1605 -0.0806
 3269TIP3    H234003   3.943   0.361  16.974  0.5041  0.5508  1.0261
 3270TIP3   OH234004   4.323   1.256  14.880  0.4939 -0.4500  0.7067
 3270TIP3    H134005   4.337   1.201  14.957  0.7277 -0.1136  0.9073
 3270TIP3    H234006   4.342   1.199  14.806 -0.5883 -1.0405  0.8611
 3271TIP3   OH234007   0.672   1.935  15.898  0.4061  0.3081  0.7297
 3271TIP3    H134008   0.584   1.970  15.880 -0.3391 -0.9609  1.7127
 3271TIP3    H234009   0.676   1.929  15.993  0.6551 -1.7819  0.6311
 3272TIP3   OH234010   3.908   4.184  17.457 -0.2240  0.1013 -0.2804
 3272TIP3    H134011   3.910   4.254  17.392 -0.2244 -0.2569 -0.6648
 3272TIP3    H234012   3.910   4.230  17.541 -0.7729  0.5862 -0.5259
 3273TIP3   OH234013   1.667   1.961  15.858 -0.1379  0.0748 -0.5487
 3273TIP3    H134014   1.661   1.936  15.950 -1.0205 -0.7155 -0.8016
 3273TIP3    H234015   1.584   1.932  15.820  0.7342 -0.8355 -1.8730
 3274TIP3   OH234016   4.179   5.316  16.470  0.5311  0.2752 -0.2307
 3274TIP3    H134017   4.198   5.398  16.424 -0.7290  1.3671  1.0848
 3274TIP3    H234018   4.260   5.296  16.517 -0.2822  3.1028  2.7608
 3275TIP3   OH234019   6.079   6.144  15.972 -0.1211  0.3436  0.0551
 3275TIP3    H134020   6.152   6.203  15.950  1.2101 -0.7245  1.4076
 3275TIP3    H234021   6.076   6.082  15.899  1.1602 -0.3460  0.5620
 3276TIP3   OH234022   1.650   5.123  14.487 -0.6205 -0.1352 -0.8278
 3276TIP3    H134023   1.629   5.066  14.561 -0.4985  0.1198 -0.5908
 3276TIP3    H234024   1.682   5.064  14.419 -2.0714 -0.5201 -1.1929
 3277TIP3   OH234025   6.395   6.437  14.517  0.3092  0.5423  0.5143
 3277TIP3    H134026   6.310   6.478  14.506 -0.2874 -0.9146 -0.7086
 3277TIP3    H234027   6.456   6.509  14.532 -0.6638  1.8656 -1.5993
 3278TIP3   OH234028   2.479   0.510  14.656 -0.0531  0.0801  0.0141
 3278TIP3    H134029   2.403   0.532  14.603 -0.6930 -0.0604  0.8547
 3278TIP3    H234030   2.553   0.546  14.608 -0.6675  0.3843 -0.7200
 3279TIP3   OH234031   3.915   5.918  17.848 -0.1839 -0.3848 -0.5485
 3279TIP3    H134032   3.947   5.991  17.900 -0.4972  1.3625 -2.6413
 3279TIP3    H234033   3.931   5.841  17.902  1.8353  1.0228  1.0131
 3280TIP3   OH234034   6.205   3.502  17.839 -0.3521 -0.1748 -0.0939
 3280TIP3    H134035   6.127   3.459  17.806 -0.1397 -0.4621 -0.2209
 3280TIP3    H234036   6.278   3.448  17.808 -0.0321  0.7581 -1.0140
 3281TIP3   OH234037   6.252   2.740  17.535  0.2919 -0.0291  0.2983
 3281TIP3    H134038   6.276   2.770  17.623 -0.3634  3.0745 -0.4649
 3281TIP3    H234039   6.335   2.738  17.487  0.2895  1.4326  0.1845
 3282TIP3   OH234040   0.310   6.072  16.831  0.4814 -0.0741  0.0544
 3282TIP3    H134041   0.393   6.120  16.840 -0.1716  0.7395  2.8773
 3282TIP3    H234042   0.312   6.009  16.904 -2.1025  1.2379  1.4052
 3283TIP3   OH234043   5.879   2.095  17.769 -0.0097  0.3408 -0.3128
 3283TIP3    H134044   5.856   2.118  17.859 -0.9983  0.5022 -0.5909
 3283TIP3    H234045   5.822   2.021  17.748 -0.7083  1.1028 -1.2116
 3284TIP3   OH234046   5.265   6.114  15.952 -0.2457 -0.2068  0.2542
 3284TIP3    H134047   5.191   6.152  15.904  0.3715  0.5612 -0.1080
 3284TIP3    H234048   5.314   6.066  15.886 -0.4664 -0.8192  0.5190
 3285TIP3   OH234049   3.644   4.439  17.159  0.5909 -0.1540 -0.0954
 3285TIP3    H134050   3.627   4.500  17.230 -1.6967 -1.2260  0.3572
 3285TIP3    H234051   3.718   4.387  17.189  3.2576  2.8417 -0.8852
 3286TIP3   OH234052   0.027   0.690  16.895  0.7492 -0.2938  0.2286
 3286TIP3    H134053   0.040   0.596  16.904 -0.1997 -0.4343  0.2467
 3286TIP3    H234054   0.113   0.724  16.871  1.0768 -1.1757  0.1188
 3287TIP3   OH234055   4.455   6.237  17.756 -0.6035  0.4491  0.0399
 3287TIP3    H134056   4.384   6.184  17.792  1.3738 -2.7228 -0.3009
 3287TIP3    H234057   4.450   6.224  17.662  0.3151  0.3083 -0.0020
 3288TIP3   OH234058   1.396   4.666  17.974  0.3462 -0.5242 -0.1803
 3288TIP3    H134059   1.424   4.740  18.028  1.8775 -0.9506 -0.3437
 3288TIP3    H234060   1.418   4.693  17.884  0.8814 -1.1487 -0.2440
 3289TIP3   OH234061   6.162   0.181  16.481 -0.1390 -0.1146 -0.5471
 3289TIP3    H134062   6.167   0.250  16.415  0.9495 -0.0888 -0.4668
 3289TIP3    H234063   6.069   0.160  16.488 -0.6389  2.2264  0.3634
 3290TIP3   OH234064   2.510   1.388  14.464  0.2800 -0.5036  0.2323
 3290TIP3    H134065   2.416   1.399  14.452  0.3164 -0.1718  0.2354
 3290TIP3    H234066   2.540   1.345  14.383 -0.1618 -2.3711  1.0172
 3291TIP3   OH234067   0.496   6.515  16.895  0.4233 -0.1094 -0.6077
 3291TIP3    H134068   0.436   6.586  16.874 -1.0490 -1.4827 -1.1653
 3291TIP3    H234069   0.448   6.435  16.874  0.9467 -1.4179  2.5626
 3292TIP3   OH234070   0.922   4.212  17.700 -0.1704  0.0457  0.0514
 3292TIP3    H134071   0.851   4.227  17.762 -0.1377 -0.5836  0.2459
 3292TIP3    H234072   0.980   4.287  17.711 -0.8488  0.6120 -0.1777
 3293TIP3   OH234073   5.936   6.393  16.011  0.3989 -0.1675 -0.8060
 3293TIP3    H134074   5.971   6.438  15.934  2.3072 -1.4417 -0.7522
 3293TIP3    H234075   5.978   6.306  16.009 -2.4627 -1.6720 -0.4460
 3294TIP3   OH234076   6.101   0.073  15.303  0.1397 -0.3835 -0.2202
 3294TIP3    H134077   6.106   0.167  15.322  0.2148 -0.8987  2.7799
 3294TIP3    H234078   6.176   0.036  15.348 -1.2128 -2.1523  0.6920
 3295TIP3   OH234079   5.942   3.826  15.433 -0.2972 -0.5586  0.1046
 3295TIP3    H134080   5.946   3.790  15.344 -0.5505 -0.1333 -0.0825
 3295TIP3    H234081   5.849   3.824  15.455 -0.1818 -1.1505  0.5676
 3296TIP3   OH234082   2.220   2.764  17.444  0.1295  0.1124  0.0640
 3296TIP3    H134083   2.313   2.740  17.448  0.1441 -0.1479 -1.4546
 3296TIP3    H234084   2.211   2.812  17.362 -1.1473 -0.0789  0.0768
 3297TIP3   OH234085   2.145   5.612  15.507 -0.7837 -0.3060 -0.0719
 3297TIP3    H134086   2.078   5.546  15.525  0.3927 -1.1444  1.5053
 3297TIP3    H234087   2.174   5.593  15.418 -1.8835 -0.6291 -0.3671
 3298TIP3   OH234088   2.464   6.514  17.134 -0.2204 -0.0749 -0.0745
 3298TIP3    H134089   2.490   6.439  17.187  0.5615  0.3889  0.2086
 3298TIP3    H234090   2.504   6.590  17.177 -0.3021  0.4133 -0.8311
 3299TIP3   OH234091   2.312   5.415  14.679 -0.2494  0.0581  0.3307
 3299TIP3    H134092   2.391   5.377  14.718  0.8852  0.5475 -1.3713
 3299TIP3    H234093   2.271   5.463  14.750  1.8330  1.0870  0.9217
 3300TIP3   OH234094   0.128   6.282  15.113  0.1367  0.0173 -0.3892
 3300TIP3    H134095   0.049   6.249  15.156  0.1309 -0.7756 -0.9863
 3300TIP3    H234096   0.199   6.256  15.171  0.0735 -0.4747 -0.5287
 3301TIP3   OH234097   2.786   5.358  17.579  0.0380 -0.0971 -0.5031
 3301TIP3    H134098   2.770   5.269  17.611 -0.0368 -0.9255 -2.6386
 3301TIP3    H234099   2.879   5.373  17.597  0.6928 -1.6154 -2.1765
 3302TIP3   OH234100   6.139   1.376  16.144  0.0779 -0.1165 -0.7175
 3302TIP3    H134101   6.096   1.294  16.165  0.3914  0.0625  0.7777
 3302TIP3    H234102   6.072   1.443  16.162  0.9113  0.1730  1.7636
 3303TIP3   OH234103   2.555   2.002  15.653 -0.1895 -0.1812  0.1579
 3303TIP3    H134104   2.629   2.022  15.709 -0.3737 -2.4237  1.3123
 3303TIP3    H234105   2.576   2.043  15.569  2.1816 -0.4264  0.5650
 3304TIP3   OH234106   6.348   2.053  16.955 -0.7929 -0.2376 -0.2053
 3304TIP3    H134107   6.279   2.108  16.918 -0.4357  0.5350  0.2676
 3304TIP3    H234108   6.329   2.050  17.049  0.8017  1.4608  0.2280
 3305TIP3   OH234109   1.516   6.424  16.802 -0.0756 -0.2560  0.4732
 3305TIP3    H134110   1.457   6.389  16.736  0.7029  0.2509 -0.5226
 3305TIP3    H234111   1.468   6.497  16.841 -0.4606 -0.4215  0.3090
 3306TIP3   OH234112   1.791   5.636  14.833 -0.3517 -0.1741  0.4707
 3306TIP3    H134113   1.842   5.692  14.775 -0.9616 -0.3786 -0.2720
 3306TIP3    H234114   1.853   5.571  14.864  0.4459  1.0526  1.5763
 3307TIP3   OH234115   4.509   2.402  16.371  0.4631  0.3184 -0.0501
 3307TIP3    H134116   4.428   2.393  16.320  0.2038  0.6098  0.3129
 3307TIP3    H234117   4.579   2.396  16.305  0.1196  1.1193 -0.5011
 3308TIP3   OH234118   3.918   2.624  17.070 -0.0232  0.0724  0.2076
 3308TIP3    H134119   3.985   2.627  17.139 -0.1708 -0.4173  0.3743
 3308TIP3    H234120   3.892   2.715  17.059 -1.2991 -0.0116  2.0898
 3309TIP3   OH234121   1.151   0.283  17.523  0.8081 -0.7923  0.1580
 3309TIP3    H134122   1.208   0.360  17.529 -1.5258  1.0541  0.1394
 3309TIP3    H234123   1.093   0.302  17.448 -2.2710 -0.7212  2.3707
 3310TIP3   OH234124   5.880   3.433  16.603  0.1999  0.1065 -0.3658
 3310TIP3    H134125   5.872   3.500  16.672 -0.5171  0.1435 -0.4794
 3310TIP3    H234126   5.934   3.475  16.536  0.0059  0.4632 -0.3033
 3311TIP3   OH234127   1.661   2.097  16.931  0.5213  0.0992  0.0773
 3311TIP3    H134128   1.579   2.067  16.892  0.1870 -1.4609  1.8587
 3311TIP3    H234129   1.729   2.048  16.885  0.4926  1.1461 -1.1648
 3312TIP3   OH234130   1.392   2.129  14.837  0.0799 -0.0999  0.6166
 3312TIP3    H134131   1.309   2.130  14.790 -0.4828  0.6062  1.5999
 3312TIP3    H234132   1.406   2.037  14.859 -0.4622 -0.2159  0.4897
 3313TIP3   OH234133   1.584   0.472  15.979  0.1745  0.1099 -0.0786
 3313TIP3    H134134   1.556   0.547  15.927 -2.7963 -0.7431  0.1132
 3313TIP3    H234135   1.553   0.490  16.068 -0.4197 -1.2079  0.0161
 3314TIP3   OH234136   1.898   3.931  15.672 -0.2935 -0.4339 -0.3537
 3314TIP3    H134137   1.819   3.958  15.625 -0.4114 -0.6096 -0.2563
 3314TIP3    H234138   1.967   3.988  15.637  0.1641 -2.2500 -2.6339
 3315TIP3   OH234139   4.456   0.019  16.676 -0.7176 -0.1126  0.2328
 3315TIP3    H134140   4.483   0.074  16.749 -0.1240 -0.3876  0.2307
 3315TIP3    H234141   4.394  -0.043  16.714 -0.3263 -0.3256  0.5298
 3316TIP3   OH234142   0.248   0.810  15.900  0.5984  0.1828 -0.3545
 3316TIP3    H134143   0.159   0.773  15.902  0.1439  1.2627  0.2743
 3316TIP3    H234144   0.265   0.835  15.991  0.9515  1.3623 -0.7396
 3317TIP3   OH234145   2.835   3.147  15.457 -0.5901  0.2808 -0.4836
 3317TIP3    H134146   2.883   3.204  15.397 -2.2272  1.4983 -0.7005
 3317TIP3    H234147   2.861   3.178  15.544 -0.6935  0.6996 -0.5964
 3318TIP3   OH234148   6.688   5.756  17.347 -0.0007 -0.1019  0.0374
 3318TIP3    H134149   6.656   5.667  17.334  2.8863 -0.9337 -2.2140
 3318TIP3    H234150   6.752   5.749  17.418  0.6232  0.0627 -0.5006
 3319TIP3   OH234151   4.451   4.007  17.614 -0.1451 -0.0637  0.3629
 3319TIP3    H134152   4.403   4.072  17.665 -2.1721 -0.9498 -0.3222
 3319TIP3    H234153   4.422   3.923  17.648  0.2702 -0.6365 -0.6589
 3320TIP3   OH234154   5.229   4.553  16.867 -0.2781  0.0717 -0.4293
 3320TIP3    H134155   5.218   4.647  16.853  1.4098  0.4378  0.4879
 3320TIP3    H234156   5.304   4.528  16.813  1.3552 -0.0409  1.7384
 3321TIP3   OH234157   4.011   4.400  15.108  0.1898  0.3274 -0.0068
 3321TIP3    H134158   3.932   4.356  15.077  0.7457 -0.7371  0.0489
 3321TIP3    H234159   4.022   4.368  15.198  0.3143  1.0015  0.2262
 3322TIP3   OH234160   3.119   2.502  18.013  0.4840  0.4663  0.0016
 3322TIP3    H134161   3.147   2.576  18.067  1.8086 -1.6917  2.4992
 3322TIP3    H234162   3.027   2.490  18.036  0.8634 -0.0221  1.3415
 3323TIP3   OH234163   4.319   1.678  15.900  0.0645  0.1550 -0.1344
 3323TIP3    H134164   4.260   1.625  15.847 -1.3251  0.2031  1.3070
 3323TIP3    H234165   4.273   1.761  15.913  0.1673 -0.0056  1.4738
 3324TIP3   OH234166   0.016   1.367  15.807 -0.1089  0.2476 -0.8065
 3324TIP3    H134167   0.068   1.385  15.729 -1.1572 -0.8850 -1.8158
 3324TIP3    H234168   0.026   1.445  15.861 -0.5477  1.7310 -2.7511
 3325TIP3   OH234169   1.366   3.669  17.848  0.1002 -0.3389 -0.5332
 3325TIP3    H134170   1.291   3.713  17.807  0.0082  0.2666  0.2643
 3325TIP3    H234171   1.442   3.711  17.809  0.0141  0.6502  0.3172
 3326TIP3   OH234172   4.717   5.247  16.406  0.9381 -0.0077 -0.0650
 3326TIP3    H134173   4.726   5.157  16.437 -1.6782  0.3063  1.9257
 3326TIP3    H234174   4.640   5.246  16.350 -1.1639  1.4722  2.5976
 3327TIP3   OH234175   2.193   0.065  16.941  0.5479 -0.2173 -0.0376
 3327TIP3    H134176   2.188   0.024  17.027 -1.3957 -1.1180 -0.5074
 3327TIP3    H234177   2.102   0.084  16.918  1.0953  0.9036 -1.4831
 3328TIP3   OH234178   0.607   0.533  17.210  0.2208 -0.4126  0.4879
 3328TIP3    H134179   0.625   0.442  17.187  1.9318 -0.2700  1.1180
 3328TIP3    H234180   0.572   0.529  17.299  0.4440 -0.4440  0.5736
 3329TIP3   OH234181   2.179   5.824  16.060 -0.4248  0.1537 -0.2017
 3329TIP3    H134182   2.270   5.799  16.040 -1.0082 -2.0781 -0.3786
 3329TIP3    H234183   2.183   5.864  16.146  0.8517  1.0074 -0.6312
 3330TIP3   OH234184   0.834   1.077  16.402  0.3583 -0.6463 -0.0238
 3330TIP3    H134185   0.764   1.141  16.392  1.3630  0.3682 -0.8021
 3330TIP3    H234186   0.807   1.003  16.349 -0.8504 -0.9290  0.9355
 3331TIP3   OH234187   5.901   3.613  16.809 -0.0700  0.2765  0.4543
 3331TIP3    H134188   5.850   3.658  16.876  0.4795  0.0252  1.0505
 3331TIP3    H234189   5.950   3.546  16.857 -0.4895 -0.6314 -0.3440
 3332TIP3   OH234190   1.286   0.032  15.249  0.3752 -0.5379  0.1583
 3332TIP3    H134191   1.343   0.015  15.323  0.0229  2.1593  1.1557
 3332TIP3    H234192   1.334   0.096  15.195 -0.2525 -0.8615 -0.8271
 3333TIP3   OH234193   3.865   0.076  16.203  0.0728  0.3586  0.2772
 3333TIP3    H134194   3.865   0.111  16.292 -1.2457 -0.1489  0.4987
 3333TIP3    H234195   3.901   0.147  16.149 -0.4252  1.2009  1.0243
 3334TIP3   OH234196   0.754   6.559  15.245  0.2843  0.4682  0.2139
 3334TIP3    H134197   0.822   6.587  15.307 -0.9157  1.5470  1.0768
 3334TIP3    H234198   0.699   6.499  15.296  1.0739 -1.1336 -0.7471
 3335TIP3   OH234199   3.577   5.324  14.570  0.0871  0.0965 -0.4161
 3335TIP3    H134200   3.653   5.269  14.552  0.1367  0.2740 -0.7386
 3335TIP3    H234201   3.516   5.266  14.617  0.2033 -0.1896 -0.6187
 3336TIP3   OH234202   6.551   5.649  15.263  0.0509  0.5094  0.3629
 3336TIP3    H134203   6.590   5.562  15.252  0.3386  0.8727 -1.6999
 3336TIP3    H234204   6.623   5.710  15.250 -0.5170  1.1109  0.0076
 3337TIP3   OH234205   6.672   1.453  14.872 -0.0589  0.0054 -0.2861
 3337TIP3    H134206   6.582   1.440  14.840  0.3653 -2.0292 -0.8321
 3337TIP3    H234207   6.708   1.522  14.818 -0.4652 -1.0259 -1.9411
 3338TIP3   OH234208   0.424   0.489  16.938  0.3545 -0.4435  0.6324
 3338TIP3    H134209   0.429   0.487  17.034  2.7800  0.5900  0.5891
 3338TIP3    H234210   0.393   0.578  16.918 -0.1302 -0.6516  0.4239
 3339TIP3   OH234211   3.324   6.040  16.379  0.1712 -0.1394 -0.1626
 3339TIP3    H134212   3.389   5.977  16.347  0.7532 -0.3090  1.2597
 3339TIP3    H234213   3.299   6.091  16.302 -2.4835 -3.8785 -2.1345
 3340TIP3   OH234214   5.489   1.896  17.896  0.4886  0.3680 -0.1159
 3340TIP3    H134215   5.442   1.817  17.923  0.0169  0.8033  0.3790
 3340TIP3    H234216   5.426   1.945  17.844  0.0768  1.3498  1.2432
 3341TIP3   OH234217   1.960   1.991  16.528  0.0848  0.3180 -0.6319
 3341TIP3    H134218   1.894   1.930  16.495  0.2093 -0.1386 -0.0508
 3341TIP3    H234219   2.038   1.974  16.475 -0.1993  0.7121 -1.1761
 3342TIP3   OH234220   3.769   0.980  16.575 -0.0422 -0.0068  0.2434
 3342TIP3    H134221   3.779   0.910  16.511  3.0567 -1.0004  1.6192
 3342TIP3    H234222   3.735   0.937  16.653  1.1666  0.1130  0.8597
 3343TIP3   OH234223   2.395   0.014  16.052  0.3827 -0.3594  0.2690
 3343TIP3    H134224   2.473   0.069  16.048 -0.3828  0.8271  0.9014
 3343TIP3    H234225   2.332   0.058  15.995 -1.1585  1.0127  2.8538
 3344TIP3   OH234226   1.761   6.319  15.186  0.2283  0.6620 -0.2099
 3344TIP3    H134227   1.851   6.319  15.155  0.1995  1.1282 -0.3006
 3344TIP3    H234228   1.756   6.392  15.247 -0.4879  1.6732 -1.4232
 3345TIP3   OH234229   1.717   0.564  14.051 -0.3243  0.4748 -0.3818
 3345TIP3    H134230   1.764   0.487  14.083 -1.4732 -0.4368 -0.7923
 3345TIP3    H234231   1.642   0.572  14.110 -1.7642 -0.4495 -1.9889
 3346TIP3   OH234232   0.609   2.838  15.682  0.2131 -0.1642  0.0959
 3346TIP3    H134233   0.576   2.762  15.731 -1.0098 -0.0695 -0.5655
 3346TIP3    H234234   0.600   2.911  15.742 -1.6525  0.0239 -0.3555
 3347TIP3   OH234235   2.712   5.178  17.129 -0.1519 -0.2931 -0.4497
 3347TIP3    H134236   2.634   5.179  17.073 -0.9062  1.5535  0.5435
 3347TIP3    H234237   2.741   5.087  17.128 -0.3637 -0.4604 -3.4845
 3348TIP3   OH234238   0.772   2.149  17.526  0.2561 -0.0094 -0.1945
 3348TIP3    H134239   0.702   2.202  17.487  0.2304 -0.2846 -0.5261
 3348TIP3    H234240   0.790   2.191  17.610 -0.0175  0.3098 -0.2945
 3349TIP3   OH234241   0.643   6.674  16.501  0.2541 -0.3839 -0.5978
 3349TIP3    H134242   0.626   6.702  16.411  1.7175  0.6869 -0.5780
 3349TIP3    H234243   0.564   6.626  16.526 -1.3605  1.6645 -1.4869
 3350TIP3   OH234244   4.522   5.178  14.833  0.2651 -0.0229 -0.6341
 3350TIP3    H134245   4.517   5.090  14.869 -1.3871 -0.4502 -1.8117
 3350TIP3    H234246   4.615   5.190  14.811  0.4449 -1.6038 -0.7952
 3351TIP3   OH234247   4.248   0.806  15.027 -0.6956 -0.2946 -0.4425
 3351TIP3    H134248   4.249   0.746  15.102 -0.3224 -0.2766 -0.4294
 3351TIP3    H234249   4.341   0.823  15.009 -0.7733 -0.6745 -1.2167
 3352TIP3   OH234250   0.637   0.878  14.783  0.2991 -0.6288  0.2456
 3352TIP3    H134251   0.660   0.796  14.826 -1.0829 -0.7327  0.8417
 3352TIP3    H234252   0.697   0.943  14.820  2.8030 -1.6654 -1.7092
 3353TIP3   OH234253   3.458   4.072  15.884 -0.6891 -0.0405  0.3035
 3353TIP3    H134254   3.527   4.006  15.880  1.7035  2.2390  0.6087
 3353TIP3    H234255   3.472   4.126  15.807 -0.4556  1.9385  1.6495
 3354TIP3   OH234256   0.241   1.678  16.806  0.0178  0.0896 -0.4041
 3354TIP3    H134257   0.243   1.590  16.770 -2.4350 -0.6555  1.0789
 3354TIP3    H234258   0.295   1.672  16.885  1.9535  0.6589 -1.6020
 3355TIP3   OH234259   4.576   5.663  16.783  0.1736  0.0956 -0.5520
 3355TIP3    H134260   4.525   5.662  16.865  1.2975  0.9038  0.1901
 3355TIP3    H234261   4.543   5.739  16.736  0.5473  0.5149 -0.1525
 3356TIP3   OH234262   2.271   6.665  16.297  0.0233 -0.0689  0.4252
 3356TIP3    H134263   2.272   6.672  16.202  1.6116  1.4058  0.5023
 3356TIP3    H234264   2.280   6.755  16.328 -4.2334  0.0540  2.0912
 3357TIP3   OH234265   5.027   4.268  16.571 -0.1907  0.4004  0.1112
 3357TIP3    H134266   5.025   4.263  16.667  0.7129  1.4208  0.1957
 3357TIP3    H234267   5.029   4.361  16.552  1.3103  0.1918 -0.8570
 3358TIP3   OH234268   3.730   0.749  14.796  0.3709 -0.2895  0.2119
 3358TIP3    H134269   3.717   0.657  14.773 -1.1628  0.0161 -0.2305
 3358TIP3    H234270   3.682   0.798  14.729  0.4489  0.8017  0.9306
 3359TIP3   OH234271   2.986   2.735  15.866  0.1299  0.7276 -0.2226
 3359TIP3    H134272   2.961   2.670  15.931 -1.1450  0.1620 -1.2418
 3359TIP3    H234273   3.026   2.806  15.917  0.8477 -0.4921  0.9688
 3360TIP3   OH234274   1.467   1.571  17.578  0.3460  0.9368  0.3178
 3360TIP3    H134275   1.437   1.662  17.578  0.8079  1.0937  0.0999
 3360TIP3    H234276   1.550   1.574  17.626  1.6643  1.0838 -1.8253
 3361TIP3   OH234277   1.188   0.910  16.645 -0.0280 -0.7392 -0.5580
 3361TIP3    H134278   1.236   0.912  16.728  0.9818  0.5933 -1.1315
 3361TIP3    H234279   1.099   0.887  16.670  0.2439 -0.3509  0.9079
 3362TIP3   OH234280   2.317   3.538  15.549 -0.1457  0.2628 -0.5630
 3362TIP3    H134281   2.266   3.489  15.614  1.5033  1.1782  1.5356
 3362TIP3    H234282   2.370   3.472  15.505 -1.5579 -0.4191 -1.3090
 3363TIP3   OH234283   3.571   1.387  17.912 -0.3340  0.3323 -0.1326
 3363TIP3    H134284   3.657   1.428  17.918 -0.8969  1.6403 -0.5461
 3363TIP3    H234285   3.583   1.299  17.949  0.8258  1.0130  1.1990
 3364TIP3   OH234286   4.530   5.765  14.893  0.0583 -0.0509  0.1514
 3364TIP3    H134287   4.610   5.714  14.879  0.1484 -0.0935  0.7879
 3364TIP3    H234288   4.525   5.823  14.818  1.1144  0.5085  0.4862
 3365TIP3   OH234289   3.031   1.744  15.294 -0.3965  0.0713 -0.1109
 3365TIP3    H134290   3.059   1.683  15.362 -1.1714 -0.3118 -0.1334
 3365TIP3    H234291   3.113   1.782  15.262  0.2576 -1.8951 -0.9797
 3366TIP3   OH234292   1.654   2.859  16.590  0.5881  0.0801 -0.1814
 3366TIP3    H134293   1.740   2.823  16.614 -0.0033 -1.0450  0.3378
 3366TIP3    H234294   1.599   2.782  16.578  0.0838  0.7139 -2.2744
 3367TIP3   OH234295   4.303   4.650  17.782 -0.0983 -0.3457  0.1810
 3367TIP3    H134296   4.347   4.657  17.867  0.2891 -0.2672 -0.0196
 3367TIP3    H234297   4.367   4.685  17.720 -0.7375  0.4974 -0.0307
 3368TIP3   OH234298   0.233   0.375  16.328 -0.2836 -0.4807 -0.2001
 3368TIP3    H134299   0.239   0.379  16.233  0.2357 -1.8503 -0.2504
 3368TIP3    H234300   0.194   0.459  16.353  2.4474  1.3089 -1.3684
 3369TIP3   OH234301   0.183   2.488  15.877 -0.4778 -0.2684 -0.1147
 3369TIP3    H134302   0.254   2.552  15.870 -0.4761 -0.3292 -0.7087
 3369TIP3    H234303   0.110   2.536  15.916 -0.6289  0.2220 -0.9810
 3370TIP3   OH234304   2.910   5.532  16.844  0.1742  0.3086 -0.1443
 3370TIP3    H134305   2.882   5.599  16.781  0.2246 -0.1448 -0.6450
 3370TIP3    H234306   2.995   5.503  16.813 -0.6832 -1.3923 -1.0578
 3371TIP3   OH234307   0.434   4.407  16.869  0.7196 -0.2687  0.1801
 3371TIP3    H134308   0.440   4.412  16.964 -0.6410 -0.2070  0.2863
 3371TIP3    H234309   0.341   4.391  16.852  1.1377 -1.6689 -1.0784
 3372TIP3   OH234310   3.127   1.998  15.497 -0.2189  0.1247 -0.3009
 3372TIP3    H134311   3.033   1.988  15.510 -0.1660  0.0984  0.0791
 3372TIP3    H234312   3.137   2.013  15.403 -0.6237  0.4177 -0.3005
 3373TIP3   OH234313   6.329   2.318  15.024  0.8875 -0.7071 -0.2921
 3373TIP3    H134314   6.365   2.405  15.041 -1.6115  0.6976 -1.6267
 3373TIP3    H234315   6.323   2.278  15.110  1.1344  0.8477  0.4973
 3374TIP3   OH234316   1.265   3.631  16.344  0.1820  0.1191  0.0187
 3374TIP3    H134317   1.224   3.585  16.418 -1.3205 -1.4097 -1.6820
 3374TIP3    H234318   1.341   3.577  16.322  0.3654  0.3276  0.1307
 3375TIP3   OH234319   1.778   3.825  14.750  0.1528 -0.4484 -0.0778
 3375TIP3    H134320   1.858   3.781  14.723 -0.1862 -0.0401 -1.8677
 3375TIP3    H234321   1.707   3.769  14.720 -0.2551  0.0116  0.0061
 3376TIP3   OH234322   4.589   0.180  14.058 -0.0023  0.5539 -0.1912
 3376TIP3    H134323   4.606   0.207  14.148  0.4983  0.3663 -0.2278
 3376TIP3    H234324   4.667   0.206  14.009 -0.3344  0.7962 -0.6047
 3377TIP3   OH234325   3.234   4.126  16.977 -0.2908  0.0927 -0.0617
 3377TIP3    H134326   3.186   4.142  17.058 -2.6550  1.0745 -1.5245
 3377TIP3    H234327   3.218   4.204  16.924  2.6061  0.2308 -0.8893
 3378TIP3   OH234328   2.934   5.364  15.875  0.0664  0.8405  0.1728
 3378TIP3    H134329   2.950   5.271  15.892  1.7964  1.1661  0.5412
 3378TIP3    H234330   2.840   5.370  15.860 -0.2390 -0.7933  1.2055
 3379TIP3   OH234331   5.501   1.773  16.943 -0.1574  0.0957 -0.2676
 3379TIP3    H134332   5.559   1.820  17.003  0.0923 -0.1504 -0.3181
 3379TIP3    H234333   5.472   1.696  16.992 -2.8126  1.6741  0.9034
 3380TIP3   OH234334   3.033   6.716  17.417 -0.3009 -0.4796 -0.3153
 3380TIP3    H134335   3.089   6.734  17.492  0.3367 -1.8491 -0.4313
 3380TIP3    H234336   2.944   6.730  17.449  0.0531  2.1710 -0.2482
 3381TIP3   OH234337   1.484   1.793  17.219  0.3663 -0.5611  0.7438
 3381TIP3    H134338   1.531   1.727  17.169  0.9450  2.1685 -2.6398
 3381TIP3    H234339   1.551   1.832  17.276  1.0542 -0.1096 -0.3419
 3382TIP3   OH234340   2.159   4.884  17.825 -0.6975 -0.5907 -0.1020
 3382TIP3    H134341   2.145   4.801  17.871 -0.2109  0.6828  2.5487
 3382TIP3    H234342   2.071   4.921  17.815 -0.7837 -0.7115  0.1998
 3383TIP3   OH234343   4.026   5.203  16.921 -0.0608  0.0083  0.2918
 3383TIP3    H134344   4.074   5.129  16.957  0.0128  0.8265  1.9679
 3383TIP3    H234345   3.946   5.164  16.884  0.1659 -0.9448  0.7824
 3384TIP3   OH234346   5.897   2.206  15.912 -0.3939  0.4372 -0.1801
 3384TIP3    H134347   5.962   2.257  15.961 -1.1289 -0.8214  2.2669
 3384TIP3    H234348   5.813   2.234  15.949 -0.9022 -1.3647  0.1301
 3385TIP3   OH234349   6.241   5.222  15.725 -0.0751  0.2208  0.6195
 3385TIP3    H134350   6.258   5.291  15.789  0.8363  0.4135  0.1906
 3385TIP3    H234351   6.292   5.248  15.648 -0.6194 -0.3525  0.0538
 3386TIP3   OH234352   1.093   3.998  16.771  0.2128 -0.4601 -0.0009
 3386TIP3    H134353   1.038   4.016  16.848  0.4920  0.1011  0.0747
 3386TIP3    H234354   1.034   4.007  16.697  0.3929  1.1657  0.0044
 3387TIP3   OH234355   2.972   1.171  15.076 -0.1311 -0.1406  0.3790
 3387TIP3    H134356   3.062   1.149  15.100  0.0057  0.3365  0.3100
 3387TIP3    H234357   2.978   1.209  14.989 -0.4778 -0.6825  0.1138
 3388TIP3   OH234358   3.009   5.164  17.301 -0.2491  0.5086  0.4031
 3388TIP3    H134359   2.938   5.121  17.348  0.1505 -0.4808  0.1361
 3388TIP3    H234360   3.020   5.112  17.222  0.1332  1.2263 -0.0301
 3389TIP3   OH234361   4.240   5.331  15.482 -0.1551 -0.6666 -0.5688
 3389TIP3    H134362   4.330   5.306  15.500  0.2100  0.3912 -0.8168
 3389TIP3    H234363   4.240   5.353  15.388 -0.3075  0.7352 -0.2622
 3390TIP3   OH234364   0.971   6.081  16.210 -0.5999 -0.0383  0.2151
 3390TIP3    H134365   0.899   6.116  16.263 -0.4520 -0.0099  0.3927
 3390TIP3    H234366   0.985   5.993  16.244  0.1878  0.3420  0.9148
 3391TIP3   OH234367   6.251   5.375  17.733 -0.1701 -0.3406 -0.4712
 3391TIP3    H134368   6.158   5.352  17.742 -0.1671  0.2544  1.7305
 3391TIP3    H234369   6.251   5.457  17.684 -0.6566 -1.2448 -2.0416
 3392TIP3   OH234370   6.469   2.118  16.657 -0.4441  0.6036 -0.1463
 3392TIP3    H134371   6.418   2.168  16.720 -1.4996  0.5965 -0.9604
 3392TIP3    H234372   6.559   2.124  16.688 -0.6842  2.1503  0.3342
 3393TIP3   OH234373   5.789   6.098  17.034 -0.1687  0.3406  0.0282
 3393TIP3    H134374   5.794   6.108  16.939  1.8205  1.5629  0.2032
 3393TIP3    H234375   5.870   6.138  17.066 -0.5398 -0.5378  2.2090
 3394TIP3   OH234376   1.078   0.691  14.325  0.3368  0.1599 -0.0089
 3394TIP3    H134377   1.173   0.706  14.320  0.2139  0.6487 -1.4934
 3394TIP3    H234378   1.047   0.707  14.236 -1.0267 -0.8669  0.2457
 3395TIP3   OH234379   0.353   1.947  17.596  0.4799  0.0686  0.3592
 3395TIP3    H134380   0.375   1.863  17.636 -2.6971 -0.9169  0.3179
 3395TIP3    H234381   0.260   1.939  17.574  0.6814  2.7099 -1.9398
 3396TIP3   OH234382   5.781   6.142  15.924  0.2682  0.3025  0.0781
 3396TIP3    H134383   5.818   6.054  15.912  0.8141  0.5739 -0.3323
 3396TIP3    H234384   5.746   6.142  16.013 -1.0009 -0.7776 -0.3864
 3397TIP3   OH234385   3.368   2.280  16.331  0.3003  0.0147  0.0265
 3397TIP3    H134386   3.306   2.221  16.375 -0.6350  2.4339  2.1597
 3397TIP3    H234387   3.421   2.317  16.401  1.6239  0.9276 -1.3704
 3398TIP3   OH234388   2.995   3.929  17.622 -0.1643 -0.0729  0.1676
 3398TIP3    H134389   3.049   3.931  17.701  0.8036 -0.3854 -0.4669
 3398TIP3    H234390   2.911   3.968  17.649 -0.1465 -0.9146  1.5534
 3399TIP3   OH234391   5.039   5.701  14.804 -0.5732 -0.1126 -0.2457
 3399TIP3    H134392   5.103   5.630  14.808 -0.9046 -0.4651 -1.0752
 3399TIP3    H234393   5.061   5.748  14.724 -0.4899  0.6034  0.1914
 3400TIP3   OH234394   5.244   3.038  16.426  1.2189 -0.0452  0.2436
 3400TIP3    H134395   5.174   2.979  16.397  1.6051 -0.5058  0.2404
 3400TIP3    H234396   5.200   3.121  16.441  0.6739 -0.3203  0.2014
 3401TIP3   OH234397   0.246   0.300  17.143 -0.4818  0.0575 -0.2521
 3401TIP3    H134398   0.311   0.254  17.195 -0.3174 -0.6204 -1.0345
 3401TIP3    H234399   0.194   0.349  17.207  1.4873  1.5458  0.3179
 3402TIP3   OH234400   1.302   3.061  17.351  0.0087 -0.0560  0.2657
 3402TIP3    H134401   1.376   3.007  17.378 -0.4399 -0.9216 -0.2121
 3402TIP3    H234402   1.312   3.142  17.402  1.1004 -0.2809  0.4406
 3403TIP3   OH234403   1.506   0.723  15.906 -0.0752  0.1093  0.1673
 3403TIP3    H134404   1.535   0.786  15.972  0.5200  0.7521 -0.6881
 3403TIP3    H234405   1.411   0.738  15.899  0.1808  1.5014 -0.6081
 3404TIP3   OH234406   3.030   0.603  16.493  0.6011  0.4218 -0.0799
 3404TIP3    H134407   2.987   0.623  16.576 -0.5723 -1.2062 -0.2587
 3404TIP3    H234408   2.996   0.668  16.432 -1.4637 -0.6464 -0.1402
 3405TIP3   OH234409   4.708   0.447  16.320 -0.5046  0.3685 -0.2981
 3405TIP3    H134410   4.659   0.376  16.280  0.3258  0.5770 -1.7571
 3405TIP3    H234411   4.710   0.426  16.414 -0.7376 -1.2374 -0.6316
 3406TIP3   OH234412   0.122   1.438  16.721 -0.2619 -0.1714 -0.0320
 3406TIP3    H134413   0.050   1.419  16.661  0.3920  2.0217 -1.6741
 3406TIP3    H234414   0.199   1.402  16.678 -0.1012 -0.7565  0.7336
 3407TIP3   OH234415   1.486   2.909  16.098  0.1894 -0.0975 -0.3855
 3407TIP3    H134416   1.473   2.935  16.189  0.3128 -0.8880 -0.1286
 3407TIP3    H234417   1.535   2.827  16.104  1.6083  0.6559 -1.2089
 3408TIP3   OH234418   2.379   0.215  17.816 -0.3834  0.0333  0.0260
 3408TIP3    H134419   2.431   0.296  17.817 -0.2674 -0.0495  1.1382
 3408TIP3    H234420   2.411   0.168  17.738 -0.8174  1.2797 -0.9413
 3409TIP3   OH234421   0.589   2.655  15.026 -0.4840 -0.2531  0.1140
 3409TIP3    H134422   0.685   2.657  15.031 -0.2908 -0.1247 -2.4871
 3409TIP3    H234423   0.569   2.573  14.981 -1.5623  0.1388 -0.1438
 3410TIP3   OH234424   4.127   3.507  16.675  0.2310  0.5311 -0.5179
 3410TIP3    H134425   4.074   3.455  16.735 -0.4914 -0.2493 -1.7986
 3410TIP3    H234426   4.218   3.485  16.697 -0.0463 -0.3383 -0.2406
 3411TIP3   OH234427   3.053   3.877  15.454 -0.1003  0.3082 -0.1977
 3411TIP3    H134428   3.087   3.811  15.394  0.9383  0.1035  0.5918
 3411TIP3    H234429   3.131   3.913  15.496 -0.5584  2.5070 -1.0709
 3412TIP3   OH234430   0.223   3.552  16.034  0.0262  0.8070  0.1257
 3412TIP3    H134431   0.166   3.582  16.105 -0.7499 -1.1698  0.3768
 3412TIP3    H234432   0.311   3.573  16.064 -0.4019  1.6658  0.8268
 3413TIP3   OH234433   4.066   1.074  18.135 -0.2075  0.1860  0.4031
 3413TIP3    H134434   4.026   1.147  18.183 -1.3339  0.0288 -0.2419
 3413TIP3    H234435   4.155   1.103  18.117 -1.4111  2.7436 -2.3743
 3414TIP3   OH234436   0.224   0.600  17.659  0.0966 -0.4757  0.3079
 3414TIP3    H134437   0.133   0.631  17.665  0.2739  0.0687  0.2231
 3414TIP3    H234438   0.217   0.505  17.670 -0.4063 -0.3671  1.0294
 3415TIP3   OH234439   0.478   0.692  16.382 -0.1266  0.6356 -0.7498
 3415TIP3    H134440   0.539   0.724  16.449 -0.7671 -3.1467  1.9615
 3415TIP3    H234441   0.392   0.723  16.410 -0.0401  1.9309 -1.8478
 3416TIP3   OH234442   5.864   5.574  15.602  0.7325  0.2505  0.3089
 3416TIP3    H134443   5.951   5.581  15.639 -0.0421  1.4768  2.0359
 3416TIP3    H234444   5.853   5.481  15.584  3.4331  0.3760 -2.7720
 3417TIP3   OH234445   4.865   2.536  17.756  0.0440 -0.0222  0.5537
 3417TIP3    H134446   4.892   2.623  17.729  1.2324 -0.4641  0.2540
 3417TIP3    H234447   4.837   2.493  17.675  0.1234 -0.1392  0.5876
 3418TIP3   OH234448   0.961   4.650  14.985 -0.4081 -0.2700 -0.2917
 3418TIP3    H134449   0.935   4.719  14.924 -2.4152 -0.0947  0.6717
 3418TIP3    H234450   0.923   4.570  14.947 -1.8510 -0.1271  0.7630
 3419TIP3   OH234451   4.022   4.617  17.088  0.8262  0.1781  0.3424
 3419TIP3    H134452   3.988   4.546  17.142  1.6786  0.2952  1.0525
 3419TIP3    H234453   4.061   4.678  17.150  0.4449  1.0863 -0.2978
 3420TIP3   OH234454   5.958   2.484  15.702  0.3057  0.6267  0.3741
 3420TIP3    H134455   5.953   2.525  15.789  1.7662 -1.5000  1.5632
 3420TIP3    H234456   6.038   2.433  15.705  0.4738  0.6083 -2.3464
 3421TIP3   OH234457   2.873   4.330  16.376 -0.9085 -0.0710  0.5305
 3421TIP3    H134458   2.912   4.322  16.463 -1.6922  0.1400  0.9186
 3421TIP3    H234459   2.946   4.351  16.319 -0.5194  0.8040  1.3150
 3422TIP3   OH234460   0.906   0.300  16.999 -0.3438  0.2943 -0.3385
 3422TIP3    H134461   0.952   0.285  16.917  1.7589 -1.0858  0.9976
 3422TIP3    H234462   0.965   0.356  17.050 -1.8919  1.6593  0.0359
 3423TIP3   OH234463   0.901   4.868  16.265  0.1118  0.2919 -0.2384
 3423TIP3    H134464   0.957   4.873  16.187  2.0885 -2.0658  0.8670
 3423TIP3    H234465   0.953   4.908  16.334 -0.3081 -0.3380  0.4554
 3424TIP3   OH234466   6.510   1.347  17.372  0.8096  0.3919  0.1094
 3424TIP3    H134467   6.560   1.377  17.448  0.6588  1.2353 -0.1142
 3424TIP3    H234468   6.565   1.368  17.297  0.0944  1.4281 -0.1489
 3425TIP3   OH234469   6.218   6.618  16.382 -0.0496 -0.1632 -0.3226
 3425TIP3    H134470   6.276   6.601  16.307 -1.7127 -2.1064 -1.2759
 3425TIP3    H234471   6.206   6.713  16.382  1.7376  0.1152 -1.1337
 3426TIP3   OH234472   2.768   5.644  17.741 -0.4764 -0.3519  0.1169
 3426TIP3    H134473   2.704   5.714  17.753 -0.2243  0.2895 -1.9525
 3426TIP3    H234474   2.841   5.668  17.798 -0.3836  1.1169 -0.5861
 3427TIP3   OH234475   3.206   3.199  17.281  0.1639  0.4119 -0.0451
 3427TIP3    H134476   3.291   3.168  17.250  0.0391  0.3361 -0.3171
 3427TIP3    H234477   3.227   3.273  17.338  0.4511 -0.0074  0.4064
 3428TIP3   OH234478   0.788   0.765  16.345  0.6186 -0.0070  0.4729
 3428TIP3    H134479   0.821   0.680  16.316  0.1201  0.2412 -0.8792
 3428TIP3    H234480   0.736   0.746  16.422 -1.8032 -1.3435 -1.3680
 3429TIP3   OH234481   2.282   0.777  14.708  0.6359 -0.0145 -0.0764
 3429TIP3    H134482   2.290   0.704  14.770 -0.8760  0.2776  0.5142
 3429TIP3    H234483   2.363   0.825  14.718  0.9323 -0.6596  0.7984
 3430TIP3   OH234484   6.080   2.542  15.091  0.2014 -0.5475  0.0853
 3430TIP3    H134485   6.032   2.602  15.149 -0.5222 -2.0047  1.0755
 3430TIP3    H234486   6.166   2.582  15.080 -0.8916  1.6852 -0.9790
 3431TIP3   OH234487   6.531   2.873  17.582 -0.0892  0.6009 -0.2869
 3431TIP3    H134488   6.624   2.898  17.580  0.0759  0.1213  0.8674
 3431TIP3    H234489   6.526   2.796  17.524  0.3807  0.1845  0.2151
 3432TIP3   OH234490   4.624   0.329  15.254 -0.3309 -0.0567 -0.3173
 3432TIP3    H134491   4.640   0.329  15.348 -1.5443 -0.0098 -0.1020
 3432TIP3    H234492   4.685   0.395  15.220  0.9057 -0.8537  0.2699
 3433TIP3   OH234493   0.734   1.238  16.159 -0.7851  0.1764  0.2012
 3433TIP3    H134494   0.820   1.259  16.122 -1.3400  0.3128 -1.0744
 3433TIP3    H234495   0.678   1.222  16.083 -1.8307 -0.1711  1.0107
 3434TIP3   OH234496   0.962   3.610  15.631 -0.4188  0.1962  0.9587
 3434TIP3    H134497   0.892   3.666  15.664 -1.6122 -1.3880  1.2643
 3434TIP3    H234498   0.988   3.557  15.706  0.8368  0.4799  0.7405
 3435TIP3   OH234499   6.120   6.436  16.578 -0.5948 -0.3079  0.5289
 3435TIP3    H134500   6.130   6.515  16.525 -1.5081 -0.5462 -0.0185
 3435TIP3    H234501   6.198   6.434  16.633 -0.1150  0.4772 -0.1044
 3436TIP3   OH234502   0.749   4.869  15.684  0.0910 -0.1913  0.2477
 3436TIP3    H134503   0.752   4.839  15.593  2.0283  2.3095 -0.6376
 3436TIP3    H234504   0.820   4.821  15.727 -1.4250 -2.0878  0.7881
 3437TIP3   OH234505   1.056   3.488  15.907  0.4994 -0.1018 -0.6644
 3437TIP3    H134506   0.993   3.482  15.980 -0.7197 -0.9038 -1.7441
 3437TIP3    H234507   1.120   3.419  15.925 -0.4836 -1.1211 -0.9639
 3438TIP3   OH234508   1.874   5.458  15.827  0.0874 -0.0082 -0.5632
 3438TIP3    H134509   1.846   5.384  15.881 -1.8867 -0.1461 -1.6875
 3438TIP3    H234510   1.960   5.481  15.861 -0.6312 -0.7243  1.9795
 3439TIP3   OH234511   2.199   0.305  14.059 -0.3005  0.4100 -0.7617
 3439TIP3    H134512   2.121   0.350  14.028 -2.2839 -1.0712  1.7180
 3439TIP3    H234513   2.186   0.213  14.034 -0.4328 -0.2286  1.4110
 3440TIP3   OH234514   4.264   6.442  17.741 -0.1540  0.3272 -0.8549
 3440TIP3    H134515   4.295   6.443  17.651  1.2519 -1.6407 -0.4447
 3440TIP3    H234516   4.322   6.381  17.787 -1.5031  0.4219  1.1423
 3441TIP3   OH234517   6.713   4.784  15.654  0.1816  0.0978  0.6136
 3441TIP3    H134518   6.735   4.693  15.676  0.0386 -0.1926 -0.4124
 3441TIP3    H234519   6.622   4.793  15.683  0.7904  0.5537  2.5735
 3442TIP3   OH234520   4.871   6.627  17.505  0.3185 -0.8359  0.1053
 3442TIP3    H134521   4.905   6.588  17.585  1.0408 -1.1886 -0.3623
 3442TIP3    H234522   4.905   6.571  17.435  0.9542  0.3254 -0.5495
 3443TIP3   OH234523   1.849   6.716  17.086  0.2563  0.0163  0.3559
 3443TIP3    H134524   1.765   6.710  17.131  0.1369  0.6948  0.2390
 3443TIP3    H234525   1.843   6.796  17.034  0.6412 -0.4031 -0.3521
 3444TIP3   OH234526   3.402   0.268  17.442 -0.1867 -0.0837  0.2488
 3444TIP3    H134527   3.431   0.306  17.358  0.8328  0.6040  0.8934
 3444TIP3    H234528   3.424   0.175  17.435 -1.3902 -0.3257 -0.7780
 3445TIP3   OH234529   4.379   6.640  15.201  0.2100  0.0019 -0.0505
 3445TIP3    H134530   4.389   6.731  15.173 -1.4147 -0.0625 -0.9793
 3445TIP3    H234531   4.387   6.589  15.121  1.0211 -0.6833  0.4529
 3446TIP3   OH234532   3.591   0.307  16.023 -0.3369  0.3090  0.2156
 3446TIP3    H134533   3.614   0.303  15.930  0.7088 -1.2885  0.4899
 3446TIP3    H234534   3.672   0.334  16.066 -1.5301  4.0135  0.5169
 3447TIP3   OH234535   4.809   1.992  15.039 -0.3558  0.2751 -0.5336
 3447TIP3    H134536   4.791   2.036  14.956 -3.3566 -0.1849 -0.2531
 3447TIP3    H234537   4.845   1.907  15.015 -0.6505  0.3773 -1.3600
 3448TIP3   OH234538   0.849   2.169  16.027  0.0152 -0.0290 -0.9641
 3448TIP3    H134539   0.942   2.169  16.001  0.4036  1.3384  0.2951
 3448TIP3    H234540   0.801   2.159  15.945  1.2443  1.0332 -1.8535
 3449TIP3   OH234541   5.811   0.959  16.055 -0.0296  0.0977  0.5806
 3449TIP3    H134542   5.763   0.877  16.049 -2.8533  1.2590  4.1002
 3449TIP3    H234543   5.757   1.022  16.006  0.3557  0.5260  0.6980
 3450TIP3   OH234544   6.550   5.184  15.776  0.2749  0.2381  0.2028
 3450TIP3    H134545   6.486   5.184  15.848 -1.0755 -0.4243 -0.9480
 3450TIP3    H234546   6.608   5.111  15.796  0.8380  0.9782  1.3795
 3451TIP3   OH234547   2.506   3.768  16.194 -0.4718 -0.3967  0.2099
 3451TIP3    H134548   2.451   3.708  16.245 -1.9974  1.5736  1.0327
 3451TIP3    H234549   2.459   3.779  16.111 -1.1432  0.9273  0.7331
 3452TIP3   OH234550   1.714   6.027  14.363 -0.4826 -0.3476 -0.2278
 3452TIP3    H134551   1.766   6.106  14.376 -0.8458 -0.3114  1.1560
 3452TIP3    H234552   1.778   5.961  14.335 -0.1858  0.4176 -1.4306
 3453TIP3   OH234553   3.295   4.012  15.527 -0.0764  0.4227 -0.1503
 3453TIP3    H134554   3.264   4.099  15.502 -2.0170  0.2525  1.3775
 3453TIP3    H234555   3.371   3.996  15.471 -1.5069  1.7998 -2.6658
 3454TIP3   OH234556   5.667   1.107  17.172 -0.5098  0.0187  0.1949
 3454TIP3    H134557   5.620   1.052  17.235  0.4223 -0.8971  0.1158
 3454TIP3    H234558   5.740   1.143  17.221 -1.0024  1.0395  0.1894
 3455TIP3   OH234559   1.966   4.530  15.532  0.6213  0.3961 -0.1536
 3455TIP3    H134560   1.909   4.594  15.490  0.8247  0.2993 -0.5811
 3455TIP3    H234561   1.911   4.452  15.540  0.4905  0.5060  0.0278
 3456TIP3   OH234562   0.171   2.463  15.369  0.7450  0.4681 -0.0186
 3456TIP3    H134563   0.185   2.441  15.461 -0.2029 -0.1252 -0.0074
 3456TIP3    H234564   0.162   2.559  15.369 -1.8220  0.2923  0.8897
 3457TIP3   OH234565   1.764   5.546  17.927 -0.3654  0.0341  0.0442
 3457TIP3    H134566   1.713   5.614  17.972 -1.3421  0.2721 -1.3496
 3457TIP3    H234567   1.849   5.587  17.911 -0.1871  0.1288  1.1671
 3458TIP3   OH234568   0.246   0.973  17.114 -0.0609  0.0718 -0.5068
 3458TIP3    H134569   0.197   1.024  17.179 -0.5547 -1.0811  0.0581
 3458TIP3    H234570   0.253   1.031  17.038 -4.0522 -0.3138 -1.3912
 3459TIP3   OH234571   1.357   3.952  15.979 -0.5563  0.4432  0.2980
 3459TIP3    H134572   1.369   4.016  15.908 -0.0257  0.0508  0.0291
 3459TIP3    H234573   1.300   3.885  15.941  1.9174 -1.2075 -0.7290
 3460TIP3   OH234574   3.549   1.616  16.247 -0.0155  0.5426  0.5596
 3460TIP3    H134575   3.610   1.551  16.212 -1.8817 -0.6543 -0.7096
 3460TIP3    H234576   3.478   1.563  16.284 -0.7897  1.8743  1.0330
 3461TIP3   OH234577   6.682   2.113  15.836  0.8172  0.3592  0.5996
 3461TIP3    H134578   6.666   2.206  15.821 -1.6131 -0.0851  0.1165
 3461TIP3    H234579   6.776   2.102  15.823  0.8084  2.3282 -1.6995
 3462TIP3   OH234580   3.750   3.535  16.038 -0.5136 -0.1329  0.1008
 3462TIP3    H134581   3.765   3.544  16.132 -2.7967  1.5172  0.4130
 3462TIP3    H234582   3.702   3.453  16.029 -0.6296 -0.1022  0.4318
 3463TIP3   OH234583   4.258   4.192  15.517 -0.0042  0.3883 -0.7815
 3463TIP3    H134584   4.258   4.106  15.474 -0.6523 -0.6876  1.2663
 3463TIP3    H234585   4.180   4.192  15.572  2.3722  0.3220  2.9197
 3464TIP3   OH234586   3.650   3.801  16.018 -0.0679 -0.1241 -0.5527
 3464TIP3    H134587   3.671   3.708  16.010  0.9009  0.2016 -2.3933
 3464TIP3    H234588   3.731   3.843  16.045 -0.2610  0.2842 -0.5897
 3465TIP3   OH234589   2.019   5.175  17.462  0.6807 -0.3042 -0.4502
 3465TIP3    H134590   2.029   5.270  17.457  0.7894 -0.3756 -2.9792
 3465TIP3    H234591   2.088   5.140  17.404 -1.0304 -1.7556 -1.7301
 3466TIP3   OH234592   4.683   3.314  16.211  0.4803  0.1577  0.5372
 3466TIP3    H134593   4.718   3.236  16.254  0.0210  0.3230  1.2277
 3466TIP3    H234594   4.604   3.284  16.166 -0.4848  0.4749  1.9598
 3467TIP3   OH234595   1.334   6.543  14.163  0.1788  0.0468  0.1526
 3467TIP3    H134596   1.402   6.533  14.096  0.4522  0.5419  0.3502
 3467TIP3    H234597   1.302   6.454  14.178  0.2196 -0.0933 -0.5225
 3468TIP3   OH234598   3.801   3.074  16.934  0.4576  0.1603  0.0267
 3468TIP3    H134599   3.742   3.043  16.865 -0.3236  0.7897  0.3989
 3468TIP3    H234600   3.887   3.078  16.891 -0.0652  0.8014 -1.0081
 3469TIP3   OH234601   2.657   4.659  15.044 -0.2242  0.0312  0.6093
 3469TIP3    H134602   2.717   4.609  14.989  1.1760  0.1594  1.9629
 3469TIP3    H234603   2.708   4.734  15.074 -1.7832  1.4286 -0.0547
 3470TIP3   OH234604   4.854   3.708  17.337 -0.1083  0.0170 -0.1527
 3470TIP3    H134605   4.772   3.734  17.295 -1.2283 -0.7206  1.4529
 3470TIP3    H234606   4.827   3.671  17.421  1.8339 -0.8806  0.1345
 3471TIP3   OH234607   3.292   6.591  15.361  0.2664 -0.3241 -0.1130
 3471TIP3    H134608   3.212   6.637  15.334  0.4170 -0.3567 -0.6315
 3471TIP3    H234609   3.261   6.505  15.390  0.2698 -1.0294 -2.0500
 3472TIP3   OH234610   0.912   6.172  14.555  0.4764  0.1401 -0.5133
 3472TIP3    H134611   0.954   6.086  14.559  2.4520  1.0511 -0.6288
 3472TIP3    H234612   0.980   6.230  14.522 -0.7523  1.8056 -0.2189
 3473TIP3   OH234613   3.594   2.273  15.832 -0.0979  0.4258 -0.5661
 3473TIP3    H134614   3.537   2.317  15.896  0.9675  0.2037  0.5769
 3473TIP3    H234615   3.565   2.182  15.833  0.5415  0.2148  0.3612
 3474TIP3   OH234616   3.201   3.228  16.136 -0.1361  0.2855  0.2465
 3474TIP3    H134617   3.238   3.274  16.211  0.0272  0.1486  0.2504
 3474TIP3    H234618   3.228   3.137  16.147  2.2669  0.7076 -1.4300
 3475TIP3   OH234619   3.782   6.319  16.863  0.0107 -0.2246 -0.6178
 3475TIP3    H134620   3.719   6.389  16.878  0.5180  0.0615  0.2540
 3475TIP3    H234621   3.850   6.358  16.808 -0.1226 -0.2704 -0.8136
 3476TIP3   OH234622   5.177   1.014  16.727  0.3009  0.3107 -0.2592
 3476TIP3    H134623   5.219   0.954  16.665  0.5515 -0.0675  0.2733
 3476TIP3    H234624   5.245   1.077  16.748  1.5389 -1.7580  2.5935
 3477TIP3   OH234625   5.567   6.227  15.769  0.3208  0.1845  0.4156
 3477TIP3    H134626   5.647   6.221  15.822 -1.4721  0.5048  3.3584
 3477TIP3    H234627   5.533   6.137  15.767  0.0482  0.2895  0.3089
 3478TIP3   OH234628   0.711   1.258  16.957 -0.0413  0.1350 -0.5786
 3478TIP3    H134629   0.786   1.278  17.013  0.3874 -2.6950 -0.0004
 3478TIP3    H234630   0.652   1.209  17.014 -0.6394 -0.8592 -2.0112
 3479TIP3   OH234631   0.788   5.608  17.650 -0.7158  0.2995 -0.2345
 3479TIP3    H134632   0.760   5.677  17.590  0.2751  0.9322  0.0072
 3479TIP3    H234633   0.790   5.650  17.736 -1.8218 -0.5149  0.2185
 3480TIP3   OH234634   1.252   4.410  16.224 -0.0442 -0.1402  0.0108
 3480TIP3    H134635   1.264   4.389  16.132  0.6527 -0.7445  0.2342
 3480TIP3    H234636   1.191   4.344  16.257  1.9060 -1.7293  0.6367
 3481TIP3   OH234637   6.143   5.525  17.409  0.4735  0.1171  0.7392
 3481TIP3    H134638   6.094   5.594  17.365  1.0298 -0.1432 -0.3247
 3481TIP3    H234639   6.194   5.484  17.340  1.9564  0.1654  1.7663
 3482TIP3   OH234640   2.069   4.691  16.059 -0.1210  0.4717  0.3512
 3482TIP3    H134641   2.005   4.753  16.025 -0.6027 -0.7049 -0.9924
 3482TIP3    H234642   2.019   4.612  16.078  0.7746 -0.1536  0.1778
 3483TIP3   OH234643   1.891   3.095  16.056  0.1849 -0.1303  0.0059
 3483TIP3    H134644   1.888   3.016  16.110 -2.2517 -0.0275  0.1015
 3483TIP3    H234645   1.849   3.163  16.108  0.1901  0.6530 -0.9753
 3484TIP3   OH234646   0.778   2.851  16.742  0.0354 -0.0932  0.2549
 3484TIP3    H134647   0.721   2.775  16.737  0.1091 -0.1045 -0.5840
 3484TIP3    H234648   0.805   2.855  16.834 -0.8066 -0.4522  0.5241
 3485TIP3   OH234649   3.916   5.323  14.644 -0.3580  0.4908 -0.0082
 3485TIP3    H134650   3.860   5.256  14.683 -1.6636  2.1739  1.2005
 3485TIP3    H234651   3.994   5.326  14.701 -0.6377  0.4945  0.3801
 3486TIP3   OH234652   5.963   4.407  17.766  0.8002 -0.5074 -0.7487
 3486TIP3    H134653   5.960   4.314  17.745  1.0491 -0.5906 -0.4249
 3486TIP3    H234654   5.873   4.437  17.760  0.4681 -1.1299  0.7836
 3487TIP3   OH234655   3.468   1.688  17.002  0.5226  0.4121 -0.5466
 3487TIP3    H134656   3.384   1.646  17.024  0.4336  0.7705 -0.1909
 3487TIP3    H234657   3.466   1.696  16.907 -0.3962  1.5358 -0.4616
 3488TIP3   OH234658   6.598   2.383  15.780 -0.0320  0.4087  0.3428
 3488TIP3    H134659   6.648   2.463  15.766  0.5526 -0.1918 -1.3406
 3488TIP3    H234660   6.553   2.396  15.864 -0.5243  2.7655 -0.2133
 3489TIP3   OH234661   4.741   3.855  16.014  0.4299  0.1133 -0.2012
 3489TIP3    H134662   4.720   3.924  15.951  0.1831  0.4142  0.2078
 3489TIP3    H234663   4.681   3.870  16.087 -1.2413 -1.8878 -1.0589
 3490TIP3   OH234664   6.302   0.982  14.652  0.6582  0.2469 -0.0019
 3490TIP3    H134665   6.210   0.990  14.627  0.8781 -0.9420 -1.3771
 3490TIP3    H234666   6.321   1.060  14.703 -0.9265  0.8588 -0.3160
 3491TIP3   OH234667   5.501   2.898  16.755 -0.4667  0.2077  0.3329
 3491TIP3    H134668   5.515   2.948  16.674 -1.5863  0.0594  0.0283
 3491TIP3    H234669   5.488   2.808  16.725  0.1236 -0.0241  0.7664
 3492TIP3   OH234670   4.047   0.688  16.649  0.0743  0.5581  0.4575
 3492TIP3    H134671   3.962   0.643  16.654  0.3794 -0.0418  0.4257
 3492TIP3    H234672   4.086   0.654  16.568  0.3773  0.7656  0.5171
 3493TIP3   OH234673   3.042   4.949  14.493 -0.4600 -0.4221 -0.0386
 3493TIP3    H134674   3.030   4.856  14.475 -1.4807 -0.1531 -0.8387
 3493TIP3    H234675   3.134   4.957  14.519  0.2344 -1.3510 -2.0184
 3494TIP3   OH234676   1.303   2.522  16.321 -0.2161  0.4285 -0.2691
 3494TIP3    H134677   1.216   2.482  16.324  0.1149 -0.2607  0.3623
 3494TIP3    H234678   1.324   2.527  16.227 -0.6785  0.0209 -0.3961
 3495TIP3   OH234679   0.177   4.698  17.938  0.0340  0.3550  0.2335
 3495TIP3    H134680   0.151   4.613  17.975  0.4344  0.1111 -0.0412
 3495TIP3    H234681   0.163   4.688  17.844  2.2933 -0.2276 -0.0914
 3496TIP3   OH234682   3.779   1.227  15.477  0.4252 -0.0334 -0.3269
 3496TIP3    H134683   3.811   1.143  15.509  1.1685  0.2854 -0.2144
 3496TIP3    H234684   3.777   1.218  15.382  0.1952 -0.2835 -0.2992
 3497TIP3   OH234685   2.483   5.709  14.105 -0.4840 -0.2308  0.1435
 3497TIP3    H134686   2.411   5.647  14.092  0.7452 -2.0392  1.4175
 3497TIP3    H234687   2.470   5.743  14.194 -0.1350 -0.0994  0.1486
 3498TIP3   OH234688   0.712   2.662  17.661 -0.2599  0.0648  0.2410
 3498TIP3    H134689   0.761   2.664  17.744  0.4255 -1.0663 -0.1148
 3498TIP3    H234690   0.712   2.570  17.636 -0.6410  0.3729 -0.9250
 3499TIP3   OH234691   0.291   6.343  17.119 -0.4642  0.1357 -0.0912
 3499TIP3    H134692   0.224   6.289  17.161  0.9108 -1.0550  0.6575
 3499TIP3    H234693   0.339   6.282  17.063 -0.3429  1.0915 -1.0694
 3500TIP3   OH234694   3.627   6.608  16.706 -0.1633 -0.0841  0.2702
 3500TIP3    H134695   3.679   6.650  16.638  0.4399 -1.1986  0.0261
 3500TIP3    H234696   3.537   6.613  16.674  0.0398 -0.0182 -0.3047
 3501TIP3   OH234697   3.777   1.937  17.303  0.6780 -0.1912  0.0677
 3501TIP3    H134698   3.730   1.857  17.326  0.9406 -0.8860 -1.6888
 3501TIP3    H234699   3.750   1.956  17.214  2.0366  0.6465 -0.1960
 3502TIP3   OH234700   2.329   5.820  15.759 -0.1787 -0.5427  0.2077
 3502TIP3    H134701   2.370   5.831  15.673  1.0389  0.0944  0.8329
 3502TIP3    H234702   2.388   5.762  15.806  0.4572  0.9730  1.3798
 3503TIP3   OH234703   2.325   1.875  16.877  0.1374 -0.4483 -0.3837
 3503TIP3    H134704   2.326   1.795  16.930 -1.5179 -0.4569 -0.3167
 3503TIP3    H234705   2.331   1.843  16.786  0.6598 -0.5732 -0.3086
 3504TIP3   OH234706   3.138   2.995  15.772  0.3649 -0.3370  0.3971
 3504TIP3    H134707   3.116   3.088  15.778 -0.8632 -0.6186  0.6047
 3504TIP3    H234708   3.139   2.966  15.863 -0.9461 -0.8685  0.2742
 3505TIP3   OH234709   0.496   5.297  15.454 -0.4817  0.3330  0.1857
 3505TIP3    H134710   0.589   5.307  15.474 -0.3819  0.3647 -0.2805
 3505TIP3    H234711   0.476   5.207  15.480 -0.2851  0.2803  0.1597
 3506TIP3   OH234712   1.418   3.005  16.916 -0.1161  0.2853  0.1286
 3506TIP3    H134713   1.513   3.017  16.920 -0.1807  0.8083  0.1147
 3506TIP3    H234714   1.394   3.037  16.829  0.2131 -3.4998 -1.5409
 3507TIP3   OH234715   4.837   4.548  17.136 -0.1117 -0.1240  0.3521
 3507TIP3    H134716   4.795   4.500  17.064  0.0396 -1.1025  0.9044
 3507TIP3    H234717   4.766   4.599  17.176  0.1389  2.0017 -1.6778
 3508TIP3   OH234718   0.098   0.177  15.570  0.7697  0.2174 -0.4920
 3508TIP3    H134719   0.144   0.257  15.595  1.2638  0.5057 -2.2046
 3508TIP3    H234720   0.108   0.172  15.475 -1.7408 -0.3545 -0.7951
 3509TIP3   OH234721   6.331   2.072  15.847 -0.2307 -0.4629  0.2607
 3509TIP3    H134722   6.393   2.099  15.914  1.1139  0.4570 -1.2821
 3509TIP3    H234723   6.348   2.130  15.773 -2.0418 -1.0606 -0.7007
 3510TIP3   OH234724   6.014   0.363  16.076  0.5634 -0.7931 -0.4140
 3510TIP3    H134725   5.925   0.399  16.087  0.9191  0.2290 -0.7611
 3510TIP3    H234726   6.061   0.431  16.028  1.7748 -0.9800  0.4832
 3511TIP3   OH234727   4.409   2.756  15.834  0.0765 -0.3418 -0.1387
 3511TIP3    H134728   4.356   2.787  15.761  0.1620 -1.1038 -0.5314
 3511TIP3    H234729   4.346   2.741  15.904 -0.0867 -0.2337 -0.2592
 3512TIP3   OH234730   4.518   1.686  14.442 -0.4646  0.2144  0.3082
 3512TIP3    H134731   4.452   1.646  14.385 -1.6464  1.4641  0.7417
 3512TIP3    H234732   4.513   1.636  14.523 -2.7587  1.8491  1.2682
 3513TIP3   OH234733   2.449   4.417  17.467  0.2816  0.2904  0.1909
 3513TIP3    H134734   2.403   4.424  17.551  1.6780  1.6948  0.8971
 3513TIP3    H234735   2.507   4.342  17.477 -0.3988 -0.2754  0.0152
 3514TIP3   OH234736   4.748   0.676  14.523  0.0121 -0.2829  0.4385
 3514TIP3    H134737   4.756   0.747  14.459  3.7951 -0.8922  0.0178
 3514TIP3    H234738   4.692   0.612  14.480  1.1541  0.0257 -1.6414
 3515TIP3   OH234739   0.180   3.778  17.468  0.2578  0.1342 -0.0577
 3515TIP3    H134740   0.220   3.805  17.550 -0.1402  0.1934  0.1183
 3515TIP3    H234741   0.253   3.773  17.406  0.3853  1.2232  0.0002
 3516TIP3   OH234742   4.235   2.549  17.926 -0.4584  0.0330  0.1214
 3516TIP3    H134743   4.301   2.585  17.985 -1.0415 -0.4582  1.1003
 3516TIP3    H234744   4.276   2.470  17.889 -0.2911  0.0420  0.2877
 3517TIP3   OH234745   0.971   1.813  16.333 -0.0950 -0.4108  0.0635
 3517TIP3    H134746   0.986   1.758  16.256 -1.1424 -1.4740  0.5905
 3517TIP3    H234747   0.981   1.754  16.408  1.8783  0.8084  0.8431
 3518TIP3   OH234748   2.875   3.470  16.909  0.3803 -0.1331 -0.3898
 3518TIP3    H134749   2.813   3.528  16.866 -0.4946 -0.2917  0.6091
 3518TIP3    H234750   2.826   3.389  16.922  1.0693 -0.5432 -0.3336
 3519TIP3   OH234751   3.376   5.162  15.281 -0.0561 -0.2680  0.2978
 3519TIP3    H134752   3.431   5.083  15.281  0.4740  0.0916 -0.2159
 3519TIP3    H234753   3.308   5.143  15.216  0.9519  0.2698 -0.9716
 3520TIP3   OH234754   0.337   6.705  16.792  0.1480 -0.7816 -0.7819
 3520TIP3    H134755   0.248   6.718  16.824  0.7616 -0.4369  0.8597
 3520TIP3    H234756   0.387   6.777  16.831  1.5724 -2.1982  0.1204
 3521TIP3   OH234757   0.315   1.275  16.999 -0.0139 -0.2653 -0.1025
 3521TIP3    H134758   0.355   1.294  17.083 -0.3818 -1.8631  0.4801
 3521TIP3    H234759   0.223   1.300  17.009  0.2030  0.7081 -0.4647
 3522TIP3   OH234760   5.120   0.531  15.171 -0.2682  0.2696  0.2203
 3522TIP3    H134761   5.204   0.572  15.191 -0.0781 -0.8380  1.8776
 3522TIP3    H234762   5.058   0.605  15.166  0.6627  1.0317 -0.4178
 3523TIP3   OH234763   2.633   4.205  17.505 -0.0435 -0.8563 -0.5823
 3523TIP3    H134764   2.707   4.236  17.454 -0.0238 -1.4851 -0.9425
 3523TIP3    H234765   2.670   4.143  17.567 -0.3740 -1.8433 -1.3500
 3524TIP3   OH234766   2.275   6.069  15.916  0.8743 -0.3554 -0.3615
 3524TIP3    H134767   2.220   5.992  15.934  0.4288  0.3284  1.5283
 3524TIP3    H234768   2.354   6.033  15.877  0.6573 -1.7897  0.4186
 3525TIP3   OH234769   3.831   2.201  16.402 -0.2968 -0.0794  0.0032
 3525TIP3    H134770   3.773   2.182  16.476 -0.5200  1.3590  0.2304
 3525TIP3    H234771   3.900   2.135  16.408  0.1661  0.5144  2.0163
 3526TIP3   OH234772   3.889   5.615  16.937 -0.0504  0.4125  0.5072
 3526TIP3    H134773   3.933   5.678  16.995 -0.8756  0.8355  0.6823
 3526TIP3    H234774   3.851   5.669  16.868  1.5969 -0.1441 -0.9292
 3527TIP3   OH234775   1.607   2.769  15.036 -0.4763 -0.2369 -0.7605
 3527TIP3    H134776   1.622   2.675  15.032  2.0167  0.1185 -2.3415
 3527TIP3    H234777   1.588   2.794  14.945 -0.1747  0.8887 -0.5305
 3528TIP3   OH234778   3.406   2.134  15.196 -0.6878  0.6319 -0.4523
 3528TIP3    H134779   3.498   2.113  15.182 -1.0022 -2.1218  0.8874
 3528TIP3    H234780   3.405   2.188  15.275 -0.3171 -1.9127  1.4073
 3529TIP3   OH234781   4.436   6.718  15.450 -0.2721 -0.2531 -0.1064
 3529TIP3    H134782   4.379   6.681  15.382  0.6940 -2.3169  0.1139
 3529TIP3    H234783   4.494   6.645  15.474 -0.0491  0.6681  2.3731
 3530TIP3   OH234784   3.376   4.314  16.280  0.2112  0.6436 -0.2760
 3530TIP3    H134785   3.385   4.253  16.207 -0.7154 -0.4587  0.5015
 3530TIP3    H234786   3.360   4.259  16.356  0.1961  1.8230  0.6047
 3531TIP3   OH234787   3.569   4.936  18.327  0.1323 -0.2955 -0.2100
 3531TIP3    H134788   3.624   4.933  18.249  1.1561 -0.8593  0.5073
 3531TIP3    H234789   3.596   5.017  18.371  1.0269 -0.9904  0.5688
 3532TIP3   OH234790   4.498   3.906  16.553  0.4456 -0.1136 -0.1130
 3532TIP3    H134791   4.450   3.928  16.633 -0.1481 -0.0755 -0.4706
 3532TIP3    H234792   4.586   3.941  16.568  0.2261  0.2569  0.3564
 3533TIP3   OH234793   6.337   0.708  17.672 -0.1112 -0.0698  0.0323
 3533TIP3    H134794   6.386   0.787  17.694  1.4464 -1.4967  2.0169
 3533TIP3    H234795   6.393   0.662  17.609 -0.2617 -0.3674  0.1176
 3534TIP3   OH234796   6.598   1.069  17.480  0.0983 -0.3392 -0.1112
 3534TIP3    H134797   6.538   0.995  17.472 -1.4447  0.8513 -0.0291
 3534TIP3    H234798   6.543   1.146  17.465  1.2084  0.9188  1.8640
 3535TIP3   OH234799   4.190   1.294  17.935 -0.2615 -0.2280  0.4937
 3535TIP3    H134800   4.250   1.281  18.008 -0.8520  0.2923  1.0915
 3535TIP3    H234801   4.209   1.222  17.875  0.3461 -0.5712  1.0829
 3536TIP3   OH234802   2.895   3.348  17.438  0.7667  0.7006 -0.3997
 3536TIP3    H134803   2.861   3.436  17.428 -0.7487  0.0832 -1.0296
 3536TIP3    H234804   2.930   3.325  17.352  0.5447  0.4555 -0.4266
 3537TIP3   OH234805   5.991   0.936  17.730  0.0755  0.8312  0.0008
 3537TIP3    H134806   5.944   1.005  17.777  0.5929  1.4867 -0.4286
 3537TIP3    H234807   6.073   0.925  17.779 -0.7877 -0.7962  1.1598
 3538TIP3   OH234808   5.868   2.224  17.536  0.3831 -0.2862  0.8492
 3538TIP3    H134809   5.849   2.171  17.614 -0.0750  0.6270  1.3784
 3538TIP3    H234810   5.875   2.313  17.570 -0.8644  0.2763 -0.2931
 3539TIP3   OH234811   3.056   0.930  17.936 -0.2522  0.0519  0.0055
 3539TIP3    H134812   3.094   0.976  18.012  1.6346  1.1894 -1.5288
 3539TIP3    H234813   3.121   0.862  17.915 -1.5223 -1.3062  0.3276
 3540TIP3   OH234814   5.760   1.228  17.592  0.3171 -0.0466  0.5017
 3540TIP3    H134815   5.820   1.249  17.664  1.2772 -0.9981  0.0020
 3540TIP3    H234816   5.818   1.211  17.517 -0.6484  0.5080 -0.3964
 3541TIP3   OH234817   4.118   4.965  15.255  0.6454 -0.9778 -0.2956
 3541TIP3    H134818   4.059   4.926  15.190 -0.2136 -2.8620  1.5121
 3541TIP3    H234819   4.198   4.985  15.205 -1.0304  0.6548 -2.5779
 3542TIP3   OH234820   6.687   0.426  15.191 -0.1624 -0.5398 -0.2226
 3542TIP3    H134821   6.709   0.345  15.145 -1.5705 -0.2941 -1.4280
 3542TIP3    H234822   6.663   0.487  15.121 -0.5153  0.4570  0.7402
 3543TIP3   OH234823   0.126   3.354  16.755  0.0476  0.2459 -0.2976
 3543TIP3    H134824   0.168   3.280  16.710 -1.9940  0.3567 -2.6405
 3543TIP3    H234825   0.152   3.430  16.703 -0.3302  0.7564  0.2622
 3544TIP3   OH234826   0.758   1.955  16.183 -0.0205 -0.1013 -0.4076
 3544TIP3    H134827   0.781   2.039  16.142  0.6931  1.1716  2.3344
 3544TIP3    H234828   0.821   1.946  16.255 -2.5545 -0.9833  1.8716
 3545TIP3   OH234829   5.744   0.666  15.561  0.0320  0.3253  0.4437
 3545TIP3    H134830   5.667   0.659  15.616 -1.0833 -0.2866 -1.1168
 3545TIP3    H234831   5.811   0.613  15.605 -1.6331 -2.3807 -0.0722
 3546TIP3   OH234832   0.545   3.727  17.846  0.1538  0.8703 -0.2369
 3546TIP3    H134833   0.632   3.695  17.824 -0.8627 -1.9728 -0.5164
 3546TIP3    H234834   0.546   3.739  17.941  1.4308  3.0304 -0.4545
 3547TIP3   OH234835   3.911   4.710  15.950 -0.7013  0.3624 -0.4310
 3547TIP3    H134836   3.948   4.692  16.037 -1.3781  0.0055 -0.2133
 3547TIP3    H234837   3.816   4.710  15.964 -0.9660 -2.2043 -1.6188
 3548TIP3   OH234838   6.113   2.411  17.167 -0.1802 -0.1864  0.0847
 3548TIP3    H134839   6.122   2.448  17.255  0.3602 -1.3567  0.5393
 3548TIP3    H234840   6.039   2.458  17.129 -1.4708 -0.7765  1.7589
 3549TIP3   OH234841   5.997   5.088  14.992  0.2310 -0.0810 -0.2570
 3549TIP3    H134842   5.965   5.014  15.045 -1.6006  0.0292 -1.1350
 3549TIP3    H234843   6.042   5.047  14.919 -0.5046 -0.3528 -0.5726
 3550TIP3   OH234844   5.494   5.715  15.711  0.3330 -0.4900 -0.4802
 3550TIP3    H134845   5.516   5.759  15.628 -0.5383 -0.7700 -0.8730
 3550TIP3    H234846   5.578   5.705  15.756  0.5795  1.4748 -0.4253
 3551TIP3   OH234847   1.385   5.294  17.045 -0.4540 -0.0555  0.3541
 3551TIP3    H134848   1.353   5.308  16.956 -0.4814 -1.5067  0.1021
 3551TIP3    H234849   1.454   5.359  17.057 -2.8491  2.6308  0.6204
 3552TIP3   OH234850   5.532   6.304  16.735  0.1095  0.2894  0.6609
 3552TIP3    H134851   5.457   6.280  16.790  0.0611 -0.6867  0.1836
 3552TIP3    H234852   5.607   6.303  16.795  0.3114 -2.2931  0.4473
 3553TIP3   OH234853   0.876   1.168  15.714 -0.2857 -0.5646 -0.1574
 3553TIP3    H134854   0.902   1.088  15.759 -1.3525 -0.7348  0.1714
 3553TIP3    H234855   0.900   1.152  15.622 -0.8553 -1.4314 -0.1699
 3554TIP3   OH234856   0.650   0.971  14.522  0.4726  0.3311  0.4854
 3554TIP3    H134857   0.655   0.931  14.609  0.4179 -0.5451  0.0938
 3554TIP3    H234858   0.703   0.914  14.466 -0.6597  0.0556 -0.3502
 3555TIP3   OH234859   5.542   4.132  17.157 -0.1860 -0.1961  0.2239
 3555TIP3    H134860   5.619   4.093  17.198  0.8695  0.4625 -1.0427
 3555TIP3    H234861   5.476   4.133  17.225  0.8119 -1.1376  1.2362
 3556TIP3   OH234862   4.411   1.719  18.169 -0.3962 -0.2946  0.3889
 3556TIP3    H134863   4.381   1.676  18.249 -0.2179  0.3689  0.8193
 3556TIP3    H234864   4.506   1.712  18.172 -0.4472 -2.0555 -0.7835
 3557TIP3   OH234865   6.556   4.809  15.278  0.1657  0.0126 -0.3477
 3557TIP3    H134866   6.475   4.760  15.263  0.0757 -0.1456  0.6093
 3557TIP3    H234867   6.620   4.742  15.304  0.2775  0.2849  0.0967
 3558TIP3   OH234868   1.788   3.261  16.779 -0.0597  0.3432 -0.3070
 3558TIP3    H134869   1.846   3.321  16.827 -0.2630  0.3889 -0.1195
 3558TIP3    H234870   1.739   3.319  16.720 -0.2031  0.3561 -0.1777
 3559TIP3   OH234871   2.873   2.115  16.412  0.3296  0.4908 -0.3002
 3559TIP3    H134872   2.962   2.148  16.409  0.5725 -0.2019 -1.5772
 3559TIP3    H234873   2.881   2.022  16.394 -0.6535  0.4282 -0.4925
 3560TIP3   OH234874   4.653   4.984  17.182 -0.3477  0.2195 -0.3918
 3560TIP3    H134875   4.633   5.061  17.129 -0.7409  0.1184 -0.3985
 3560TIP3    H234876   4.728   5.010  17.236 -2.7258  1.9966  2.4081
 3561TIP3   OH234877   4.526   4.060  16.012 -0.1889 -0.1291 -0.1806
 3561TIP3    H134878   4.474   3.981  16.025  0.9540 -0.9554 -0.4360
 3561TIP3    H234879   4.474   4.113  15.952 -0.7214 -0.9388 -0.4531
 3562TIP3   OH234880   2.685   5.182  17.772  0.0543 -0.2215  0.2354
 3562TIP3    H134881   2.731   5.128  17.836  2.2553 -0.4977 -1.4618
 3562TIP3    H234882   2.634   5.119  17.721  0.6406 -0.3984 -0.1441
 3563TIP3   OH234883   5.809   3.805  16.641 -0.1439  0.2013  0.3191
 3563TIP3    H134884   5.865   3.737  16.678  0.2051 -0.3405 -1.1636
 3563TIP3    H234885   5.721   3.767  16.642 -0.2571  0.4526  1.1796
 3564TIP3   OH234886   0.523   3.846  16.481  1.1738  0.1400 -0.4816
 3564TIP3    H134887   0.503   3.940  16.485  0.9608  0.0585  1.0556
 3564TIP3    H234888   0.470   3.808  16.551  0.7833 -1.2364 -1.4906
 3565TIP3   OH234889   0.667   5.069  15.508  0.1501  0.0334 -0.0886
 3565TIP3    H134890   0.586   5.044  15.462 -0.8492  0.8760  1.1727
 3565TIP3    H234891   0.683   4.997  15.569  0.0515  0.1221  0.0416
 3566TIP3   OH234892   2.111   3.722  16.312  0.3956  0.2928  0.0864
 3566TIP3    H134893   2.059   3.653  16.270  0.7207  1.4173 -2.3335
 3566TIP3    H234894   2.047   3.790  16.333  0.2512 -0.2194  1.4436
 3567TIP3   OH234895   0.716   0.442  16.436 -0.4485  0.4239 -0.4431
 3567TIP3    H134896   0.785   0.461  16.373 -0.2513 -1.3442 -0.8031
 3567TIP3    H234897   0.638   0.427  16.382 -0.7640  0.9054 -0.1294
 3568TIP3   OH234898   3.070   5.236  17.652  0.0931  0.3687 -0.2277
 3568TIP3    H134899   3.089   5.181  17.728 -0.9287 -1.5606 -1.2992
 3568TIP3    H234900   3.079   5.178  17.577  0.8822  2.1737 -1.6135
 3569TIP3   OH234901   5.400   2.287  15.725  0.2432 -0.2615  0.1816
 3569TIP3    H134902   5.417   2.246  15.640  3.0676 -0.6566  0.8405
 3569TIP3    H234903   5.471   2.349  15.736 -1.1615  1.2190  1.4589
 3570TIP3   OH234904   1.038   0.240  14.400 -0.1676  0.1282 -0.0063
 3570TIP3    H134905   0.969   0.175  14.414 -0.6047  0.0118 -2.2726
 3570TIP3    H234906   1.003   0.321  14.437 -0.6255 -0.3903  0.7128
 3571TIP3   OH234907   4.390   1.799  17.342  0.6982  0.0333 -0.0677
 3571TIP3    H134908   4.374   1.749  17.423  1.7375 -0.7481 -0.3236
 3571TIP3    H234909   4.396   1.890  17.371  0.7467 -0.2056  0.6944
 3572TIP3   OH234910   1.854   3.895  16.692 -0.0805  0.4303  0.1978
 3572TIP3    H134911   1.812   3.889  16.607  0.8319 -0.2122 -0.2171
 3572TIP3    H234912   1.921   3.827  16.692 -2.0253 -1.7146  2.5662
 3573TIP3   OH234913   5.654   4.894  14.908 -0.3804 -0.2180  0.0193
 3573TIP3    H134914   5.584   4.872  14.845 -0.1533 -1.7392  0.2462
 3573TIP3    H234915   5.697   4.810  14.925  1.7290  0.7289 -0.3570
 3574TIP3   OH234916   2.145   5.002  16.110 -0.1891 -0.0039 -0.8506
 3574TIP3    H134917   2.087   4.982  16.036 -1.4173 -0.0335  0.0886
 3574TIP3    H234918   2.100   5.071  16.158  0.2217 -0.4961  0.2795
 3575TIP3   OH234919   6.388   2.705  15.903  0.2040 -0.0654 -0.6197
 3575TIP3    H134920   6.455   2.653  15.947 -0.3849 -0.8145 -0.5920
 3575TIP3    H234921   6.318   2.642  15.883 -1.0775  0.9392  0.5188
 3576TIP3   OH234922   2.730   0.104  17.173 -0.0380  0.3168 -0.1452
 3576TIP3    H134923   2.707   0.169  17.239  2.5746 -0.1832  1.4505
 3576TIP3    H234924   2.706   0.020  17.213 -2.7055  0.1416 -1.8740
 3577TIP3   OH234925   1.983   2.677  17.798  0.2139 -0.2979 -0.1404
 3577TIP3    H134926   2.040   2.649  17.726 -0.2021 -0.6271 -0.3482
 3577TIP3    H234927   2.002   2.770  17.809  1.8266 -0.7098  0.7596
 3578TIP3   OH234928   5.744   5.048  16.924  0.2912  0.3225 -0.2470
 3578TIP3    H134929   5.682   5.118  16.943 -0.7588 -0.4302 -0.8464
 3578TIP3    H234930   5.828   5.093  16.915 -0.4764  1.6161 -1.3188
 3579TIP3   OH234931   1.631   3.278  17.898 -0.4232 -0.0510 -0.0291
 3579TIP3    H134932   1.646   3.373  17.898  0.7500 -0.2214  0.1930
 3579TIP3    H234933   1.550   3.267  17.949 -1.1881  0.8986 -0.9827
 3580TIP3   OH234934   1.761   6.271  15.585  0.0229 -0.6598  0.3311
 3580TIP3    H134935   1.820   6.242  15.655 -0.0489 -0.5802  0.4261
 3580TIP3    H234936   1.809   6.254  15.504  0.2523 -0.4280  0.4163
 3581TIP3   OH234937   1.581   3.552  17.437 -0.4439 -0.4044 -0.9614
 3581TIP3    H134938   1.636   3.493  17.385 -0.9714 -1.3511 -0.4757
 3581TIP3    H234939   1.644   3.611  17.479  0.4163 -2.3730  0.7386
 3582TIP3   OH234940   3.058   6.617  14.242 -0.5715 -0.1842 -0.2937
 3582TIP3    H134941   2.975   6.634  14.197  0.7043 -1.9766 -3.6409
 3582TIP3    H234942   3.116   6.687  14.213 -0.5049  0.2948  0.9552
 3583TIP3   OH234943   2.155   0.900  15.000 -0.1394 -0.0150  0.4204
 3583TIP3    H134944   2.178   0.823  14.947  0.5788  0.8602 -0.5890
 3583TIP3    H234945   2.229   0.959  14.988 -0.9005  1.0325  0.7965
 3584TIP3   OH234946   3.158   3.738  17.178 -0.2525 -0.4233 -0.0860
 3584TIP3    H134947   3.121   3.791  17.108  0.2610 -0.9852 -0.8034
 3584TIP3    H234948   3.102   3.755  17.254 -1.1195 -0.1791 -0.7620
 3585TIP3   OH234949   1.785   3.329  16.242  0.1016 -0.0391 -0.3744
 3585TIP3    H134950   1.747   3.417  16.242 -2.3957 -1.0156  0.4990
 3585TIP3    H234951   1.709   3.271  16.242  1.6740 -2.2274 -1.4161
 3586TIP3   OH234952   5.318   1.036  14.901  0.3353 -0.1439 -0.2855
 3586TIP3    H134953   5.277   0.950  14.888 -1.1817  0.4039  0.6015
 3586TIP3    H234954   5.289   1.087  14.826 -0.0774  0.0396 -0.0087
 3587TIP3   OH234955   0.515   2.382  14.978  0.0410  0.3419  0.1639
 3587TIP3    H134956   0.525   2.358  14.886  0.2658 -1.4604  0.6064
 3587TIP3    H234957   0.440   2.330  15.008  0.5899  0.1329  1.2312
 3588TIP3   OH234958   2.485   5.300  14.879 -0.0915  0.2904  0.5599
 3588TIP3    H134959   2.474   5.384  14.924 -2.2978 -0.9216  2.5560
 3588TIP3    H234960   2.522   5.242  14.946 -0.6340 -0.8373 -0.0970
 3589TIP3   OH234961   4.991   4.235  17.949 -0.6509  0.2685  0.1339
 3589TIP3    H134962   5.067   4.269  17.902 -0.4435  1.3389  1.1935
 3589TIP3    H234963   4.982   4.145  17.919  1.4807 -0.1176  0.5314
 3590TIP3   OH234964   4.034   0.469  17.681 -0.3474 -0.1888 -0.0615
 3590TIP3    H134965   4.065   0.419  17.605 -1.3824 -1.3874  0.2594
 3590TIP3    H234966   3.943   0.440  17.692 -0.5450  0.7871  0.9739
 3591TIP3   OH234967   0.562   4.850  16.878  0.4836 -0.1445 -0.2936
 3591TIP3    H134968   0.552   4.756  16.861  1.4979  0.0089 -2.0616
 3591TIP3    H234969   0.492   4.891  16.827  0.0223  0.0804  0.5000
 3592TIP3   OH234970   2.870   5.986  17.755  0.2529 -0.1596 -0.0913
 3592TIP3    H134971   2.818   6.006  17.677 -0.6096 -1.3245  0.1643
 3592TIP3    H234972   2.947   5.939  17.722 -0.3246 -1.0330 -0.2132
 3593TIP3   OH234973   5.991   4.526  17.475  0.3001 -0.1724  0.5812
 3593TIP3    H134974   6.016   4.595  17.537  2.7993 -0.8647  0.4655
 3593TIP3    H234975   6.050   4.539  17.401 -0.2534 -1.4939 -0.1170
 3594TIP3   OH234976   3.704   0.016  16.482  0.2239  0.0819 -0.0326
 3594TIP3    H134977   3.620   0.007  16.437  0.4041 -0.9778 -0.1739
 3594TIP3    H234978   3.734   0.103  16.457 -0.6570  0.3320 -0.2789
 3595TIP3   OH234979   4.316   1.615  17.531  0.1646  0.0989  0.4982
 3595TIP3    H134980   4.344   1.524  17.522  1.4173  0.4980  0.1216
 3595TIP3    H234981   4.303   1.627  17.625 -0.3583 -0.5592  0.5151
 3596TIP3   OH234982   5.382   1.543  17.089 -0.3412  0.2360 -0.1037
 3596TIP3    H134983   5.350   1.607  17.153  0.8975 -0.0300  0.8215
 3596TIP3    H234984   5.396   1.463  17.139 -0.4350 -0.3349 -0.9522
 3597TIP3   OH234985   5.555   6.382  15.119 -0.3150 -0.0054  0.0750
 3597TIP3    H134986   5.623   6.323  15.152 -1.0675  0.4947  2.8554
 3597TIP3    H234987   5.478   6.327  15.111 -1.1516  0.5207  3.1590
 3598TIP3   OH234988   0.770   3.797  15.145  0.1781  0.4805 -0.4581
 3598TIP3    H134989   0.737   3.725  15.091  0.9383 -1.1323  1.1517
 3598TIP3    H234990   0.691   3.838  15.180 -0.2665 -0.7592  0.0666
 3599TIP3   OH234991   3.983   0.010  15.093  0.1784  0.1563 -0.8520
 3599TIP3    H134992   3.968  -0.083  15.110 -2.0331  0.7667  0.9631
 3599TIP3    H234993   4.012   0.045  15.177 -2.2670  1.6532 -0.5512
 3600TIP3   OH234994   1.053   0.588  17.518  0.1852 -0.6815  0.0250
 3600TIP3    H134995   1.144   0.566  17.500  0.1349 -0.5208 -0.4470
 3600TIP3    H234996   1.052   0.612  17.611  0.6610 -0.4920 -0.0159
 3601TIP3   OH234997   5.112   2.009  15.722 -0.1995  0.2305 -0.1165
 3601TIP3    H134998   5.162   2.037  15.799 -0.4602 -1.0939  0.5705
 3601TIP3    H234999   5.112   1.913  15.727 -0.4565  0.1214 -1.6265
 3602TIP3   OH235000   0.266   1.314  16.127 -0.1230 -0.8911 -0.2657
 3602TIP3    H135001   0.239   1.293  16.216 -0.0663  1.2530  0.3180
 3602TIP3    H235002   0.192   1.364  16.091  0.7307  0.1471 -0.6312
 3603TIP3   OH235003   6.208   1.416  17.302 -0.2993  0.1182  0.1412
 3603TIP3    H135004   6.214   1.346  17.237  0.1102  0.1766  0.1140
 3603TIP3    H235005   6.299   1.437  17.323 -0.3395  2.2600 -1.5634
 3604TIP3   OH235006   5.096   1.726  15.686 -0.1990 -0.4935  0.3314
 3604TIP3    H135007   5.043   1.698  15.760 -1.6712 -0.2385 -0.5893
 3604TIP3    H235008   5.143   1.647  15.659  0.5717 -0.5168  1.6875
 3605TIP3   OH235009   1.240   4.749  14.910  0.7111 -0.2934  0.1918
 3605TIP3    H135010   1.325   4.736  14.950 -0.2419 -0.5471  2.2713
 3605TIP3    H235011   1.178   4.715  14.974 -1.2930  4.0007  0.8974
 3606TIP3   OH235012   5.797   5.157  16.360  0.1012  0.1236  0.1664
 3606TIP3    H135013   5.732   5.227  16.352  0.1503  0.0295 -1.1789
 3606TIP3    H235014   5.795   5.134  16.453 -0.8611  1.0063  0.3851
 3607TIP3   OH235015   5.509   3.694  16.590  0.4595  0.0412  0.4829
 3607TIP3    H135016   5.430   3.739  16.620 -0.0679 -0.9310  0.5894
 3607TIP3    H235017   5.494   3.602  16.612  0.9483 -0.3949 -0.9056
 3608TIP3   OH235018   5.595   6.635  15.248 -0.1567 -0.3234 -0.1563
 3608TIP3    H135019   5.678   6.648  15.293  0.7755  0.1835 -1.9141
 3608TIP3    H235020   5.585   6.540  15.244  0.8501 -0.4254 -0.7480
 3609TIP3   OH235021   2.945   2.649  15.458 -0.0319  0.7560 -0.1505
 3609TIP3    H135022   2.953   2.741  15.481 -0.1856  0.5073  0.9572
 3609TIP3    H235023   3.011   2.605  15.511  0.2746  0.2650 -0.9279
 3610TIP3   OH235024   4.305   3.429  17.038 -0.2981  0.2950 -0.3449
 3610TIP3    H135025   4.233   3.373  17.010 -0.4339  0.9637 -1.4434
 3610TIP3    H235026   4.380   3.400  16.985  0.3142 -0.5367  0.9403
 3611TIP3   OH235027   4.118   5.889  16.575 -0.3448 -0.5512  0.1817
 3611TIP3    H135028   4.033   5.932  16.585 -0.0400  0.4267 -1.1482
 3611TIP3    H235029   4.181   5.961  16.567  0.6654 -1.2510  1.4081
 3612TIP3   OH235030   2.599   4.601  16.519  0.0783  0.2974  0.4089
 3612TIP3    H135031   2.504   4.616  16.521  0.0292 -0.0213  0.4838
 3612TIP3    H235032   2.618   4.581  16.428 -0.5899 -3.8097  0.9826
 3613TIP3   OH235033   3.392   3.074  16.763  0.3976  0.4406 -0.1005
 3613TIP3    H135034   3.304   3.044  16.741  0.4063  0.8715 -0.7373
 3613TIP3    H235035   3.378   3.157  16.808  0.3984 -0.2712  1.2843
 3614TIP3   OH235036   2.280   1.515  15.073  0.2381 -0.1865 -0.3139
 3614TIP3    H135037   2.245   1.556  14.994  0.6116  0.8538  0.0501
 3614TIP3    H235038   2.321   1.586  15.121  0.3374 -0.8772  0.6485
 3615TIP3   OH235039   0.082   3.996  15.894  0.0605 -0.0783  0.9551
 3615TIP3    H135040   0.116   3.920  15.847  1.0946  0.8661  0.1168
 3615TIP3    H235041   0.157   4.028  15.945 -0.1596  0.7687  0.7613
 3616TIP3   OH235042   1.264   6.051  15.434  0.1517  0.3420  0.1092
 3616TIP3    H135043   1.209   6.086  15.504 -0.7560  0.2946 -0.5575
 3616TIP3    H235044   1.350   6.090  15.449 -0.2448  1.0031  0.7518
 3617TIP3   OH235045   5.220   1.613  14.617  0.7548 -0.0712  0.1059
 3617TIP3    H135046   5.289   1.546  14.625  0.9199 -0.0102 -0.6944
 3617TIP3    H235047   5.163   1.580  14.547  1.2417  0.9624 -0.8056
 3618TIP3   OH235048   4.257   4.578  16.132 -0.0567 -0.2385 -0.1616
 3618TIP3    H135049   4.224   4.513  16.194  2.6595 -2.1859 -0.5807
 3618TIP3    H235050   4.266   4.658  16.184 -1.5044 -0.7333  0.9166
 3619TIP3   OH235051   1.977   5.161  17.721  0.2354 -0.0376 -1.0869
 3619TIP3    H135052   2.036   5.233  17.743 -0.4811  0.5750 -1.1602
 3619TIP3    H235053   1.980   5.156  17.625 -0.2488  0.3418 -1.1190
 3620TIP3   OH235054   1.254   3.794  15.314  0.2891  0.0965  0.1458
 3620TIP3    H135055   1.212   3.868  15.269 -2.0390 -3.0617 -3.4775
 3620TIP3    H235056   1.328   3.770  15.257  0.4784 -0.8836  0.7810
 3621TIP3   OH235057   4.877   5.177  17.392 -0.5555 -0.0175  0.1639
 3621TIP3    H135058   4.882   5.094  17.346 -0.1303 -0.4534  0.9820
 3621TIP3    H235059   4.968   5.200  17.411 -0.3918  2.1183 -2.5966
 3622TIP3   OH235060   4.650   1.568  16.499 -0.2191  0.2137  0.1422
 3622TIP3    H135061   4.604   1.527  16.573  0.6376  1.4813  1.4426
 3622TIP3    H235062   4.614   1.657  16.496 -0.6617  0.0061 -1.3794
 3623TIP3   OH235063   6.519   0.292  14.798  0.2752 -0.1630  0.1233
 3623TIP3    H135064   6.601   0.258  14.763  0.2649 -1.3807  1.2173
 3623TIP3    H235065   6.451   0.238  14.757 -0.1084  1.3591 -1.4125
 3624TIP3   OH235066   1.165   5.531  17.197 -0.1186  0.0078 -0.5728
 3624TIP3    H135067   1.187   5.595  17.129 -2.2171  0.8944 -0.4953
 3624TIP3    H235068   1.098   5.475  17.156  1.2279 -1.7978 -0.4271
 3625TIP3   OH235069   0.989   0.278  17.298  0.3437  0.6517  0.0157
 3625TIP3    H135070   0.941   0.361  17.306 -0.4975  0.5455 -2.7049
 3625TIP3    H235071   0.931   0.214  17.337  0.9381  1.2800  2.0245
 3626TIP3   OH235072   2.724   4.677  16.804 -0.2979 -0.2984 -0.0990
 3626TIP3    H135073   2.637   4.645  16.828 -0.5367 -0.8971 -1.6787
 3626TIP3    H235074   2.710   4.769  16.781 -0.5490 -0.4553 -0.5691
 3627TIP3   OH235075   0.014   4.287  17.206 -0.2632 -0.1160 -0.3914
 3627TIP3    H135076   0.019   4.192  17.210  0.5208 -0.1502 -1.8431
 3627TIP3    H235077   0.041   4.316  17.293 -0.9545 -1.2138  0.2159
 3628TIP3   OH235078   0.026   3.962  16.170 -0.1702  0.0440 -0.4164
 3628TIP3    H135079   0.049   3.938  16.080  0.0857 -2.5593  0.2586
 3628TIP3    H235080  -0.070   3.956  16.173 -0.3597  2.1676 -0.9875
 3629TIP3   OH235081   3.637   3.299  17.282 -0.9214  0.0628 -0.0794
 3629TIP3    H135082   3.700   3.326  17.349  0.4262  0.7463 -1.5571
 3629TIP3    H235083   3.618   3.207  17.302  0.2673 -0.0522  0.6283
 3630TIP3   OH235084   6.138   2.261  16.889  0.2291  0.3385 -0.4268
 3630TIP3    H135085   6.167   2.263  16.798  0.5941 -0.4553 -0.3330
 3630TIP3    H235086   6.077   2.334  16.897 -1.6500 -0.9560 -1.9457
 3631TIP3   OH235087   3.148   0.629  17.947  0.1588 -0.1166  0.6260
 3631TIP3    H135088   3.217   0.562  17.946  0.1009 -0.2515 -2.0349
 3631TIP3    H235089   3.168   0.684  17.872 -2.5397 -0.0606 -0.1465
 3632TIP3   OH235090   4.811   5.966  15.130 -0.3852 -0.0643 -0.3878
 3632TIP3    H135091   4.765   5.991  15.050  1.1394 -1.5872 -1.8344
 3632TIP3    H235092   4.788   5.874  15.142  0.4700 -0.2219  0.1270
 3633TIP3   OH235093   6.138   0.615  15.998  0.0518  0.1150  0.1387
 3633TIP3    H135094   6.232   0.628  15.986 -0.0442  0.2416 -0.5068
 3633TIP3    H235095   6.106   0.697  16.036 -0.0134  0.6045 -0.9164
 3634TIP3   OH235096   3.270   2.075  15.750  0.8061 -0.1421  0.3114
 3634TIP3    H135097   3.235   2.072  15.661  2.1886 -0.8325 -0.2300
 3634TIP3    H235098   3.244   1.992  15.789 -0.7576  0.6075  0.9673
 3635TIP3   OH235099   4.522   0.431  15.909 -0.2673 -0.2196  0.0440
 3635TIP3    H135100   4.473   0.461  15.986 -0.2680  0.5267 -0.2307
 3635TIP3    H235101   4.610   0.467  15.922 -0.4460  0.4841 -0.6166
 3636TIP3   OH235102   5.209   2.926  17.784 -0.2312 -0.2659  0.0158
 3636TIP3    H135103   5.277   2.983  17.748 -0.5578  1.6149  2.1688
 3636TIP3    H235104   5.186   2.868  17.712  1.2798  1.2492 -1.7912
 3637TIP3   OH235105   4.720   3.671  17.587 -0.1874 -0.3046 -0.1718
 3637TIP3    H135106   4.753   3.668  17.676  0.3683 -2.1139 -0.4004
 3637TIP3    H235107   4.629   3.699  17.596  0.4856  1.7372  0.7315
 3638TIP3   OH235108   6.118   5.997  15.751  0.6391 -0.2810 -0.0840
 3638TIP3    H135109   6.160   5.931  15.696 -0.2239 -1.9571  1.1727
 3638TIP3    H235110   6.051   6.036  15.694  1.0985 -0.5499 -0.8202
 3639TIP3   OH235111   1.325   1.474  15.134  0.2459 -0.5416 -0.2887
 3639TIP3    H135112   1.308   1.524  15.214  2.8692 -1.9795  1.3057
 3639TIP3    H235113   1.377   1.534  15.080 -0.9835  0.2072 -0.6735
 3640TIP3   OH235114   0.410   4.405  15.597 -0.1816 -0.8289 -0.1797
 3640TIP3    H135115   0.416   4.496  15.566 -0.3083 -1.2049 -1.3492
 3640TIP3    H235116   0.495   4.366  15.574 -0.3272 -1.1586 -0.1631
 3641TIP3   OH235117   3.081   1.112  17.730 -0.5243  0.8332 -0.0982
 3641TIP3    H135118   3.075   1.033  17.784 -0.1607  0.7101 -0.2316
 3641TIP3    H235119   3.145   1.166  17.775 -1.4664  1.4775  0.5113
 3642TIP3   OH235120   3.541   4.824  16.468 -0.1502 -0.2849 -0.1329
 3642TIP3    H135121   3.500   4.739  16.484  0.8427 -1.1934 -2.1175
 3642TIP3    H235122   3.594   4.840  16.546 -1.3448 -0.8566  0.8284
 3643TIP3   OH235123   6.656   4.334  15.011 -0.1805 -0.4404 -0.1485
 3643TIP3    H135124   6.684   4.287  14.932  1.1432 -0.4060  0.2804
 3643TIP3    H235125   6.718   4.307  15.078  0.7158  1.9727  0.1037
 3644TIP3   OH235126   3.412   3.481  17.333 -0.4750  0.1359 -0.0867
 3644TIP3    H135127   3.402   3.575  17.320  1.4005  0.2285 -1.1964
 3644TIP3    H235128   3.501   3.462  17.303 -0.2141 -1.7232  1.6837
 3645TIP3   OH235129   4.058   5.830  17.596 -0.8625  0.3723 -0.1109
 3645TIP3    H135130   4.079   5.761  17.659  1.2633  1.5311  0.5504
 3645TIP3    H235131   3.987   5.880  17.638 -1.1373 -0.2965  0.2335
 3646TIP3   OH235132   2.586   3.274  15.616  0.0680  0.1595 -0.1942
 3646TIP3    H135133   2.650   3.229  15.560  1.5721  0.9337  0.8321
 3646TIP3    H235134   2.568   3.213  15.687  2.0311  1.0235  1.1432
 3647TIP3   OH235135   2.032   2.947  17.737  1.0746 -0.4412  0.1220
 3647TIP3    H135136   2.056   2.976  17.649  1.4729 -2.5383 -0.5289
 3647TIP3    H235137   1.944   2.982  17.751  1.6690  1.3225 -0.4034
 3648TIP3   OH235138   3.863   5.232  14.331 -0.0415  0.3250 -0.1532
 3648TIP3    H135139   3.922   5.257  14.402  0.2941 -1.1042  0.1085
 3648TIP3    H235140   3.857   5.137  14.338  0.0306  0.1507 -2.0711
 3649TIP3   OH235141   2.978   4.837  17.758 -0.0878 -0.1263 -0.2904
 3649TIP3    H135142   3.058   4.792  17.731 -0.9465 -1.4924 -0.6565
 3649TIP3    H235143   2.961   4.900  17.687 -0.0616 -0.7692 -0.8728
 3650TIP3   OH235144   4.524   0.381  17.356  0.3620  0.5313  0.6183
 3650TIP3    H135145   4.526   0.305  17.414 -0.2030 -0.3340 -0.4647
 3650TIP3    H235146   4.494   0.453  17.412 -0.7578 -0.4116  1.2648
 3651TIP3   OH235147   3.357   4.393  17.403  0.4378 -0.1767  0.0699
 3651TIP3    H135148   3.440   4.387  17.452  0.6886  0.8098 -0.2242
 3651TIP3    H235149   3.307   4.461  17.449  0.2224 -0.0270 -0.3808
 3652TIP3   OH235150   2.556   5.797  17.878  0.4406 -0.0232  0.6514
 3652TIP3    H135151   2.519   5.829  17.796  2.4308 -1.6316 -0.9756
 3652TIP3    H235152   2.601   5.873  17.915 -1.9749  1.2055  1.2631
 3653TIP3   OH235153   5.551   4.533  16.995  0.0831  0.3956 -0.7976
 3653TIP3    H135154   5.526   4.441  16.987 -2.4660  0.7515  1.3374
 3653TIP3    H235155   5.544   4.567  16.906 -0.7457 -1.0986 -1.3569
 3654TIP3   OH235156   0.861   5.923  14.941  0.4575  0.0278 -0.0007
 3654TIP3    H135157   0.848   5.965  15.026 -0.7851  0.6463 -0.4822
 3654TIP3    H235158   0.957   5.920  14.930  0.6094  2.5268  0.1452
 3655TIP3   OH235159   3.900   5.680  16.510 -0.7899 -0.3272 -0.1687
 3655TIP3    H135160   3.981   5.692  16.561 -0.9836 -0.8417  0.2683
 3655TIP3    H235161   3.830   5.707  16.569 -0.9190  0.4150 -0.6573
 3656TIP3   OH235162   3.427   5.650  16.111 -0.4330  0.4533 -0.1440
 3656TIP3    H135163   3.503   5.655  16.053 -1.1992  0.6362 -1.1630
 3656TIP3    H235164   3.457   5.600  16.186  0.4969 -0.0676 -0.8479
 3657TIP3   OH235165   0.050   4.214  14.792 -0.2045 -0.5909  0.1799
 3657TIP3    H135166   0.019   4.170  14.713 -1.9956 -1.4376  1.3044
 3657TIP3    H235167   0.118   4.156  14.827 -0.0868 -0.6921 -0.2103
 3658TIP3   OH235168   6.579   5.226  17.122  0.1192  0.7100  0.1280
 3658TIP3    H135169   6.506   5.165  17.124 -0.3043  1.2221  1.1787
 3658TIP3    H235170   6.640   5.193  17.189  0.5489  0.6528 -0.2850
 3659TIP3   OH235171   1.397   4.629  16.055  0.2510  0.3832 -0.1729
 3659TIP3    H135172   1.436   4.543  16.040 -2.8719 -1.0892 -0.6905
 3659TIP3    H235173   1.437   4.685  15.988  2.2200 -0.6415  0.0573
 3660TIP3   OH235174   0.116   6.404  17.490  0.4231 -0.3481 -0.0979
 3660TIP3    H135175   0.026   6.437  17.493 -0.2343 -1.9617 -0.5965
 3660TIP3    H235176   0.112   6.332  17.427  2.0477 -0.5372 -0.0184
 3661TIP3   OH235177   2.762   3.165  16.093 -0.0687  0.4060  0.5479
 3661TIP3    H135178   2.792   3.173  16.184  1.9955  1.8407 -0.2071
 3661TIP3    H235179   2.809   3.234  16.046 -0.3815 -0.8969 -1.7954
 3662TIP3   OH235180   2.193   6.602  16.622  0.0441  0.9787 -0.0936
 3662TIP3    H135181   2.139   6.526  16.601  0.3965  0.9786 -1.0233
 3662TIP3    H235182   2.279   6.582  16.585  0.3733  1.4645  0.3922
 3663TIP3   OH235183   4.510   5.282  17.442 -0.3583 -0.1104 -0.9350
 3663TIP3    H135184   4.543   5.192  17.443 -1.6387 -0.6039 -1.1339
 3663TIP3    H235185   4.451   5.287  17.517  0.0712  0.7287 -0.6356
 3664TIP3   OH235186   0.327   2.867  17.342 -0.4593  0.4510  0.3737
 3664TIP3    H135187   0.299   2.947  17.298 -0.9113 -0.2949 -0.7622
 3664TIP3    H235188   0.354   2.895  17.429 -2.5976  1.5472  0.7421
 3665TIP3   OH235189   4.560   1.164  16.637  0.7726  0.0504  0.0454
 3665TIP3    H135190   4.559   1.106  16.712  0.8999 -0.0969 -0.0677
 3665TIP3    H235191   4.583   1.108  16.562  1.9977  0.4505  0.1015
 3666TIP3   OH235192   6.586   3.528  16.504 -0.6629 -0.0756  0.9835
 3666TIP3    H135193   6.560   3.598  16.443  1.9386 -0.9785 -1.3983
 3666TIP3    H235194   6.607   3.574  16.585 -0.3907  1.7707 -0.0700
 3667TIP3   OH235195   1.743   5.855  16.785  0.6864  0.1904  0.3325
 3667TIP3    H135196   1.692   5.882  16.861 -0.0602 -0.3142  0.0255
 3667TIP3    H235197   1.745   5.932  16.729  1.2098  0.5540  0.8406
 3668TIP3   OH235198   4.819   5.802  16.730 -0.1984 -0.7906 -0.5360
 3668TIP3    H135199   4.723   5.805  16.738 -0.0863  0.3580  0.5859
 3668TIP3    H235200   4.850   5.872  16.786  1.2694 -0.3818 -1.7892
 3669TIP3   OH235201   4.014   0.028  16.613 -0.0953  0.4091 -0.8288
 3669TIP3    H135202   4.049  -0.022  16.539 -0.6325  1.9825 -2.2081
 3669TIP3    H235203   4.088   0.078  16.646 -0.0634  0.4047 -0.8928
 3670TIP3   OH235204   1.385   3.233  15.841 -0.3416  0.0250  0.8630
 3670TIP3    H135205   1.377   3.311  15.787  0.5395 -1.1708 -1.1091
 3670TIP3    H235206   1.324   3.247  15.913 -0.4903  2.3339  0.3597
 3671TIP3   OH235207   3.426   2.541  16.017 -0.5586 -0.6079  0.3903
 3671TIP3    H135208   3.491   2.515  16.083 -0.4108 -0.5045  0.2861
 3671TIP3    H235209   3.439   2.636  16.008  0.6635 -0.8917 -1.1280
 3672TIP3   OH235210   3.872   5.106  17.436 -0.3869  0.0189 -0.5410
 3672TIP3    H135211   3.870   5.142  17.525  0.1254  0.1443 -0.5778
 3672TIP3    H235212   3.868   5.182  17.379 -1.3071 -0.0899 -0.6356
 3673TIP3   OH235213   2.500   4.650  15.282 -0.3917 -0.3449 -0.2211
 3673TIP3    H135214   2.581   4.621  15.325 -0.4070  1.8232  1.3837
 3673TIP3    H235215   2.515   4.630  15.189  2.1784  0.3354 -0.0422
 3674TIP3   OH235216   0.119   4.920  18.065  0.6326  0.3051 -0.6271
 3674TIP3    H135217   0.165   4.843  18.032 -0.6466 -0.4341 -0.7548
 3674TIP3    H235218   0.048   4.934  18.002 -0.7028  0.0050  0.7506
 3675TIP3   OH235219   4.807   6.403  15.778 -0.3629 -0.8137  0.5665
 3675TIP3    H135220   4.728   6.455  15.773  0.0814 -0.1490  0.3614
 3675TIP3    H235221   4.834   6.391  15.687 -1.3524 -2.8201  0.4743
 3676TIP3   OH235222   0.859   1.875  15.691 -0.2403 -0.2741  0.2696
 3676TIP3    H135223   0.774   1.888  15.734 -0.0178 -0.9515  0.9411
 3676TIP3    H235224   0.917   1.848  15.762  0.7268  0.8721 -0.0554
 3677TIP3   OH235225   3.199   5.048  15.807 -0.3966 -0.6404  0.5390
 3677TIP3    H135226   3.151   5.114  15.758 -1.2935 -2.0914 -0.6372
 3677TIP3    H235227   3.257   5.097  15.865 -1.9602  1.1660  0.6605
 3678TIP3   OH235228   2.645   5.269  16.135  0.3599 -0.8995 -0.2484
 3678TIP3    H135229   2.550   5.265  16.150 -0.0977 -0.6057 -2.6241
 3678TIP3    H235230   2.654   5.316  16.053  2.6520 -0.2103  0.3371
 3679TIP3   OH235231   2.348   2.040  15.833  0.3149  0.5167  0.0353
 3679TIP3    H135232   2.388   2.033  15.920 -0.8910 -1.1682  0.5208
 3679TIP3    H235233   2.414   2.006  15.773  1.1797  1.7454  0.2614
 3680TIP3   OH235234   4.748   0.582  15.966 -0.3487  0.5354  0.5415
 3680TIP3    H135235   4.831   0.558  16.006 -0.0997  0.5215  0.0326
 3680TIP3    H235236   4.736   0.674  15.988  1.0965  1.3002 -1.5229
 3681TIP3   OH235237   3.193   1.529  17.805  0.3169 -0.4190  0.2472
 3681TIP3    H135238   3.221   1.523  17.713 -0.1380 -0.8801  0.1317
 3681TIP3    H235239   3.100   1.552  17.800 -0.0244 -1.6358  0.5496
 3682TIP3   OH235240   6.233   4.195  17.694  0.4779  0.5821  0.0968
 3682TIP3    H135241   6.150   4.149  17.709  0.2722  1.5342  2.1670
 3682TIP3    H235242   6.219   4.241  17.611 -0.2871 -0.9279 -0.6449
 3683TIP3   OH235243   2.980   3.271  15.947  0.1170  0.1506 -0.1136
 3683TIP3    H135244   3.039   3.248  16.019  0.8576 -0.3931 -0.8823
 3683TIP3    H235245   2.980   3.366  15.945  0.3673  0.1630  0.3851
 3684TIP3   OH235246   6.474   4.426  17.167  0.0058  0.0250  0.0339
 3684TIP3    H135247   6.433   4.348  17.132 -0.6298  0.8110 -1.0265
 3684TIP3    H235248   6.568   4.411  17.156 -0.1351 -0.3499 -0.7011
 3685TIP3   OH235249   5.852   0.012  16.976 -0.4830 -0.3930 -0.0042
 3685TIP3    H135250   5.815   0.056  16.899 -1.0052 -1.0056 -0.1140
 3685TIP3    H235251   5.848  -0.081  16.954 -1.2384 -0.6172  1.0203
 3686TIP3   OH235252   2.884   0.584  16.710  0.3430  0.5144  0.1181
 3686TIP3    H135253   2.807   0.534  16.735 -0.7389  2.0687  0.0461
 3686TIP3    H235254   2.927   0.607  16.793  0.5887 -0.1285  0.1706
 3687TIP3   OH235255   5.944   4.022  14.997  0.2782 -0.1617 -0.1555
 3687TIP3    H135256   6.031   4.062  14.992 -1.0823  3.4443  1.4925
 3687TIP3    H235257   5.961   3.929  15.013  3.9176  0.7138  2.2846
 3688TIP3   OH235258   1.453   2.000  15.151 -0.1769  0.1646 -0.4891
 3688TIP3    H135259   1.472   1.915  15.191 -1.0551  1.0694  2.1060
 3688TIP3    H235260   1.450   1.983  15.057  3.3840 -1.8947 -0.4055
 3689TIP3   OH235261   0.251   4.039  15.582  0.8486  0.0770 -0.3279
 3689TIP3    H135262   0.222   3.978  15.650 -0.1560  0.1293 -0.6957
 3689TIP3    H235263   0.335   4.005  15.553  0.1723 -1.3263 -0.7471
 3690TIP3   OH235264   1.695   1.474  15.149  0.7609 -0.4300  0.1056
 3690TIP3    H135265   1.690   1.403  15.212 -1.0610  0.0203  0.5353
 3690TIP3    H235266   1.683   1.553  15.201 -0.9619 -0.0587 -0.7708
 3691TIP3   OH235267   5.212   5.514  15.508  0.1832 -0.8684  0.1901
 3691TIP3    H135268   5.165   5.575  15.565 -0.9817 -0.6775 -0.9417
 3691TIP3    H235269   5.279   5.476  15.564 -0.3910 -0.0606  1.4610
 3692TIP3   OH235270   5.594   1.818  17.490  0.1085  0.3685 -0.5620
 3692TIP3    H135271   5.549   1.891  17.447 -1.5525  1.2108  2.3338
 3692TIP3    H235272   5.546   1.740  17.462  0.1180  0.6833 -1.4870
 3693TIP3   OH235273   3.056   0.954  14.180  0.2724 -0.3779  0.1150
 3693TIP3    H135274   3.053   0.860  14.162  1.1062 -0.5079  0.5612
 3693TIP3    H235275   3.124   0.987  14.120 -1.3269  0.2940 -1.4079
 3694TIP3   OH235276   2.121   6.095  15.027 -0.4110  0.1671  0.1796
 3694TIP3    H135277   2.049   6.150  15.058  0.1638 -0.2564  2.4249
 3694TIP3    H235278   2.088   6.006  15.036  0.8494 -0.1146  2.7000
 3695TIP3   OH235279   6.672   5.587  18.202 -0.1957 -0.2969  0.3381
 3695TIP3    H135280   6.617   5.522  18.246 -1.4947  0.3191 -0.3193
 3695TIP3    H235281   6.653   5.576  18.109  0.5063  0.1898  0.1278
 3696TIP3   OH235282   4.671   4.182  15.144  0.2371 -0.0834  0.1900
 3696TIP3    H135283   4.691   4.089  15.152 -1.8284 -0.5358  0.7585
 3696TIP3    H235284   4.700   4.206  15.056 -0.9005 -1.7570 -0.6780
 3697TIP3   OH235285   4.360   5.370  15.001 -0.3303 -0.4315 -0.5193
 3697TIP3    H135286   4.416   5.332  14.934 -0.0551 -2.3539  0.7161
 3697TIP3    H235287   4.412   5.368  15.081 -1.2710  0.1120  0.1366
 3698TIP3   OH235288   1.211   2.393  15.515  0.6848 -0.1640 -0.1696
 3698TIP3    H135289   1.258   2.473  15.492 -1.5036  1.1785 -0.2675
 3698TIP3    H235290   1.120   2.410  15.488 -0.3983 -1.6034  2.2512
 3699TIP3   OH235291   4.529   3.270  16.517 -0.0066  0.2158  0.1075
 3699TIP3    H135292   4.482   3.227  16.589  0.2511  0.9660  0.7421
 3699TIP3    H235293   4.479   3.246  16.439 -0.6162 -0.1663  0.5946
 3700TIP3   OH235294   4.781   4.177  16.093  0.1608  0.2519  0.4610
 3700TIP3    H135295   4.790   4.176  16.188  0.5383  2.2646  0.4895
 3700TIP3    H235296   4.687   4.169  16.078  0.0393  0.5779  1.0264
 3701TIP3   OH235297   5.212   1.904  17.031  0.3861  0.7493  0.5162
 3701TIP3    H135298   5.289   1.927  16.978  0.8938 -0.0340  0.8922
 3701TIP3    H235299   5.242   1.831  17.085 -0.4012  0.9520  1.2324
 3702TIP3   OH235300   3.114   1.492  16.461 -0.6142  0.2614 -0.2391
 3702TIP3    H135301   3.195   1.542  16.450 -0.1210 -0.4699  0.0284
 3702TIP3    H235302   3.098   1.493  16.556  0.2363 -1.3581 -0.0385
 3703TIP3   OH235303   5.013   0.337  16.492  0.5840  0.5179 -0.3324
 3703TIP3    H135304   5.002   0.298  16.405  0.5193  1.2864 -0.6752
 3703TIP3    H235305   4.937   0.394  16.503  0.1425 -0.2198  0.5906
 3704TIP3   OH235306   0.386   5.971  17.354 -0.6813  0.0886 -0.2400
 3704TIP3    H135307   0.331   6.049  17.352 -0.6000  0.1431 -0.3228
 3704TIP3    H235308   0.326   5.901  17.380 -0.6812  0.2419  0.1816
 3705TIP3   OH235309   5.746   1.601  17.645 -0.2857 -0.2570 -0.3552
 3705TIP3    H135310   5.767   1.692  17.663  0.3875 -0.4504 -0.1329
 3705TIP3    H235311   5.691   1.604  17.566 -0.4001  0.3463 -0.2536
 3706TIP3   OH235312   4.378   0.392  14.787 -0.0222  0.3484  0.5506
 3706TIP3    H135313   4.334   0.395  14.702 -1.4332  0.5463  1.2608
 3706TIP3    H235314   4.470   0.404  14.766  0.1440 -2.8905 -1.2939
 3707TIP3   OH235315   6.020   3.005  16.908  0.1378 -0.0096 -0.2927
 3707TIP3    H135316   5.958   2.932  16.918  0.7401 -0.3797  0.8606
 3707TIP3    H235317   6.071   3.005  16.989  1.9961 -0.0166 -1.4108
 3708TIP3   OH235318   0.746   5.170  17.879  0.3328 -0.5959  0.4400
 3708TIP3    H135319   0.793   5.139  17.801  0.3936  1.3163 -0.3276
 3708TIP3    H235320   0.804   5.148  17.952  0.1655 -2.6453  0.0137
 3709TIP3   OH235321   5.768   2.447  17.106  0.4806  0.2083  1.0047
 3709TIP3    H135322   5.763   2.461  17.012  0.1537  0.9657  1.1253
 3709TIP3    H235323   5.793   2.355  17.116  0.3619  0.0841  0.1879
 3710TIP3   OH235324   2.453   0.047  17.576  0.8667 -0.4324  0.3022
 3710TIP3    H135325   2.473  -0.038  17.538  0.2723  0.5815 -2.5084
 3710TIP3    H235326   2.364   0.066  17.548  0.7352  0.8558  1.4528
 3711TIP3   OH235327   2.594   1.228  14.208 -0.3046 -0.5368  0.1800
 3711TIP3    H135328   2.665   1.255  14.150 -0.0415 -1.9367 -0.2023
 3711TIP3    H235329   2.533   1.180  14.152  0.1806 -2.3195  1.0811
 3712TIP3   OH235330   2.200   5.912  17.096 -0.8347  0.4151  0.0349
 3712TIP3    H135331   2.252   5.915  17.016 -0.2823  1.0208  0.4064
 3712TIP3    H235332   2.150   5.831  17.089 -1.1426  0.6846 -1.1395
 3713TIP3   OH235333   0.480   5.848  17.142  0.0040  0.6197  0.2357
 3713TIP3    H135334   0.452   5.902  17.216 -0.4150  0.5167  0.1520
 3713TIP3    H235335   0.570   5.876  17.125  0.0812  0.6963  0.7361
 3714TIP3   OH235336   5.253   1.565  15.491  0.1699 -0.2508  0.1710
 3714TIP3    H135337   5.257   1.476  15.456 -0.5472  0.0659 -0.7874
 3714TIP3    H235338   5.323   1.569  15.556  1.1741 -1.0844 -0.8004
 3715TIP3   OH235339   6.145   2.238  17.561  0.1746  0.5217  0.3119
 3715TIP3    H135340   6.150   2.301  17.633 -0.3603 -0.7562  1.5150
 3715TIP3    H235341   6.052   2.233  17.540  0.3376  0.9663 -0.5664
 3716TIP3   OH235342   3.052   6.221  16.540  0.0130  0.3101 -0.3082
 3716TIP3    H135343   2.957   6.214  16.536  0.0874 -2.3857  0.6102
 3716TIP3    H235344   3.083   6.130  16.542  2.6064  1.1048 -0.3126
 3717TIP3   OH235345   4.347   6.713  17.108 -0.2470 -0.2319  0.2981
 3717TIP3    H135346   4.391   6.638  17.149  1.0534  0.3841  0.0740
 3717TIP3    H235347   4.414   6.752  17.052 -1.6035 -0.2592 -1.4047
 3718TIP3   OH235348   2.883   4.706  16.548  0.2793  0.1191 -0.0992
 3718TIP3    H135349   2.926   4.670  16.625 -0.0354  0.0041  0.0224
 3718TIP3    H235350   2.791   4.682  16.558  0.1045  0.7386 -0.1343
 3719TIP3   OH235351   4.337   5.733  17.040  0.0992  0.4266 -0.3464
 3719TIP3    H135352   4.334   5.785  16.960 -1.3064  0.8282 -0.0648
 3719TIP3    H235353   4.355   5.796  17.110 -2.4505  0.7676  0.1082
 3720TIP3   OH235354   3.755   3.013  15.765 -0.9299 -0.1913 -0.4765
 3720TIP3    H135355   3.796   2.939  15.809  3.1672  1.9164 -0.3391
 3720TIP3    H235356   3.695   3.050  15.830  0.8324 -0.4212  1.3623
 3721TIP3   OH235357   6.210   4.756  16.936  0.0372  0.0676  0.1357
 3721TIP3    H135358   6.137   4.787  16.882 -0.0899 -0.3599  0.0527
 3721TIP3    H235359   6.249   4.685  16.884  0.0350 -0.2133  0.5158
 3722TIP3   OH235360   4.618   1.003  16.432  0.3398 -0.2968  0.6910
 3722TIP3    H135361   4.654   0.918  16.459 -0.1553 -0.8541 -0.3504
 3722TIP3    H235362   4.657   1.020  16.347 -0.7305 -0.2142  0.2018
 3723TIP3   OH235363   1.660   5.778  17.552 -0.0472 -0.1144  0.2730
 3723TIP3    H135364   1.659   5.692  17.510  0.6310 -0.7528  1.4966
 3723TIP3    H235365   1.598   5.769  17.624  2.2054 -0.6287  2.2845
 3724TIP3   OH235366   6.623   2.000  15.332 -0.2351  0.1434  0.1368
 3724TIP3    H135367   6.675   2.021  15.254  1.1111  0.2228  1.0289
 3724TIP3    H235368   6.613   2.084  15.377 -1.8514  0.2872 -0.4008
 3725TIP3   OH235369   1.968   6.123  16.377  0.3164 -0.0841 -0.5430
 3725TIP3    H135370   2.000   6.192  16.320 -1.6501 -0.5634 -2.3379
 3725TIP3    H235371   1.899   6.080  16.327  0.9226 -2.8609  0.8184
 3726TIP3   OH235372   0.213   6.600  17.160  0.5497  0.3837  0.2046
 3726TIP3    H135373   0.176   6.630  17.076  0.7476  1.6897  0.5542
 3726TIP3    H235374   0.243   6.511  17.142 -0.7017  0.1022 -0.7134
 3727TIP3   OH235375   4.957   6.603  16.397 -0.5103 -0.0786  0.3083
 3727TIP3    H135376   5.018   6.609  16.323 -1.8633  0.6593 -0.8035
 3727TIP3    H235377   4.892   6.672  16.380 -2.0427 -1.2759  1.0607
 3728TIP3   OH235378   3.453   4.018  16.830 -0.2849  0.0099 -0.2293
 3728TIP3    H135379   3.398   3.966  16.771  1.0059 -0.3863 -1.1348
 3728TIP3    H235380   3.398   4.092  16.855 -0.7731  0.3935 -2.2556
 3729TIP3   OH235381   6.490   5.302  17.871  0.2695 -0.1666  0.1619
 3729TIP3    H135382   6.479   5.271  17.961 -1.0855 -0.6573 -0.1534
 3729TIP3    H235383   6.401   5.316  17.839  0.7102 -0.4916 -1.2742
 3730TIP3   OH235384   1.140   5.684  17.784 -0.0046  0.5302 -0.5655
 3730TIP3    H135385   1.059   5.732  17.801 -0.0631 -0.3298  2.0496
 3730TIP3    H235386   1.126   5.598  17.823  2.0585  0.2567 -0.3250
 3731TIP3   OH235387   6.274   1.026  16.783 -0.1900  0.0500 -0.0655
 3731TIP3    H135388   6.261   0.960  16.851  1.0994 -1.4514 -1.2269
 3731TIP3    H235389   6.298   1.105  16.832 -0.2287 -0.7317  1.2747
 3732TIP3   OH235390   2.411   5.755  16.602  0.0595 -0.0282 -0.6181
 3732TIP3    H135391   2.341   5.820  16.595  2.7408  3.2369  0.1102
 3732TIP3    H235392   2.491   5.807  16.614  3.1663 -3.2917 -4.3186
 3733TIP3   OH235393   6.706   2.909  15.258 -0.1630  0.1734  0.1829
 3733TIP3    H135394   6.709   2.986  15.202  1.4025  0.0015 -0.0104
 3733TIP3    H235395   6.650   2.847  15.210  0.3110  0.4098 -0.6983
 3734TIP3   OH235396   2.806   5.332  16.332 -0.5701 -0.6018 -0.3384
 3734TIP3    H135397   2.899   5.326  16.309 -0.2743  1.1971  0.2030
 3734TIP3    H235398   2.760   5.302  16.254  0.4550  0.5008 -1.4080
 3735TIP3   OH235399   1.626   0.360  15.599 -0.3194 -0.5830  0.3305
 3735TIP3    H135400   1.571   0.437  15.614 -0.9087 -0.5276 -1.7713
 3735TIP3    H235401   1.704   0.394  15.554 -0.1486 -1.0843  0.2425
 3736TIP3   OH235402   1.099   2.311  16.576  0.1140  0.4557 -0.1070
 3736TIP3    H135403   1.080   2.298  16.484  0.6516 -1.3222 -0.0055
 3736TIP3    H235404   1.044   2.385  16.602  1.1498  2.0608 -2.2005
 3737TIP3   OH235405   5.300   5.406  17.455 -0.6317  0.3167 -0.3144
 3737TIP3    H135406   5.393   5.423  17.469  0.2038 -2.7638 -1.3662
 3737TIP3    H235407   5.294   5.382  17.362 -2.0973 -1.4898  0.1912
 3738TIP3   OH235408   3.572   0.774  16.349 -0.4907 -0.0689  0.2954
 3738TIP3    H135409   3.544   0.689  16.315 -0.7650  0.4614 -0.8280
 3738TIP3    H235410   3.563   0.834  16.276  1.4282  0.5966  0.5544
 3739TIP3   OH235411   0.301   5.278  17.232  0.3772  0.1351 -0.1057
 3739TIP3    H135412   0.383   5.282  17.183  0.6766 -0.3137  0.3451
 3739TIP3    H235413   0.304   5.355  17.289  1.7118 -1.1964  1.7610
 3740TIP3   OH235414   1.303   3.433  17.951 -0.0170  0.2876 -0.1991
 3740TIP3    H135415   1.315   3.486  18.030  0.6617 -0.3227  0.1125
 3740TIP3    H235416   1.323   3.493  17.879 -0.1239  0.6986  0.1079
 3741TIP3   OH235417   4.906   3.230  16.851 -0.1007 -0.1208  0.1358
 3741TIP3    H135418   4.872   3.140  16.851  0.0351 -0.1764  0.4667
 3741TIP3    H235419   4.897   3.259  16.761  0.9858 -0.8907 -0.2352
 3742TIP3   OH235420   4.354   3.175  16.712  0.3711  0.8205 -0.0765
 3742TIP3    H135421   4.264   3.176  16.679  0.5749  1.5835 -0.6708
 3742TIP3    H235422   4.363   3.092  16.758 -0.0504 -0.1492 -1.6734
 3743TIP3   OH235423   3.571   5.476  17.851  0.1588 -0.2663  0.0068
 3743TIP3    H135424   3.645   5.537  17.855 -1.3805  1.8278 -1.4102
 3743TIP3    H235425   3.511   5.507  17.920 -0.2230 -0.7683 -0.0940
 3744TIP3   OH235426   0.534   6.184  14.767 -0.0475  0.6331  0.3091
 3744TIP3    H135427   0.483   6.209  14.844  0.3405  1.0236  0.4361
 3744TIP3    H235428   0.471   6.190  14.695  0.0534  2.0323  0.3204
 3745TIP3   OH235429   1.198   6.030  17.889 -0.4416  0.3868  0.2743
 3745TIP3    H135430   1.208   6.123  17.912 -2.0790  0.4097  1.0327
 3745TIP3    H235431   1.284   5.992  17.905  0.8598  2.1234 -1.9502
 3746TIP3   OH235432   4.280   2.355  16.193 -0.5909 -0.5249  0.0161
 3746TIP3    H135433   4.212   2.292  16.171  0.1516 -0.8268 -1.5457
 3746TIP3    H235434   4.329   2.368  16.112 -1.1876  2.6943  0.0419
 3747TIP3   OH235435   3.446   1.971  17.125  0.4205 -0.5311 -0.0682
 3747TIP3    H135436   3.530   1.971  17.078 -0.1205 -2.9287 -1.2163
 3747TIP3    H235437   3.382   1.996  17.058  0.0705  0.1625  0.5128
 3748TIP3   OH235438   2.678   0.934  15.943 -0.3279 -0.0763  0.0560
 3748TIP3    H135439   2.689   0.978  15.859 -1.1208 -0.2212 -0.1342
 3748TIP3    H235440   2.675   1.005  16.008  2.8229 -0.0549  0.3020
 3749TIP3   OH235441   1.415   2.778  15.639  0.1428 -0.0066 -0.5877
 3749TIP3    H135442   1.476   2.722  15.687  0.2545 -0.1306 -0.8702
 3749TIP3    H235443   1.357   2.814  15.706 -0.1805 -0.7658 -0.4505
 3750TIP3   OH235444   1.866   2.256  17.077 -0.2811  0.0018  0.3218
 3750TIP3    H135445   1.887   2.170  17.041  1.4436  0.6908 -0.4252
 3750TIP3    H235446   1.788   2.284  17.028 -1.2523 -1.3593  1.0205
 3751TIP3   OH235447   4.108   6.567  17.931  0.1386 -0.1888 -0.0195
 3751TIP3    H135448   4.174   6.634  17.950  1.0035 -1.5354  2.1376
 3751TIP3    H235449   4.143   6.519  17.856  0.4527  0.5746 -0.3731
 3752TIP3   OH235450   2.524   5.303  14.455  0.0498 -0.8402 -0.2171
 3752TIP3    H135451   2.565   5.301  14.368 -0.1432 -1.9657 -0.3020
 3752TIP3    H235452   2.433   5.278  14.439 -0.3594  0.3579  0.1424
 3753TIP3   OH235453   5.228   3.777  17.246 -0.4383 -0.7113 -0.5206
 3753TIP3    H135454   5.301   3.801  17.190  1.5599 -1.1799  1.7119
 3753TIP3    H235455   5.246   3.687  17.272 -1.0730 -0.3878  1.1655
 3754TIP3   OH235456   2.462   5.968  14.780 -0.4140 -0.5584  0.1691
 3754TIP3    H135457   2.520   6.041  14.798 -2.1578  0.6509  1.1588
 3754TIP3    H235458   2.421   5.990  14.696 -0.5686 -0.6592  0.2177
 3755TIP3   OH235459   0.055   5.206  17.324 -0.6958 -0.5378  0.4581
 3755TIP3    H135460   0.072   5.137  17.388  0.7174 -0.7557 -0.1067
 3755TIP3    H235461   0.142   5.241  17.305 -1.2913  0.7203 -0.0201
 3756TIP3   OH235462   0.427   0.279  15.454 -0.1329 -0.3024 -0.2901
 3756TIP3    H135463   0.397   0.291  15.364 -1.5187 -0.3108  0.1476
 3756TIP3    H235464   0.366   0.331  15.506 -0.4125 -1.6703  0.7921
 3757TIP3   OH235465   1.960   5.488  16.946 -0.5548 -0.0638  0.2870
 3757TIP3    H135466   1.983   5.399  16.920 -0.3187 -0.2125  0.9615
 3757TIP3    H235467   1.870   5.500  16.915 -0.8864 -0.8363  0.9047
 3758TIP3   OH235468   0.644   4.153  16.962  0.2255 -0.1387 -0.6682
 3758TIP3    H135469   0.633   4.243  16.993 -0.4499 -1.1341  2.3038
 3758TIP3    H235470   0.639   4.160  16.866 -0.5669  2.8562 -0.5133
 3759TIP3   OH235471   0.697   6.501  17.505 -0.1547  0.0586 -0.0975
 3759TIP3    H135472   0.626   6.450  17.466 -0.4029  0.5519 -0.3068
 3759TIP3    H235473   0.777   6.461  17.472 -0.3014 -1.0802  0.8620
 3760TIP3   OH235474   5.019   2.496  16.989  0.3467  0.0689 -0.2553
 3760TIP3    H135475   5.035   2.497  17.083  1.5532  1.5740 -0.4356
 3760TIP3    H235476   5.082   2.559  16.953 -0.8873  0.4213 -1.9371
 3761TIP3   OH235477   5.265   0.934  15.356 -0.1124 -0.2123  0.4039
 3761TIP3    H135478   5.272   0.980  15.439 -1.2493  1.0855 -0.1904
 3761TIP3    H235479   5.177   0.897  15.356 -0.5374  0.7322 -0.6584
 3762TIP3   OH235480   0.682   1.233  15.887 -0.5263 -0.6197  0.2120
 3762TIP3    H135481   0.739   1.232  15.811  0.1241 -3.3489  0.6105
 3762TIP3    H235482   0.636   1.149  15.884 -1.0411 -0.4878  2.4034
 3763TIP3   OH235483   1.029   0.481  16.589  0.2279 -0.2882 -0.4241
 3763TIP3    H135484   1.006   0.465  16.498 -0.5999  0.2828 -0.3163
 3763TIP3    H235485   1.068   0.568  16.590  0.0141 -0.1933 -0.1972
 3764TIP3   OH235486   6.084   5.981  15.342 -0.2427  0.2732 -0.8791
 3764TIP3    H135487   6.016   5.978  15.409  0.5814  0.7737  0.0187
 3764TIP3    H235488   6.145   5.912  15.366 -0.1731  0.1526 -1.3841
 3765TIP3   OH235489   0.520   1.451  15.630 -0.2917 -0.0231  0.3371
 3765TIP3    H135490   0.435   1.487  15.604  0.9134  1.1800 -2.4213
 3765TIP3    H235491   0.560   1.520  15.682  0.1767  0.8035 -1.0472
 3766TIP3   OH235492   5.235   4.515  15.854  0.4775 -0.3851 -0.6071
 3766TIP3    H135493   5.284   4.518  15.772 -0.0654 -0.1749 -0.9278
 3766TIP3    H235494   5.211   4.423  15.865  0.2619 -0.3602 -0.8600
 3767TIP3   OH235495   2.161   1.722  13.999 -0.0066 -0.5203  0.5264
 3767TIP3    H135496   2.194   1.743  13.912  1.3192  2.0914  1.5642
 3767TIP3    H235497   2.202   1.638  14.021 -1.8185 -2.2364 -1.9678
 3768TIP3   OH235498   0.133   1.862  15.680  0.0540 -0.1947  0.2722
 3768TIP3    H135499   0.115   1.825  15.594  0.0685  0.6364 -0.0943
 3768TIP3    H235500   0.056   1.915  15.701  0.4520  0.3633  0.3473
 3769TIP3   OH235501   0.480   5.332  15.841 -0.1907  0.2922 -0.2066
 3769TIP3    H135502   0.560   5.308  15.887 -1.2184 -0.2576  1.3647
 3769TIP3    H235503   0.510   5.391  15.771  1.6382 -0.4382 -0.0984
 3770TIP3   OH235504   2.619   4.280  16.529 -0.1168  0.1716  0.1692
 3770TIP3    H135505   2.701   4.302  16.485 -0.7588 -0.8203 -1.5970
 3770TIP3    H235506   2.623   4.186  16.542 -0.3901  0.3074  1.3898
 3771TIP3   OH235507   4.795   0.874  15.783 -0.2292 -0.1673  0.2382
 3771TIP3    H135508   4.820   0.836  15.867  0.3393 -0.3289 -0.0038
 3771TIP3    H235509   4.702   0.894  15.793 -0.4843 -1.3900  0.4638
 3772TIP3   OH235510   4.650   4.560  18.086 -0.3209  0.1852 -0.2891
 3772TIP3    H135511   4.655   4.535  18.178 -0.5467 -0.2730 -0.3953
 3772TIP3    H235512   4.688   4.485  18.039  0.6520  0.8026 -0.5187
 3773TIP3   OH235513   5.003   4.533  17.368 -0.0873 -0.1701  0.3074
 3773TIP3    H135514   4.953   4.541  17.287 -1.3384  0.9842  1.1433
 3773TIP3    H235515   5.060   4.610  17.369 -0.7017  0.2912  0.9093
 3774TIP3   OH235516   0.240   4.795  16.021  0.0606 -0.0966 -0.1123
 3774TIP3    H135517   0.177   4.856  15.983  0.8780 -0.3438 -1.9525
 3774TIP3    H235518   0.268   4.740  15.948  2.2273 -0.1462  0.6780
 3775TIP3   OH235519   1.622   1.949  17.398  0.1824 -0.3057 -0.3226
 3775TIP3    H135520   1.709   1.976  17.370 -0.2760 -0.2470 -1.7524
 3775TIP3    H235521   1.612   1.989  17.485  1.8108 -0.8601  0.1545
 3776TIP3   OH235522   1.837   3.874  17.254  0.0920 -0.3025 -0.7170
 3776TIP3    H135523   1.877   3.798  17.213  0.6552 -0.1377 -0.4798
 3776TIP3    H235524   1.858   3.947  17.196 -0.7145 -0.3731 -1.1079
 3777TIP3   OH235525   3.642   6.220  14.994 -0.3813 -0.4634  0.1352
 3777TIP3    H135526   3.625   6.242  14.902  1.0289 -0.4187 -0.1236
 3777TIP3    H235527   3.624   6.300  15.042  2.4438  0.6887 -0.5368
 3778TIP3   OH235528   2.840   1.186  14.006  0.5228 -0.1614 -0.3454
 3778TIP3    H135529   2.919   1.210  14.056  1.2138  0.1769 -1.5657
 3778TIP3    H235530   2.804   1.270  13.978  1.3619 -0.3859 -2.2361
 3779TIP3   OH235531   6.574   5.423  15.632 -0.2369 -0.2001 -0.0465
 3779TIP3    H135532   6.659   5.462  15.652 -0.1378  0.0326 -0.8752
 3779TIP3    H235533   6.561   5.357  15.700  1.0468 -0.8907 -0.4461
 3780TIP3   OH235534   0.217   1.121  16.573  0.2477  0.0312  0.7313
 3780TIP3    H135535   0.178   1.183  16.512  0.9448  0.1451  0.3916
 3780TIP3    H235536   0.262   1.057  16.517 -0.6326 -0.9117  1.0587
 3781TIP3   OH235537   5.637   3.450  17.996  0.5875  0.4244  0.3080
 3781TIP3    H135538   5.639   3.399  18.077 -1.3211 -0.1106  0.0838
 3781TIP3    H235539   5.685   3.397  17.932  0.4200 -0.0957  0.6115
 3782TIP3   OH235540   6.437   0.499  15.315 -0.1059 -0.0850 -0.3065
 3782TIP3    H135541   6.446   0.571  15.378 -0.4515  0.0902 -0.4540
 3782TIP3    H235542   6.527   0.476  15.292 -0.0004  0.8310 -0.8530
 3783TIP3   OH235543   4.168   4.878  17.879  0.0176  0.1072 -0.7804
 3783TIP3    H135544   4.199   4.869  17.969 -2.2707 -0.3941  0.0229
 3783TIP3    H235545   4.199   4.799  17.835  0.8807  0.2010 -0.3622
 3784TIP3   OH235546   0.328   1.574  17.050 -1.5451  0.0377 -0.2290
 3784TIP3    H135547   0.422   1.572  17.063 -1.3454 -2.1672 -1.5610
 3784TIP3    H235548   0.291   1.556  17.136 -0.7842  1.0059  0.3228
 3785TIP3   OH235549   0.532   0.547  15.285  0.1227 -0.5351 -0.5341
 3785TIP3    H135550   0.532   0.631  15.239 -0.0467  0.3864  1.1129
 3785TIP3    H235551   0.440   0.530  15.304  0.2902 -0.3018  0.5273
 3786TIP3   OH235552   0.801   2.624  17.355  0.5038 -0.0007 -0.0984
 3786TIP3    H135553   0.896   2.625  17.367  0.4456  0.4434  0.4056
 3786TIP3    H235554   0.766   2.650  17.440 -0.1401 -1.8285  0.2444
 3787TIP3   OH235555   1.961   0.403  15.457  0.1655  0.0396  0.2660
 3787TIP3    H135556   2.017   0.383  15.382  0.1776 -0.6558  0.4563
 3787TIP3    H235557   1.926   0.318  15.485  1.5139  0.0066  2.1019
 3788TIP3   OH235558   3.608   0.667  17.172 -0.1281  0.0095 -0.3845
 3788TIP3    H135559   3.559   0.746  17.149 -2.0862 -1.3469 -1.2256
 3788TIP3    H235560   3.556   0.627  17.242  0.9279 -0.4581  0.1461
 3789TIP3   OH235561   3.547   6.336  15.740  0.0480  0.1963  0.2723
 3789TIP3    H135562   3.626   6.380  15.771 -0.8916  1.5183  0.9012
 3789TIP3    H235563   3.489   6.407  15.714  0.0657 -0.7748 -2.8912
 3790TIP3   OH235564   2.126   5.953  14.279 -0.0642  0.0988 -0.5088
 3790TIP3    H135565   2.035   5.974  14.301  0.3093  2.5495 -0.9121
 3790TIP3    H235566   2.120   5.879  14.218 -1.5730 -1.4865  1.4424
 3791TIP3   OH235567   2.187   3.434  16.558 -0.1917 -0.1322  0.4874
 3791TIP3    H135568   2.106   3.459  16.513 -0.1402  0.1716  0.5594
 3791TIP3    H235569   2.175   3.466  16.648  1.2015  2.5977 -0.2010
 3792TIP3   OH235570   6.482   5.973  17.681  0.1790  0.3358 -0.2498
 3792TIP3    H135571   6.563   5.991  17.634  0.8362  0.1340  0.7572
 3792TIP3    H235572   6.479   5.878  17.688  0.5745  0.3808  0.8739
 3793TIP3   OH235573   5.579   0.935  16.688  0.2370 -0.0606 -0.1755
 3793TIP3    H135574   5.612   0.986  16.762  1.7826  1.7088 -1.9731
 3793TIP3    H235575   5.603   0.844  16.709 -0.7809  0.1327  2.1633
 3794TIP3   OH235576   1.022   6.655  17.336  0.2370 -0.1509 -0.3653
 3794TIP3    H135577   0.942   6.703  17.357  0.5480 -0.4378  1.7020
 3794TIP3    H235578   1.092   6.701  17.382  1.1038 -0.5585 -1.2173
 3795TIP3   OH235579   1.881   5.937  15.205  0.3721  0.0527  0.3544
 3795TIP3    H135580   1.935   5.861  15.226 -0.5414 -0.5399  0.6458
 3795TIP3    H235581   1.832   5.910  15.127  0.1746  0.4069  0.3539
 3796TIP3   OH235582   3.483   1.214  15.465 -0.2201  0.8282 -0.4837
 3796TIP3    H135583   3.455   1.302  15.439  0.6368  1.2745  0.0422
 3796TIP3    H235584   3.568   1.228  15.507 -0.5259 -0.1412  0.4918
 3797TIP3   OH235585   2.861   5.842  17.057  0.3469  0.6277 -0.5634
 3797TIP3    H135586   2.859   5.754  17.095 -0.2230  1.2883  1.0385
 3797TIP3    H235587   2.954   5.862  17.047  0.5042  0.2668  0.1259
 3798TIP3   OH235588   2.707   3.948  15.873  0.0107  0.0211  0.2599
 3798TIP3    H135589   2.705   3.870  15.927 -1.3299  0.2355  0.5639
 3798TIP3    H235590   2.634   3.937  15.812 -0.1604  1.0049  0.2697
 3799TIP3   OH235591   6.473   3.922  16.161  0.3796  0.2037 -0.0703
 3799TIP3    H135592   6.439   3.855  16.101 -1.3410 -0.0144  1.0892
 3799TIP3    H235593   6.397   3.976  16.182  1.3577  1.4223  0.4611
 3800TIP3   OH235594   0.429   2.572  17.344  0.4554  0.1600  0.0345
 3800TIP3    H135595   0.403   2.548  17.433  0.5016  0.0402  0.0155
 3800TIP3    H235596   0.393   2.660  17.331 -1.1908 -0.5730 -0.5130
 3801TIP3   OH235597   5.684   3.539  17.249  0.6916 -0.2106  0.5239
 3801TIP3    H135598   5.623   3.512  17.317  2.2065 -0.9025  1.6688
 3801TIP3    H235599   5.750   3.470  17.247  1.8853  0.8986 -0.0872
 3802TIP3   OH235600   3.060   5.750  17.376  0.3926  0.2433  0.0587
 3802TIP3    H135601   3.079   5.841  17.352 -1.5651  0.4832 -0.7437
 3802TIP3    H235602   3.086   5.699  17.299 -0.9713  0.4383 -0.5529
 3803TIP3   OH235603   4.441   0.130  16.441  0.0385  0.3668  0.3967
 3803TIP3    H135604   4.456   0.081  16.522 -2.8766  1.9373  2.0481
 3803TIP3    H235605   4.451   0.222  16.467 -1.5873  0.9282 -0.8323
 3804TIP3   OH235606   6.380   5.272  15.494  0.3044  0.0746 -0.2693
 3804TIP3    H135607   6.428   5.220  15.430 -0.0978  0.1479 -0.6405
 3804TIP3    H235608   6.447   5.322  15.541  0.6921 -0.7262  0.0532
 3805TIP3   OH235609   0.605   6.213  17.996  0.6592  0.3896  0.4265
 3805TIP3    H135610   0.598   6.309  18.000 -1.3240  0.2916  0.7714
 3805TIP3    H235611   0.610   6.192  17.903 -0.5742  0.8038  0.2365
 3806TIP3   OH235612   5.632   6.447  16.005  0.4526  0.7610  0.0547
 3806TIP3    H135613   5.616   6.354  16.018  0.7218  0.7781  0.5297
 3806TIP3    H235614   5.716   6.464  16.049  1.1782  0.9174 -1.3250
 3807TIP3   OH235615   0.812   1.452  17.635  0.6263  0.3280 -0.2754
 3807TIP3    H135616   0.785   1.529  17.685  0.9514  0.5314 -0.4056
 3807TIP3    H235617   0.905   1.467  17.617  0.5769  0.1214 -0.7020
 3808TIP3   OH235618   5.753   6.035  14.401  0.3102 -0.9111 -0.4990
 3808TIP3    H135619   5.725   6.008  14.313  0.4449 -2.2106 -0.1737
 3808TIP3    H235620   5.801   6.116  14.388 -1.9800  0.3897 -1.3040
 3809TIP3   OH235621   6.447   5.876  17.090 -0.0210 -0.7940  0.0923
 3809TIP3    H135622   6.531   5.922  17.097 -1.0881  1.5339 -1.2192
 3809TIP3    H235623   6.439   5.830  17.173  2.0103 -0.1215  0.7400
 3810TIP3   OH235624   2.071   0.633  16.331  0.0434 -0.4307 -0.0746
 3810TIP3    H135625   2.100   0.650  16.420 -0.2557  0.0762 -0.0700
 3810TIP3    H235626   2.150   0.603  16.285  0.8127  1.6985 -0.2761
 3811TIP3   OH235627   2.476   4.993  14.795 -0.2304  0.1325  0.3150
 3811TIP3    H135628   2.408   5.011  14.730  1.9663  1.2619 -1.8827
 3811TIP3    H235629   2.485   5.074  14.844 -3.4856 -1.3964  3.9144
 3812TIP3   OH235630   5.392   0.454  15.958  0.2779 -0.1745  0.4908
 3812TIP3    H135631   5.386   0.359  15.970  0.2804 -0.4566 -1.4987
 3812TIP3    H235632   5.304   0.481  15.933  0.8376 -0.0798 -1.5150
 3813TIP3   OH235633   2.270   0.272  17.352  0.4711  0.2703 -0.5139
 3813TIP3    H135634   2.324   0.223  17.290  0.7982  1.5198 -1.2470
 3813TIP3    H235635   2.299   0.363  17.342  0.9357  0.4418  1.8782
 3814TIP3   OH235636   4.964   5.050  15.727 -0.2908 -0.1459  0.0637
 3814TIP3    H135637   4.919   5.057  15.811  3.0509  2.4692  1.8863
 3814TIP3    H235638   5.016   5.130  15.721  0.0163 -0.4144 -4.3575
 3815TIP3   OH235639   3.089   2.640  17.166  0.5827  0.1067  0.0754
 3815TIP3    H135640   3.093   2.573  17.098  0.3370 -1.0332  1.1528
 3815TIP3    H235641   2.998   2.669  17.167 -0.0369 -1.6678  1.5372
 3816TIP3   OH235642   3.816   1.056  15.000  0.7571  0.2367  0.4596
 3816TIP3    H135643   3.727   1.041  15.032  1.3320  0.8446  2.4628
 3816TIP3    H235644   3.807   1.057  14.904 -1.3457  0.0879  0.6136
 3817TIP3   OH235645   1.531   6.333  14.631 -0.0950 -0.8423  0.8630
 3817TIP3    H135646   1.477   6.308  14.556 -0.3601 -0.9508  1.0898
 3817TIP3    H235647   1.612   6.282  14.621  0.1711 -0.3153  0.2593
 3818TIP3   OH235648   6.350   0.079  16.034 -0.4926  0.3085  0.3985
 3818TIP3    H135649   6.263   0.085  15.995 -1.4355 -0.6085  2.2314
 3818TIP3    H235650   6.406   0.047  15.963 -1.8414  0.0228 -0.5776
 3819TIP3   OH235651   0.218   3.388  17.023  0.1755 -0.0636 -0.1194
 3819TIP3    H135652   0.258   3.308  17.059 -0.7165  0.2977  1.7986
 3819TIP3    H235653   0.192   3.363  16.934  2.9314 -0.8508 -0.7953
 3820TIP3   OH235654   3.034   1.364  17.522 -0.2200  0.4773 -0.0889
 3820TIP3    H135655   2.966   1.410  17.472 -0.5497  1.4230  1.1958
 3820TIP3    H235656   3.103   1.429  17.535  0.8024 -0.3714 -1.0667
 3821TIP3   OH235657   1.264   4.347  15.059  0.2988 -0.3541 -0.1538
 3821TIP3    H135658   1.280   4.254  15.041  0.8322  0.0759 -2.2620
 3821TIP3    H235659   1.285   4.390  14.976  0.4970  1.7055  0.9166
 3822TIP3   OH235660   1.377   2.246  16.455 -0.3204 -0.0034 -0.1861
 3822TIP3    H135661   1.346   2.225  16.367 -0.0658  0.6326 -0.4340
 3822TIP3    H235662   1.302   2.289  16.497 -0.1641  0.4774 -0.3918
 3823TIP3   OH235663   4.518   2.462  15.454  0.0147 -0.0525 -0.1545
 3823TIP3    H135664   4.482   2.388  15.405  0.6443 -0.3448 -0.1867
 3823TIP3    H235665   4.452   2.530  15.446 -1.0732 -0.9504  0.7799
 3824TIP3   OH235666   3.047   6.029  17.344  0.3086 -0.3981  0.0371
 3824TIP3    H135667   3.024   6.106  17.294 -0.3679 -1.2430 -0.9951
 3824TIP3    H235668   3.126   6.054  17.393  0.5196  0.6949 -0.8354
 3825TIP3   OH235669   2.728   3.581  17.117  0.5661  0.1644  0.6619
 3825TIP3    H135670   2.699   3.519  17.184 -0.0236 -1.4680 -1.0262
 3825TIP3    H235671   2.798   3.536  17.070 -0.1105  0.5870 -0.8310
 3826TIP3   OH235672   6.186   0.635  16.502  0.2532  0.0625 -0.0317
 3826TIP3    H135673   6.096   0.614  16.525  0.0275 -0.0784 -0.9900
 3826TIP3    H235674   6.239   0.579  16.558 -0.2886 -0.8668 -0.4296
 3827TIP3   OH235675   3.637   4.628  14.782 -0.0535  0.1025  0.5261
 3827TIP3    H135676   3.686   4.564  14.730 -2.1047 -1.2653  0.1532
 3827TIP3    H235677   3.702   4.695  14.804  1.9774 -1.5864  0.0977
 3828TIP3   OH235678   0.251   0.382  14.811  0.2583  0.3436 -0.7560
 3828TIP3    H135679   0.322   0.346  14.865  0.4986  0.6283 -0.8759
 3828TIP3    H235680   0.223   0.460  14.859 -0.0930  0.1365 -0.6226
 3829TIP3   OH235681   0.465   5.516  14.122  0.2006 -0.3638 -0.3092
 3829TIP3    H135682   0.381   5.523  14.167 -0.4331  0.0286 -1.5142
 3829TIP3    H235683   0.503   5.603  14.127  0.9768 -0.7461  1.0078
 3830TIP3   OH235684   2.270   4.320  16.353 -0.6254  0.2125 -0.7125
 3830TIP3    H135685   2.211   4.385  16.313  1.3310  1.3982 -1.8580
 3830TIP3    H235686   2.325   4.371  16.412 -1.0894 -0.9752  0.8135
 3831TIP3   OH235687   1.184   2.610  17.619  0.3830 -0.1189  0.2998
 3831TIP3    H135688   1.106   2.557  17.636 -0.8022  0.8643 -1.7098
 3831TIP3    H235689   1.177   2.683  17.681  0.5850 -0.8475  1.2093
 3832TIP3   OH235690   0.686   5.803  15.485 -0.1934  0.4710  0.0248
 3832TIP3    H135691   0.641   5.753  15.552  1.6713  0.3657  1.2615
 3832TIP3    H235692   0.687   5.746  15.408  0.3210 -0.6630  0.8586
 3833TIP3   OH235693   4.234   3.104  15.296 -0.2691 -0.0316 -0.1363
 3833TIP3    H135694   4.248   3.040  15.226 -2.1160  1.5544 -2.1080
 3833TIP3    H235695   4.286   3.180  15.270 -0.1597  0.2090  0.7658
 3834TIP3   OH235696   2.664   4.236  15.565  0.6499  0.2340  0.4104
 3834TIP3    H135697   2.734   4.192  15.516  0.7504 -1.0024  1.5971
 3834TIP3    H235698   2.584   4.206  15.522  0.7000 -1.4300  1.3791
 3835TIP3   OH235699   2.368   3.576  16.301  0.1667  0.3010 -0.4684
 3835TIP3    H135700   2.285   3.618  16.322  0.5715  1.3525 -0.9274
 3835TIP3    H235701   2.351   3.482  16.314 -0.8011  0.5732  0.3940
 3836TIP3   OH235702   3.133   6.644  14.780 -0.3303  0.1529  0.2807
 3836TIP3    H135703   3.069   6.616  14.715 -1.2370  0.7193  0.9052
 3836TIP3    H235704   3.090   6.630  14.864  1.0510 -1.1449  0.8225
 3837TIP3   OH235705   0.245   4.787  16.982 -0.3003  0.4526 -0.2479
 3837TIP3    H135706   0.338   4.807  16.971 -0.5387  0.5451 -2.4927
 3837TIP3    H235707   0.219   4.834  17.061  1.6155  0.1470  0.6164
 3838TIP3   OH235708   3.164   2.593  17.645  0.5971 -0.0657 -0.6542
 3838TIP3    H135709   3.090   2.536  17.664  0.1689 -0.4040 -2.9654
 3838TIP3    H235710   3.184   2.575  17.553  2.2968  1.4489 -0.6261
 3839TIP3   OH235711   1.905   5.867  17.436 -0.1514  0.0358 -0.0210
 3839TIP3    H135712   1.830   5.841  17.490 -0.6181 -1.2242 -1.2221
 3839TIP3    H235713   1.949   5.936  17.487 -1.6737  0.2517  1.0543
 3840TIP3   OH235714   4.015   0.655  18.154 -0.0385  0.1472  0.0239
 3840TIP3    H135715   3.960   0.732  18.169  0.7722  0.7215  0.1249
 3840TIP3    H235716   3.957   0.581  18.169 -0.4728  0.7212  1.3763
 3841TIP3   OH235717   4.152   6.582  15.549 -0.1725 -0.7407 -0.2578
 3841TIP3    H135718   4.170   6.494  15.515 -0.3628 -1.9187  2.4028
 3841TIP3    H235719   4.236   6.611  15.585 -0.3483 -0.2448 -0.2387
 3842TIP3   OH235720   6.537   5.283  16.116  0.3047  0.3572 -0.6353
 3842TIP3    H135721   6.452   5.326  16.113  0.2886  0.6468  1.7388
 3842TIP3    H235722   6.526   5.203  16.065 -2.0799 -0.6828  1.3238
 3843TIP3   OH235723   2.188   0.032  17.901  0.4090  0.3001  0.1837
 3843TIP3    H135724   2.251   0.098  17.873 -1.1936  1.7829 -0.1218
 3843TIP3    H235725   2.137   0.076  17.969  0.1634 -1.1081  0.9443
 3844TIP3   OH235726   1.973   1.119  17.275 -0.5116 -0.3498  0.2944
 3844TIP3    H135727   1.963   1.074  17.191 -1.6146  1.7855 -0.7973
 3844TIP3    H235728   2.067   1.115  17.294 -0.3739 -1.6130 -0.5931
 3845TIP3   OH235729   2.131   5.742  18.009  0.1887 -0.8630  0.9196
 3845TIP3    H135730   2.200   5.807  18.022  0.0688 -0.5219 -0.0562
 3845TIP3    H235731   2.055   5.776  18.056 -0.1846  0.2335 -0.4152
 3846TIP3   OH235732   5.657   3.720  15.289 -0.3690  0.6534 -0.0263
 3846TIP3    H135733   5.613   3.697  15.207 -0.8612 -0.8327  0.6112
 3846TIP3    H235734   5.747   3.690  15.277 -0.2404  1.1446 -0.3038
 3847TIP3   OH235735   3.361   5.640  16.703 -0.1043  0.0887  0.0619
 3847TIP3    H135736   3.421   5.713  16.690  0.0333 -0.4316 -2.9361
 3847TIP3    H235737   3.281   5.665  16.657 -0.7791 -0.8330  0.6924
 3848TIP3   OH235738   6.512   3.938  15.845 -0.3257 -0.5460  0.1497
 3848TIP3    H135739   6.602   3.955  15.873 -0.2559 -0.0437 -0.3774
 3848TIP3    H235740   6.504   3.981  15.760 -0.9262 -0.9758 -0.0200
 3849TIP3   OH235741   5.010   5.510  16.479  0.0895 -0.1811  0.1323
 3849TIP3    H135742   5.082   5.451  16.500  1.4273  1.0431 -0.8495
 3849TIP3    H235743   5.052   5.589  16.445 -1.6255  1.4120  1.4800
 3850TIP3   OH235744   2.841   2.191  15.065 -0.0567 -0.5690  0.0382
 3850TIP3    H135745   2.780   2.222  15.131  0.1627 -0.5285  0.2234
 3850TIP3    H235746   2.803   2.218  14.981 -0.6760 -1.2083  0.1065
 3851TIP3   OH235747   2.860   2.268  15.939 -0.1098 -0.0295 -0.0230
 3851TIP3    H135748   2.847   2.182  15.980 -0.9468  0.2212  0.2545
 3851TIP3    H235749   2.955   2.273  15.923 -0.0610 -1.0361 -0.1236
 3852TIP3   OH235750   1.507   4.666  15.797 -0.4271  0.0566  0.0784
 3852TIP3    H135751   1.587   4.717  15.810  0.0729 -0.9211  1.0834
 3852TIP3    H235752   1.530   4.604  15.728 -0.5034  0.1694 -0.0454
 3853TIP3   OH235753   3.240   1.227  15.817 -0.5511 -0.0782 -0.3609
 3853TIP3    H135754   3.263   1.165  15.748 -0.9321  0.5085 -1.0323
 3853TIP3    H235755   3.313   1.223  15.878  0.5430  0.5062 -1.5877
 3854TIP3   OH235756   4.541   0.922  14.961 -0.3690  0.0545 -0.1795
 3854TIP3    H135757   4.586   0.943  14.879 -0.4878  0.9867 -0.0125
 3854TIP3    H235758   4.589   0.846  14.996 -2.1062 -2.3148 -2.5342
 3855TIP3   OH235759   3.929   5.322  15.046  0.4920  0.0504  0.0092
 3855TIP3    H135760   3.907   5.415  15.034  0.5399  0.0464 -0.1089
 3855TIP3    H235761   4.002   5.307  14.987  2.2168  0.5772  1.8857
 3856TIP3   OH235762   0.703   6.178  17.239 -0.4604  0.7427 -0.2430
 3856TIP3    H135763   0.679   6.110  17.302 -1.7221  0.9039 -0.5218
 3856TIP3    H235764   0.797   6.187  17.249 -0.3415 -0.6606  0.1832
 3857TIP3   OH235765   6.563   5.215  15.117 -0.2781 -0.0974 -0.4739
 3857TIP3    H135766   6.570   5.159  15.194 -0.7615 -0.6126 -0.7978
 3857TIP3    H235767   6.592   5.302  15.147 -2.4926  0.2448  0.8778
 3858TIP3   OH235768   5.085   2.974  17.089 -0.1474  0.0231 -0.0128
 3858TIP3    H135769   5.020   2.963  17.020  1.3042 -0.4913 -1.3659
 3858TIP3    H235770   5.050   2.924  17.163 -1.9790  1.0007 -0.1436
 3859TIP3   OH235771   2.314   3.792  16.730 -0.2780 -0.4573  0.2080
 3859TIP3    H135772   2.325   3.877  16.688 -1.8450  0.3621  1.3644
 3859TIP3    H235773   2.364   3.732  16.675 -0.7421  0.8681 -1.7732
 3860TIP3   OH235774   4.172   0.420  17.942  0.3664  0.5945  0.3526
 3860TIP3    H135775   4.178   0.325  17.952 -1.3289  0.5657  1.6256
 3860TIP3    H235776   4.132   0.433  17.856  1.2327  0.1860 -0.1154
 3861TIP3   OH235777   0.894   0.887  17.590  0.5508 -0.1759 -0.0150
 3861TIP3    H135778   0.850   0.929  17.665 -1.0005 -0.3005 -0.8128
 3861TIP3    H235779   0.834   0.818  17.563  0.5512  0.5402 -2.0368
 3862TIP3   OH235780   4.075   1.188  15.894 -0.2396 -0.0258  0.2063
 3862TIP3    H135781   4.057   1.280  15.871  1.2409  0.6236  1.4654
 3862TIP3    H235782   4.102   1.148  15.812  1.5211  1.3417  0.0548
 3863TIP3   OH235783   4.575   1.358  15.127 -1.0244  0.5469 -0.5094
 3863TIP3    H135784   4.596   1.290  15.190 -0.3431 -0.1388 -1.4524
 3863TIP3    H235785   4.516   1.418  15.175 -1.7339 -0.7482  0.2956
 3864TIP3   OH235786   0.303   4.956  14.298 -0.2311 -0.1408 -0.7207
 3864TIP3    H135787   0.229   4.964  14.237 -0.6678 -0.2505 -0.2111
 3864TIP3    H235788   0.264   4.965  14.384  0.4230  0.2789 -0.4585
 3865TIP3   OH235789   2.176   0.777  17.094  0.1692  0.5128 -0.0695
 3865TIP3    H135790   2.090   0.806  17.065 -0.5747 -0.1586  1.3769
 3865TIP3    H235791   2.217   0.856  17.130 -0.7890  0.3877  1.3789
 3866TIP3   OH235792   3.458   0.054  16.369 -0.7111 -0.6143  0.0748
 3866TIP3    H135793   3.409   0.135  16.386 -1.3101 -0.8591 -0.4251
 3866TIP3    H235794   3.499   0.069  16.284  1.9748  0.4654  1.4539
 3867TIP3   OH235795   6.060   2.768  16.717  0.5441  0.1891 -0.1345
 3867TIP3    H135796   5.965   2.761  16.730  0.8625 -1.8095  1.7561
 3867TIP3    H235797   6.096   2.768  16.806  2.3509  0.1302 -0.8364
 3868TIP3   OH235798   5.036   3.298  15.872 -0.4501 -0.9312 -0.2837
 3868TIP3    H135799   4.975   3.297  15.798  0.0462 -0.7147 -0.7037
 3868TIP3    H235800   5.104   3.235  15.849 -2.0221 -3.4594  1.5218
 3869TIP3   OH235801   1.297   5.870  14.259 -0.0249 -0.4266 -0.5985
 3869TIP3    H135802   1.309   5.961  14.289 -1.8427  0.4770 -2.3611
 3869TIP3    H235803   1.334   5.869  14.171  0.1861 -1.4878 -0.5129
 3870TIP3   OH235804   3.277   5.899  14.825 -0.1904  0.0778 -0.7068
 3870TIP3    H135805   3.312   5.973  14.775  1.1653  0.7401  1.1048
 3870TIP3    H235806   3.349   5.837  14.829 -0.6728 -0.4794 -0.5476
 3871TIP3   OH235807   3.842   6.496  16.441  0.1209  0.1917  0.8642
 3871TIP3    H135808   3.780   6.448  16.385  1.6821 -1.3183  0.3626
 3871TIP3    H235809   3.802   6.583  16.451 -2.7424 -1.1031  1.7070
 3872TIP3   OH235810   5.299   1.480  16.848  0.2331 -0.6159  0.0088
 3872TIP3    H135811   5.349   1.494  16.928  0.8465  0.2871 -0.5159
 3872TIP3    H235812   5.309   1.387  16.828  1.2132 -0.5668  0.2353
 3873TIP3   OH235813   4.432   5.874  17.254  0.4161 -0.2621  0.0169
 3873TIP3    H135814   4.405   5.863  17.346 -1.0235 -0.3778 -0.3917
 3873TIP3    H235815   4.527   5.876  17.257  0.4338 -1.3906  1.4084
 3874TIP3   OH235816   1.296   4.791  16.321 -0.0137  0.4085  0.0278
 3874TIP3    H135817   1.332   4.753  16.400  2.3144  1.2011 -0.5769
 3874TIP3    H235818   1.353   4.760  16.251 -1.2342  0.7859 -1.1857
 3875TIP3   OH235819   1.736   2.796  15.471  0.3615  0.1197  0.2985
 3875TIP3    H135820   1.664   2.847  15.433  0.1010 -0.2872  0.2371
 3875TIP3    H235821   1.794   2.780  15.397 -0.6453 -1.5342 -0.1875
 3876TIP3   OH235822   0.676   1.787  17.801  0.2568 -0.4059  0.4711
 3876TIP3    H135823   0.728   1.770  17.723  0.2801  2.0219 -0.1227
 3876TIP3    H235824   0.588   1.804  17.768  0.1142 -0.0154  1.0330
 3877TIP3   OH235825   3.791   1.647  17.418  0.2888  0.2509 -0.0074
 3877TIP3    H135826   3.729   1.647  17.345 -0.8918 -0.4637  0.9645
 3877TIP3    H235827   3.868   1.602  17.383 -0.3486 -0.2984 -0.7475
 3878TIP3   OH235828   5.900   0.272  16.482  0.2638  0.8037 -0.4250
 3878TIP3    H135829   5.821   0.246  16.530  1.0703 -0.3077  0.3303
 3878TIP3    H235830   5.899   0.368  16.486 -0.2011  0.7631  0.9950
 3879TIP3   OH235831   3.836   3.498  17.464  1.1401 -0.4828  0.1260
 3879TIP3    H135832   3.792   3.453  17.536 -0.7664  0.5482 -0.3283
 3879TIP3    H235833   3.915   3.447  17.448 -0.7585 -3.5561 -0.1969
 3880TIP3   OH235834   3.960   5.415  17.379 -0.2095  0.1594 -0.1328
 3880TIP3    H135835   3.985   5.442  17.291 -0.6849  1.7362  0.1912
 3880TIP3    H235836   4.014   5.469  17.437 -1.2279  0.4824  0.5450
 3881TIP3   OH235837   2.213   3.700  16.991 -0.1900 -0.0258 -0.1337
 3881TIP3    H135838   2.235   3.739  16.906  0.9619 -0.6770 -0.1615
 3881TIP3    H235839   2.200   3.774  17.049  0.0597  0.4194 -0.6390
 3882TIP3   OH235840   4.087   2.167  16.141  0.0096  0.4444 -0.4557
 3882TIP3    H135841   4.089   2.081  16.099 -0.2823  0.4330 -0.4464
 3882TIP3    H235842   4.027   2.156  16.215  1.6498  0.0454  0.8693
 3883TIP3   OH235843   5.363   3.542  17.313 -0.8564  0.4428  0.4969
 3883TIP3    H135844   5.280   3.507  17.279 -0.9727  0.9660  0.2338
 3883TIP3    H235845   5.370   3.503  17.401 -0.2993 -1.3287 -0.2827
 3884TIP3   OH235846   5.922   5.250  15.623  0.0163  0.0401 -0.8526
 3884TIP3    H135847   5.960   5.182  15.680 -0.2172 -0.1982 -0.9761
 3884TIP3    H235848   5.997   5.288  15.578  0.2396  0.4283 -0.1772
 3885TIP3   OH235849   0.643   3.702  15.386 -0.0330 -0.2706 -0.3893
 3885TIP3    H135850   0.721   3.736  15.342 -0.9919  1.6374 -0.7459
 3885TIP3    H235851   0.663   3.610  15.403  1.2803 -0.5321 -2.7984
 3886TIP3   OH235852   3.310   0.635  16.830  0.0998 -0.0302  0.3299
 3886TIP3    H135853   3.384   0.660  16.774  0.4176 -1.0763  0.2562
 3886TIP3    H235854   3.243   0.702  16.813  1.0688  1.0117  0.4981
 3887TIP3   OH235855   6.661   5.525  17.910 -0.1515  0.4699  0.1746
 3887TIP3    H135856   6.752   5.502  17.893 -0.1019  1.5760 -1.2760
 3887TIP3    H235857   6.611   5.450  17.880  0.1947  0.6605 -0.9024
 3888TIP3   OH235858   3.520   6.212  15.505 -0.0294  0.1146  0.2010
 3888TIP3    H135859   3.522   6.251  15.593 -0.5124  1.1577 -0.2357
 3888TIP3    H235860   3.588   6.259  15.456 -1.0733  0.9217 -0.5214
 3889TIP3   OH235861   6.182   3.388  16.780 -0.4640  0.7826 -0.1262
 3889TIP3    H135862   6.101   3.399  16.829  0.0705  0.6912  0.7938
 3889TIP3    H235863   6.235   3.465  16.803  0.6008 -0.2481  1.0597
 3890TIP3   OH235864   4.595   5.492  17.067  0.1909 -0.2219 -0.5198
 3890TIP3    H135865   4.643   5.410  17.082  0.2244 -0.5515 -2.2388
 3890TIP3    H235866   4.662   5.555  17.043  0.0067 -0.0737 -0.6438
 3891TIP3   OH235867   0.660   0.307  15.813  0.4063 -0.2712 -0.0390
 3891TIP3    H135868   0.741   0.330  15.768  0.7076  0.3937  0.8245
 3891TIP3    H235869   0.595   0.368  15.778 -0.0516 -1.6373 -1.6817
 3892TIP3   OH235870   2.725   4.946  16.719  0.1053  0.1888  0.7723
 3892TIP3    H135871   2.718   4.970  16.627  0.8922 -1.0717  0.3500
 3892TIP3    H235872   2.664   5.004  16.764 -0.8350  0.3419 -0.6265
 3893TIP3   OH235873   1.607   3.850  15.089 -0.2439  0.2631 -0.5134
 3893TIP3    H135874   1.565   3.776  15.132 -0.2713  0.7918  0.3791
 3893TIP3    H235875   1.700   3.826  15.084 -0.5530 -0.7781 -2.2293
 3894TIP3   OH235876   1.971   1.337  17.054  0.0360  0.4087 -0.0057
 3894TIP3    H135877   1.962   1.372  16.965  0.7154  0.4829 -0.0465
 3894TIP3    H235878   1.887   1.293  17.070 -0.2217  0.6857 -0.5513
 3895TIP3   OH235879   3.217   4.796  17.995  0.1733 -0.5323 -0.2610
 3895TIP3    H135880   3.224   4.795  18.091  0.4076 -2.1939 -0.2755
 3895TIP3    H235881   3.123   4.809  17.979  0.0291 -0.9635  0.2054
 3896TIP3   OH235882   2.458   0.564  15.537  0.0423 -0.0032  0.4712
 3896TIP3    H135883   2.476   0.648  15.578  1.1073  0.0320 -0.0243
 3896TIP3    H235884   2.405   0.516  15.601 -1.2110  1.3011  0.4559
 3897TIP3   OH235885   3.615   6.668  14.516 -0.1756  0.0610  0.2030
 3897TIP3    H135886   3.605   6.753  14.474 -0.2938 -0.3944 -0.7301
 3897TIP3    H235887   3.631   6.607  14.443  0.9422 -0.5613  0.9236
 3898TIP3   OH235888   2.090   5.660  15.793 -0.1120 -0.2578 -0.1146
 3898TIP3    H135889   2.069   5.671  15.886 -0.2613 -2.8115  0.2232
 3898TIP3    H235890   2.164   5.599  15.792 -1.0245 -1.4137 -1.6956
 3899TIP3   OH235891   6.053   0.837  16.111  0.2455 -0.3535 -0.4480
 3899TIP3    H135892   5.983   0.894  16.080  1.8290  1.5086 -0.8444
 3899TIP3    H235893   6.058   0.854  16.205  2.0659  1.9399 -0.8468
 3900TIP3   OH235894   2.084   0.604  14.938 -0.3748 -0.0315  0.5385
 3900TIP3    H135895   2.164   0.608  14.991  1.0992 -0.4893 -1.5481
 3900TIP3    H235896   2.091   0.522  14.889 -1.2876  0.7279 -0.9275
 3901TIP3   OH235897   0.140   2.652  17.259 -0.1654 -0.2765  0.1750
 3901TIP3    H135898   0.070   2.587  17.257 -0.9884  0.5706 -1.7880
 3901TIP3    H235899   0.164   2.659  17.352 -1.7810 -1.5402  0.7376
 3902TIP3   OH235900   3.397   3.095  17.861  0.3171  0.2545  0.2640
 3902TIP3    H135901   3.302   3.094  17.852 -0.0044  0.2445  2.9111
 3902TIP3    H235902   3.416   3.025  17.924  2.0582  0.5288  0.0939
 3903TIP3   OH235903   3.489   1.318  17.614  0.3088  0.3367 -0.0033
 3903TIP3    H135904   3.572   1.316  17.662  0.6899 -0.4052 -0.6684
 3903TIP3    H235905   3.507   1.273  17.532  0.2249  3.3000 -1.7983
 3904TIP3   OH235906   6.416   3.122  17.525  0.6197  0.5961  0.4362
 3904TIP3    H135907   6.330   3.108  17.565  0.3413 -0.2589 -0.4495
 3904TIP3    H235908   6.468   3.047  17.553  0.6422  0.3693 -0.2136
 3905TIP3   OH235909   1.632   0.882  17.736  0.3741 -0.6199  0.3878
 3905TIP3    H135910   1.650   0.971  17.705 -2.6384  0.7428  2.1396
 3905TIP3    H235911   1.711   0.856  17.783  1.2868  1.1727 -0.0822
 3906TIP3   OH235912   0.514   4.367  17.561  0.4390 -0.0571  0.3606
 3906TIP3    H135913   0.449   4.355  17.630 -0.8210 -0.0624 -0.7773
 3906TIP3    H235914   0.531   4.461  17.558  0.3831 -0.0415  0.5731
 3907TIP3   OH235915   5.748   4.578  17.765 -0.0941 -0.1727 -0.2791
 3907TIP3    H135916   5.659   4.612  17.754  0.5034  1.4432 -0.4002
 3907TIP3    H235917   5.776   4.613  17.849  0.1559 -1.3731  0.1589
 3908TIP3   OH235918   3.331   0.236  16.087 -0.8599  0.1860  0.0471
 3908TIP3    H135919   3.304   0.146  16.106 -1.7850 -0.0205 -2.0159
 3908TIP3    H235920   3.424   0.230  16.069 -0.9235 -0.3633 -0.1184
 3909TIP3   OH235921   3.030   5.753  15.239 -0.5239  0.1527  0.0854
 3909TIP3    H135922   3.095   5.818  15.212 -1.0042 -0.0975 -1.7969
 3909TIP3    H235923   2.984   5.794  15.313  0.4980  1.1122  0.2077
 3910TIP3   OH235924   3.563   4.635  17.546  0.0327  0.0495  0.4145
 3910TIP3    H135925   3.495   4.691  17.583  0.1241 -0.3111  1.1451
 3910TIP3    H235926   3.543   4.632  17.453 -0.9785 -0.0699  0.6239
 3911TIP3   OH235927   4.479   4.515  16.432  0.0189 -0.5900 -0.2148
 3911TIP3    H135928   4.545   4.469  16.484  0.5829 -0.0148 -0.4043
 3911TIP3    H235929   4.467   4.461  16.354  1.3580  0.0306 -0.8772
 3912TIP3   OH235930   3.306   1.101  17.004 -0.1363 -0.0620  0.2526
 3912TIP3    H135931   3.286   1.058  17.087 -0.1028  0.0840  0.3376
 3912TIP3    H235932   3.236   1.073  16.944  0.3246 -0.8740  0.0757
 3913TIP3   OH235933   5.146   4.404  15.209  0.5725 -0.4125  0.0710
 3913TIP3    H135934   5.239   4.425  15.221  0.8016 -1.8818  1.1036
 3913TIP3    H235935   5.145   4.312  15.181 -0.6260 -1.0692  2.0727
 3914TIP3   OH235936   2.700   0.035  15.268 -0.0544 -0.1543  0.3219
 3914TIP3    H135937   2.771   0.078  15.316  0.4517  0.5854 -1.0237
 3914TIP3    H235938   2.689   0.089  15.190 -1.5399 -0.7439  0.0949
 3915TIP3   OH235939   0.457   4.985  15.394 -0.0829 -0.2565 -0.1643
 3915TIP3    H135940   0.371   5.001  15.432 -0.0444 -0.7304  0.1276
 3915TIP3    H235941   0.439   4.957  15.304 -0.3633 -2.5593  0.5632
 3916TIP3   OH235942   6.482   2.599  16.817 -0.2222 -0.1390 -0.3244
 3916TIP3    H135943   6.407   2.631  16.767 -1.7034  1.6042  2.7308
 3916TIP3    H235944   6.530   2.678  16.841  0.0366 -0.8192  1.5198
 3917TIP3   OH235945   0.940   5.847  17.920 -0.0975 -0.0416  0.3203
 3917TIP3    H135946   0.891   5.902  17.860 -1.5035 -0.4581  1.0264
 3917TIP3    H235947   1.007   5.904  17.957 -0.8845  0.9107  0.2876
 3918TIP3   OH235948   2.665   6.358  14.210  0.3975 -0.2725  0.1412
 3918TIP3    H135949   2.674   6.267  14.181 -1.0774 -0.3659 -0.1118
 3918TIP3    H235950   2.636   6.405  14.131  1.6954  0.5512  0.1184
 3919TIP3   OH235951   5.549   1.108  17.769 -0.5451  0.1891  0.2895
 3919TIP3    H135952   5.577   1.183  17.716  0.7171  0.1640  0.8650
 3919TIP3    H235953   5.603   1.035  17.737 -0.5396 -0.0728  0.8847
 3920TIP3   OH235954   2.371   4.003  16.457 -0.6362  0.1524 -0.3142
 3920TIP3    H135955   2.315   3.998  16.379  0.0737  1.5287 -0.9487
 3920TIP3    H235956   2.452   3.960  16.431 -0.4969  0.3650 -0.2284
 3921TIP3   OH235957   1.069   2.039  15.607  0.4937 -0.7925  0.3150
 3921TIP3    H135958   1.002   1.973  15.622  1.4436 -1.9941 -0.5783
 3921TIP3    H235959   1.041   2.084  15.527  0.4320 -0.8650  0.2963
 3922TIP3   OH235960   5.788   2.181  17.143 -0.0140 -0.1543  0.7202
 3922TIP3    H135961   5.822   2.125  17.074  0.7618  1.1807 -0.0344
 3922TIP3    H235962   5.812   2.136  17.224 -0.7347 -1.6256  0.1563
 3923TIP3   OH235963   5.746   1.591  17.257 -0.9502 -0.0383  1.1174
 3923TIP3    H135964   5.819   1.553  17.305  0.0996  1.6146  0.8806
 3923TIP3    H235965   5.699   1.515  17.223  0.7246 -1.1488  1.1516
 3924TIP3   OH235966   4.459   1.141  16.063 -0.3092  0.5205  0.1281
 3924TIP3    H135967   4.477   1.140  15.969 -0.5276 -2.5204  0.0178
 3924TIP3    H235968   4.535   1.097  16.102 -0.5597  1.1076  1.3063
 3925TIP3   OH235969   3.001   1.134  14.398 -0.2674 -0.1064  0.0088
 3925TIP3    H135970   3.073   1.100  14.451  1.4277  1.6671 -1.0295
 3925TIP3    H235971   3.001   1.079  14.320  3.0529  2.5045 -2.0844
 3926TIP3   OH235972   0.522   3.428  16.777 -0.0384 -0.0065  0.4622
 3926TIP3    H135973   0.609   3.441  16.738 -1.1723  1.7922 -1.7214
 3926TIP3    H235974   0.523   3.338  16.809  3.0516  0.3720  1.7713
 3927TIP3   OH235975   2.340   3.284  15.270  0.0829 -0.7473  0.0416
 3927TIP3    H135976   2.309   3.372  15.249  2.2196  0.0064 -0.2207
 3927TIP3    H235977   2.330   3.235  15.188  2.7519  0.4868 -1.1429
 3928TIP3   OH235978   1.884   5.545  15.530  0.6200 -0.0914  0.5138
 3928TIP3    H135979   1.804   5.593  15.547  0.4193 -0.6260  1.1379
 3928TIP3    H235980   1.905   5.503  15.613  1.4901 -0.0426  0.3312
 3929TIP3   OH235981   0.075   0.796  15.192  0.1405 -0.1428  0.0663
 3929TIP3    H135982   0.075   0.805  15.287  0.7465  1.7595 -0.0569
 3929TIP3    H235983  -0.015   0.772  15.170 -0.2545  0.3579  1.0708
 3930TIP3   OH235984   1.075   2.001  17.732  0.4479  0.3905  0.0844
 3930TIP3    H135985   1.159   2.038  17.757  1.4389 -1.0046 -1.0656
 3930TIP3    H235986   1.033   1.978  17.815  2.6514 -1.9936  0.6705
 3931TIP3   OH235987   4.873   2.296  16.861  0.3946 -0.4437  0.0907
 3931TIP3    H135988   4.866   2.231  16.930 -0.5200 -1.2626 -0.7313
 3931TIP3    H235989   4.912   2.372  16.903 -0.6099 -0.7353  1.6207
 3932TIP3   OH235990   2.635   4.414  17.080  0.2345 -0.8972 -0.4686
 3932TIP3    H135991   2.634   4.509  17.069  0.8309 -0.8070  0.1964
 3932TIP3    H235992   2.630   4.379  16.990 -1.0870 -0.2662 -0.6693
 3933TIP3   OH235993   6.698   0.956  14.452  0.1307  0.1116  0.5876
 3933TIP3    H135994   6.682   0.861  14.454  1.3255 -0.1041  0.7303
 3933TIP3    H235995   6.613   0.995  14.474 -0.0274 -0.9655  2.0294
 3934TIP3   OH235996   3.086   6.696  16.669 -0.5814  0.3238  0.2758
 3934TIP3    H135997   3.015   6.641  16.702 -0.5402 -0.4391 -0.8172
 3934TIP3    H235998   3.071   6.782  16.707  0.2773 -0.7844  3.3710
 3935TIP3   OH235999   6.634   4.867  17.038  0.5977 -0.7298  0.6622
 3935TIP3    H136000   6.718   4.902  17.070 -0.1871  1.5406  0.3541
 3935TIP3    H236001   6.630   4.893  16.946 -0.5670 -0.5897  0.7391
 3936TIP3   OH236002   1.592   6.676  15.709 -0.5133  0.2709 -0.1016
 3936TIP3    H136003   1.622   6.607  15.768  0.8020  0.1758 -0.8591
 3936TIP3    H236004   1.497   6.665  15.706 -0.3840 -1.1114  0.2851
 3937TIP3   OH236005   5.507   6.491  17.362 -0.0161  0.1506  0.2746
 3937TIP3    H136006   5.523   6.397  17.370 -2.4657 -0.4044 -0.4590
 3937TIP3    H236007   5.587   6.532  17.395  1.2661 -2.1744  0.2504
 3938TIP3   OH236008   1.845   4.519  16.048  0.3573 -0.0347 -0.2085
 3938TIP3    H136009   1.799   4.594  16.087 -0.0229  0.6931 -1.9636
 3938TIP3    H236010   1.834   4.449  16.112 -0.5888  0.9865  0.7974
 3939TIP3   OH236011   0.031   1.703  15.091 -0.0713 -0.1694 -0.0866
 3939TIP3    H136012  -0.055   1.743  15.103  0.5875  1.8830 -1.6094
 3939TIP3    H236013   0.048   1.709  14.997  2.3370  0.8411  0.3349
 3940TIP3   OH236014   2.292   0.719  17.858 -0.3479  0.0888  0.5002
 3940TIP3    H136015   2.351   0.755  17.924 -0.4144 -1.2567  1.3327
 3940TIP3    H236016   2.307   0.772  17.780  2.7565 -0.8739  0.3402
 3941TIP3   OH236017   0.204   0.068  17.434 -0.1597  0.2620  0.6364
 3941TIP3    H136018   0.248   0.119  17.366 -0.0087 -0.1284  0.4361
 3941TIP3    H236019   0.238  -0.021  17.422 -0.6270  0.0598  0.8028
 3942TIP3   OH236020   4.449   3.727  17.684 -0.4145  0.1715 -0.2463
 3942TIP3    H136021   4.377   3.700  17.627 -0.6602 -0.1070  0.1930
 3942TIP3    H236022   4.426   3.693  17.770  2.0084 -3.2767 -0.7238
 3943TIP3   OH236023   5.422   6.607  16.118 -0.0547 -0.2002  0.7483
 3943TIP3    H136024   5.478   6.638  16.189  0.6186  0.5717 -0.0762
 3943TIP3    H236025   5.484   6.569  16.055 -0.5303  0.0106  0.1475
 3944TIP3   OH236026   0.604   1.688  15.739  0.8093  0.2901 -0.0496
 3944TIP3    H136027   0.633   1.696  15.829 -0.3370  1.1656  0.2667
 3944TIP3    H236028   0.542   1.760  15.727  1.5414  0.6749 -1.7778
 3945TIP3   OH236029   2.124   5.770  17.648 -0.3269 -0.0694 -0.1875
 3945TIP3    H136030   2.137   5.715  17.725 -1.2035 -0.1001 -0.0473
 3945TIP3    H236031   2.030   5.789  17.647 -0.3805 -0.2900 -1.3943
 3946TIP3   OH236032   1.922   6.194  18.115 -0.3514  0.2302 -0.1179
 3946TIP3    H136033   1.879   6.111  18.132 -1.8880  1.3890  2.1411
 3946TIP3    H236034   2.013   6.171  18.095 -0.7472 -1.9659  0.4184
 3947TIP3   OH236035   3.353   2.003  18.018  0.0782 -0.3678 -0.5687
 3947TIP3    H136036   3.314   2.081  17.980  3.1355  1.7449  0.2068
 3947TIP3    H236037   3.280   1.953  18.053 -2.0085  2.2179 -0.9643
 3948TIP3   OH236038   6.193   3.030  17.168 -0.0588  0.1224 -0.2853
 3948TIP3    H136039   6.249   2.963  17.208  0.3419  2.2002  2.9826
 3948TIP3    H236040   6.251   3.076  17.107  0.4569 -0.6114 -0.3719
 3949TIP3   OH236041   2.401   6.229  14.638  0.6661 -0.2070  0.0733
 3949TIP3    H136042   2.453   6.276  14.573  0.3870 -0.5378 -0.3931
 3949TIP3    H236043   2.415   6.278  14.720  2.0992 -0.5699  0.0724
 3950TIP3   OH236044   2.948   2.784  17.736 -0.6033 -0.1508  0.1760
 3950TIP3    H136045   2.906   2.821  17.659 -0.9703  0.3725  0.6206
 3950TIP3    H236046   3.027   2.742  17.702 -0.5426  0.4335 -0.4356
 3951TIP3   OH236047   0.228   1.125  15.224 -0.2147  0.1927  0.4449
 3951TIP3    H136048   0.261   1.170  15.146  1.2297 -0.9468  0.3514
 3951TIP3    H236049   0.239   1.032  15.205 -2.2093 -0.2135  1.0212
 3952TIP3   OH236050   2.971   4.886  16.860 -0.0440  0.0685 -0.2241
 3952TIP3    H136051   2.895   4.867  16.804 -0.5962 -0.6865  0.7451
 3952TIP3    H236052   3.045   4.846  16.815 -0.5084 -0.6700 -0.3501
 3953TIP3   OH236053   1.433   5.342  15.962 -0.3452 -0.5404 -0.0450
 3953TIP3    H136054   1.465   5.377  15.879 -0.6151  0.2423  0.1659
 3953TIP3    H236055   1.511   5.334  16.017 -0.5812  2.7840  0.9881
 3954TIP3   OH236056   5.815   6.416  17.187  0.8732  0.1974 -0.0219
 3954TIP3    H136057   5.811   6.432  17.281  0.5817  2.5781 -0.3732
 3954TIP3    H236058   5.868   6.337  17.178  3.5753  1.6309  2.0255
 3955TIP3   OH236059   0.525   0.557  16.151  0.1074 -0.3920  0.4968
 3955TIP3    H136060   0.529   0.467  16.186  0.7376 -0.2940  0.6821
 3955TIP3    H236061   0.509   0.611  16.229  2.4528 -0.0769  0.8054
 3956TIP3   OH236062   0.830   2.404  16.197 -0.2789 -0.5118  0.1687
 3956TIP3    H136063   0.806   2.320  16.157  1.0070 -0.4884 -0.6776
 3956TIP3    H236064   0.818   2.468  16.128  0.1556 -0.2047  0.3743
 3957TIP3   OH236065   1.286   1.193  16.616  0.0033  0.2545 -0.2645
 3957TIP3    H136066   1.254   1.209  16.705 -3.4573  2.1453 -1.6321
 3957TIP3    H236067   1.275   1.099  16.603 -0.2491  0.0922  1.0136
 3958TIP3   OH236068   1.062   2.702  17.394  0.1951  0.1983 -0.4471
 3958TIP3    H136069   1.118   2.667  17.464  0.9101  0.6017 -0.8062
 3958TIP3    H236070   1.082   2.796  17.392 -1.2095  0.5290  0.0607
 3959TIP3   OH236071   5.579   2.684  15.629 -0.7186  0.2561 -0.1541
 3959TIP3    H136072   5.512   2.664  15.564  0.1123  0.2114 -1.0204
 3959TIP3    H236073   5.551   2.637  15.708 -0.9336 -0.9978 -0.9421
 3960TIP3   OH236074   6.012   3.627  17.248  0.2811 -0.2892 -0.0778
 3960TIP3    H136075   6.042   3.591  17.332 -0.6346  1.3396  1.0069
 3960TIP3    H236076   6.067   3.705  17.235 -0.5838  0.3062 -0.2266
 3961TIP3   OH236077   6.530   4.056  15.607 -0.2400 -0.4150  0.0348
 3961TIP3    H136078   6.574   4.138  15.588 -1.2901 -0.2592 -2.1513
 3961TIP3    H236079   6.572   3.992  15.549 -0.9669 -0.8758 -0.0075
 3962TIP3   OH236080   3.035   4.796  18.240  0.5412 -0.4406  0.2101
 3962TIP3    H136081   3.106   4.839  18.287 -0.0885 -1.0388  1.7924
 3962TIP3    H236082   3.005   4.861  18.177  1.6759  0.2560  0.3566
 3963TIP3   OH236083   5.937   4.066  16.359 -0.4886 -0.1046 -0.2111
 3963TIP3    H136084   5.944   3.990  16.416 -3.5270 -0.2927  0.0743
 3963TIP3    H236085   5.929   4.140  16.419 -1.1720 -0.0061 -0.4206
 3964TIP3   OH236086   3.543   0.224  17.152  0.0866  0.2755  0.1513
 3964TIP3    H136087   3.488   0.251  17.079  0.7911 -0.2780 -0.6057
 3964TIP3    H236088   3.569   0.135  17.131  1.5970  0.6578  0.2702
 3965TIP3   OH236089   3.343   3.768  16.421  0.1729  0.3248 -0.1696
 3965TIP3    H136090   3.350   3.725  16.336  2.0789  0.1659  0.0224
 3965TIP3    H236091   3.339   3.697  16.485  0.3867  0.4312 -0.0343
 3966TIP3   OH236092   5.832   1.896  16.397 -0.6431  0.3638 -0.1688
 3966TIP3    H136093   5.749   1.912  16.441 -0.6297 -1.6986  0.6966
 3966TIP3    H236094   5.896   1.947  16.447 -1.2363  1.3350 -0.3663
 3967TIP3   OH236095   3.914   0.127  17.680  0.0548 -0.6059 -0.5199
 3967TIP3    H136096   3.844   0.106  17.618 -0.0763  0.0438 -0.6023
 3967TIP3    H236097   3.971   0.050  17.679  0.5683 -0.2585 -2.1667
 3968TIP3   OH236098   0.717   0.673  17.551  0.1970  0.2847  0.1076
 3968TIP3    H136099   0.758   0.587  17.558  0.6190  0.4114 -0.6506
 3968TIP3    H236100   0.623   0.655  17.546  0.2275 -0.0738  0.7740
 3969TIP3   OH236101   0.681   6.162  14.389 -0.2361  0.0171 -0.3868
 3969TIP3    H136102   0.767   6.193  14.417  0.3965 -1.0838 -1.0350
 3969TIP3    H236103   0.635   6.142  14.470  0.5440 -0.4700 -0.0547
 3970TIP3   OH236104   2.481   3.551  17.817  0.1637 -0.6996 -0.2209
 3970TIP3    H136105   2.489   3.476  17.758 -1.6419 -0.8175 -0.3929
 3970TIP3    H236106   2.386   3.563  17.827  0.3640  2.0031 -0.7695
 3971TIP3   OH236107   2.732   1.888  16.569  0.5903  0.3727  0.6102
 3971TIP3    H136108   2.826   1.879  16.583  0.2107 -1.8018  2.1806
 3971TIP3    H236109   2.703   1.801  16.540 -1.3887 -0.0030  3.3670
 3972TIP3   OH236110   1.904   0.215  16.936  0.3239 -0.8691  0.2971
 3972TIP3    H136111   1.876   0.169  16.856 -1.3335  1.2280 -0.4285
 3972TIP3    H236112   1.825   0.258  16.968  1.6955  1.3384  0.9848
 3973TIP3   OH236113   5.314   1.026  17.050  0.0626  0.2598  0.4432
 3973TIP3    H136114   5.349   0.986  17.130  2.3694 -0.0219 -0.6237
 3973TIP3    H236115   5.306   0.953  16.988 -2.2392  0.3756  0.5185
 3974TIP3   OH236116   3.900   3.398  16.809  0.0110  0.1467  1.0200
 3974TIP3    H136117   3.849   3.479  16.805  0.3024  0.3392  1.1559
 3974TIP3    H236118   3.834   3.328  16.811 -0.2384  0.2727 -0.8910
 3975TIP3   OH236119   2.033   5.550  17.835 -0.4257  0.0297 -0.0270
 3975TIP3    H136120   2.073   5.609  17.899  1.7797 -0.3047 -1.0213
 3975TIP3    H236121   2.093   5.476  17.829 -2.4774 -1.7583  0.2122
 3976TIP3   OH236122   4.236   5.633  15.926 -0.8771  0.4429  0.5127
 3976TIP3    H136123   4.243   5.538  15.928 -1.9323  0.3500  2.1074
 3976TIP3    H236124   4.227   5.656  15.834  2.8810 -0.6639 -0.2954
 3977TIP3   OH236125   1.430   2.637  17.486 -0.5119  0.5189  0.1725
 3977TIP3    H136126   1.501   2.599  17.537 -0.2257  1.9589  0.8922
 3977TIP3    H236127   1.350   2.605  17.528 -0.2973  2.4472  2.2115
 3978TIP3   OH236128   2.473   5.099  16.665  0.2335  0.5825 -0.8792
 3978TIP3    H136129   2.491   5.187  16.631 -1.6327  0.7531 -1.5306
 3978TIP3    H236130   2.476   5.042  16.588  2.4082 -0.1312 -0.3215
 3979TIP3   OH236131   0.844   4.574  16.128 -0.2026  0.1443 -0.6392
 3979TIP3    H136132   0.784   4.648  16.117  0.3932  0.5729 -1.0937
 3979TIP3    H236133   0.931   4.614  16.132 -0.0076 -0.3687  1.2346
 3980TIP3   OH236134   3.458   5.698  14.055  0.0477  0.3656 -0.2911
 3980TIP3    H136135   3.369   5.732  14.045 -0.5998 -0.8356  1.0673
 3980TIP3    H236136   3.452   5.606  14.032  0.3253 -0.3757  2.2545
 3981TIP3   OH236137   4.902   0.682  14.757 -0.0633  0.1115 -0.0385
 3981TIP3    H136138   4.868   0.704  14.671  1.9211  0.6438 -0.7247
 3981TIP3    H236139   4.896   0.586  14.762  3.7676 -0.4502 -2.6212
 3982TIP3   OH236140   2.589   1.380  17.601 -0.7352 -0.1133  0.4785
 3982TIP3    H136141   2.640   1.459  17.617 -0.0213 -0.9872  2.9788
 3982TIP3    H236142   2.524   1.378  17.671 -0.9532 -1.5494  0.2683
 3983TIP3   OH236143   6.341   0.122  17.378 -0.0970 -0.6290  0.0873
 3983TIP3    H136144   6.431   0.106  17.351 -0.5218  0.2767 -2.0501
 3983TIP3    H236145   6.317   0.046  17.431  1.8039 -1.0145  0.4350
 3984TIP3   OH236146   3.703   4.107  17.940  0.0998  0.0734  0.4078
 3984TIP3    H136147   3.718   4.017  17.909 -1.4433  0.2098 -0.8644
 3984TIP3    H236148   3.632   4.140  17.884  1.7351  2.6768 -0.2887
 3985TIP3   OH236149   5.339   1.607  15.806 -0.0041  0.2836 -0.2462
 3985TIP3    H136150   5.313   1.620  15.897  0.6066  0.7871 -0.1386
 3985TIP3    H236151   5.347   1.695  15.770 -2.0814  0.0805 -1.3439
 3986TIP3   OH236152   4.010   1.924  17.662  0.1732  0.2644 -0.2220
 3986TIP3    H136153   4.004   1.932  17.567 -0.3136 -1.3094 -0.3433
 3986TIP3    H236154   3.920   1.937  17.693  0.2440  0.2740 -0.0165
 3987TIP3   OH236155   0.769   6.712  17.948  0.1735  0.0594 -0.7522
 3987TIP3    H136156   0.676   6.697  17.964  0.4910 -1.4953 -0.2166
 3987TIP3    H236157   0.810   6.626  17.962  1.5802  0.5329 -1.7871
 3988TIP3   OH236158   0.995   5.183  16.863  0.0365  0.4296  0.1719
 3988TIP3    H136159   1.009   5.091  16.886 -2.9249 -0.3644 -0.7644
 3988TIP3    H236160   0.904   5.200  16.886  0.5291  3.2076  0.4282
 3989TIP3   OH236161   2.526   3.406  15.404 -1.1080  0.2525 -0.2110
 3989TIP3    H136162   2.461   3.346  15.368 -0.3629 -0.5773 -0.2125
 3989TIP3    H236163   2.557   3.363  15.484 -2.2863  1.7737  1.1294
 3990TIP3   OH236164   0.361   6.295  17.671  0.3126  0.0975  0.3887
 3990TIP3    H136165   0.297   6.288  17.600 -1.0923 -0.0429  1.6185
 3990TIP3    H236166   0.351   6.385  17.703  1.4735  0.3977 -0.0606
 3991TIP3   OH236167   2.030   5.361  16.618  0.1876 -0.0946 -0.0172
 3991TIP3    H136168   2.059   5.312  16.694 -0.3159  0.1770  0.3560
 3991TIP3    H236169   1.939   5.333  16.606  0.0996  0.2695 -0.1933
 3992TIP3   OH236170   5.641   0.506  16.409  0.4646 -0.3489  0.3597
 3992TIP3    H136171   5.576   0.547  16.351 -1.0677 -1.8551  0.9173
 3992TIP3    H236172   5.709   0.572  16.420 -1.5516  1.7883  0.7075
 3993TIP3   OH236173   6.344   6.576  14.875  0.6638  0.3542 -0.0733
 3993TIP3    H136174   6.399   6.617  14.808 -0.0805  0.4622 -0.6186
 3993TIP3    H236175   6.402   6.512  14.917  1.0640  0.1133 -0.9742
 3994TIP3   OH236176   3.873   2.741  15.842  0.1413  0.1838  0.4958
 3994TIP3    H136177   3.950   2.715  15.791 -0.6913  2.1426 -1.9200
 3994TIP3    H236178   3.910   2.780  15.922  1.5784 -0.2539  0.0751
 3995TIP3   OH236179   2.971   6.277  14.363  0.2082 -0.2985 -0.1242
 3995TIP3    H136180   2.899   6.325  14.323  0.2460  1.5467  1.8754
 3995TIP3    H236181   2.942   6.186  14.365 -2.6781  0.5603  1.8213
 3996TIP3   OH236182   0.691   3.370  17.457 -0.7155  0.2483 -0.2585
 3996TIP3    H136183   0.715   3.461  17.474 -0.4331 -0.1673  1.8304
 3996TIP3    H236184   0.735   3.348  17.375 -0.4016  1.8376 -0.5396
 3997TIP3   OH236185   0.038   3.674  17.832 -0.3981 -0.2994 -0.3512
 3997TIP3    H136186  -0.007   3.757  17.815 -0.8957 -0.3717  0.5103
 3997TIP3    H236187   0.128   3.688  17.804 -0.6621  0.2734 -0.9264
 3998TIP3   OH236188   5.261   2.149  17.796 -0.4868  0.2761  0.5446
 3998TIP3    H136189   5.345   2.157  17.749 -0.9030  2.5609  0.0597
 3998TIP3    H236190   5.196   2.139  17.726 -0.6322 -2.2039  0.9439
 3999TIP3   OH236191   2.900   0.129  16.202 -0.1769 -0.1117  0.0926
 3999TIP3    H136192   2.990   0.146  16.230  0.0549 -0.4054 -0.4622
 3999TIP3    H236193   2.860   0.084  16.277 -0.0064  0.4447  0.5221
 4000TIP3   OH236194   0.312   6.479  18.106 -0.3731 -0.2357 -0.5601
 4000TIP3    H136195   0.386   6.531  18.076  0.5663 -0.5211  1.1050
 4000TIP3    H236196   0.259   6.462  18.028  0.5279  1.2422 -1.5109
 4001TIP3   OH236197   5.254   3.108  17.464  0.1266  0.1528  0.1098
 4001TIP3    H136198   5.213   3.172  17.522 -1.5878  0.0106 -0.8596
 4001TIP3    H236199   5.281   3.158  17.388  1.1021  0.1151  0.4204
 4002TIP3   OH236200   2.545   1.495  17.308  0.1425 -0.0885  0.2772
 4002TIP3    H136201   2.632   1.487  17.346 -0.2877 -1.0672  1.1194
 4002TIP3    H236202   2.525   1.408  17.275 -0.1561  0.3557 -0.7648
 4003TIP3   OH236203   6.650   2.235  15.434 -0.6104 -0.0908 -0.6222
 4003TIP3    H136204   6.723   2.263  15.489  0.6663  0.5215 -2.5332
 4003TIP3    H236205   6.632   2.310  15.378 -1.3873 -0.9315 -1.5267
 4004TIP3   OH236206   2.360   3.354  14.772 -0.2012  0.0251 -0.1724
 4004TIP3    H136207   2.364   3.268  14.730 -1.4405  0.8588 -2.1704
 4004TIP3    H236208   2.403   3.413  14.709  0.5926  0.9080  1.1408
 4005TIP3   OH236209   3.284   5.000  17.813  0.0958  0.2822 -0.4766
 4005TIP3    H136210   3.228   5.072  17.842 -0.0306  0.4355 -1.0898
 4005TIP3    H236211   3.268   4.930  17.877  1.2586  1.2507  0.9538
 4006TIP3   OH236212   3.074   5.676  15.591  0.1496 -0.3303 -0.5670
 4006TIP3    H136213   3.025   5.594  15.582 -0.0016 -0.3429  0.2803
 4006TIP3    H236214   3.166   5.650  15.584  0.1043 -0.5804 -0.2672
 4007TIP3   OH236215   1.537   3.279  17.038 -0.0638 -0.0480  0.4309
 4007TIP3    H136216   1.554   3.232  17.120  0.5905 -0.1845  0.2233
 4007TIP3    H236217   1.582   3.227  16.971 -0.4600  0.1474  0.0044
 4008TIP3   OH236218   2.114   3.850  14.973 -0.6427  0.0583  0.0935
 4008TIP3    H136219   2.149   3.882  15.057 -2.6627  1.0324  0.6187
 4008TIP3    H236220   2.188   3.859  14.912  0.3333  1.0865  1.3518
 4009TIP3   OH236221   1.087   3.083  16.223  0.3950 -0.3172 -0.4267
 4009TIP3    H136222   1.002   3.042  16.204  0.2651 -0.5309  0.5723
 4009TIP3    H236223   1.137   3.014  16.267  1.0035 -0.1079 -0.7818
 4010TIP3   OH236224   0.254   1.666  15.256  0.2415 -0.0314  0.4233
 4010TIP3    H136225   0.327   1.658  15.195  0.1001 -3.1713  0.5075
 4010TIP3    H236226   0.176   1.649  15.203 -0.1872  0.3667  0.9088
 4011TIP3   OH236227   3.266   3.478  17.114  0.5802  0.0010  0.0858
 4011TIP3    H136228   3.310   3.486  17.199  0.0113 -0.2666  0.4080
 4011TIP3    H236229   3.242   3.567  17.091 -1.0675 -0.1234  1.1782
 4012TIP3   OH236230   4.602   1.098  17.702  0.4209  0.1404  0.4113
 4012TIP3    H136231   4.538   1.145  17.649  1.4645  1.5811  0.3663
 4012TIP3    H236232   4.590   1.006  17.678 -1.0714  0.4514 -0.1705
 4013TIP3   OH236233   4.057   0.405  15.194 -0.1675 -0.2464 -0.4322
 4013TIP3    H136234   4.071   0.369  15.106 -0.0854  1.2651 -1.0752
 4013TIP3    H236235   4.125   0.471  15.204 -2.2432  2.1074 -0.7032
 4014TIP3   OH236236   2.445   6.671  14.776  0.7625  0.0269 -0.2792
 4014TIP3    H136237   2.510   6.601  14.766  1.5969  1.0516 -2.9121
 4014TIP3    H236238   2.480   6.726  14.846  1.0183 -1.1894  0.5838
 4015TIP3   OH236239   4.589   1.805  17.816  0.6876 -0.1405 -0.1990
 4015TIP3    H136240   4.627   1.797  17.904  0.9435  0.6663 -0.2288
 4015TIP3    H236241   4.520   1.870  17.826  1.1641  0.4612 -0.7316
 4016TIP3   OH236242   6.391   2.187  15.279 -0.3557 -0.4345 -0.4920
 4016TIP3    H136243   6.361   2.097  15.264  2.1607 -0.9978 -3.1033
 4016TIP3    H236244   6.477   2.190  15.238  0.7777  2.5103  1.7840
 4017TIP3   OH236245   2.964   1.881  18.287 -0.4686 -0.4662  0.0870
 4017TIP3    H136246   2.900   1.838  18.230  0.5725  1.7154 -2.9874
 4017TIP3    H236247   2.928   1.968  18.301  0.7958  0.0651  0.1000
 4018TIP3   OH236248   6.293   1.488  15.941  0.1097  0.0483  0.4882
 4018TIP3    H136249   6.239   1.460  16.015 -0.1187  0.0910  0.3384
 4018TIP3    H236250   6.349   1.557  15.977  0.7683 -0.6830  0.8875
 4019TIP3   OH236251   0.754   5.265  16.970  0.2595 -0.0727  0.4745
 4019TIP3    H136252   0.705   5.316  16.906 -2.5256 -1.0358  1.6988
 4019TIP3    H236253   0.687   5.223  17.024  2.3797 -3.6029  0.6744
 4020TIP3   OH236254   3.125   2.724  16.241 -0.2695  0.6364  0.2791
 4020TIP3    H136255   3.092   2.737  16.330 -1.2895  2.5486 -0.3155
 4020TIP3    H236256   3.089   2.640  16.214  0.0144  0.0489  1.6310
 4021TIP3   OH236257   3.146   6.172  17.759  0.0234  0.2949 -0.0091
 4021TIP3    H136258   3.069   6.185  17.814  0.1541 -2.2800  0.9098
 4021TIP3    H236259   3.216   6.220  17.804 -0.0222 -1.2390  1.8375
 4022TIP3   OH236260   1.951   5.392  14.593  0.0325  0.1371  0.7873
 4022TIP3    H136261   1.945   5.437  14.677 -0.4829  1.0322  0.2858
 4022TIP3    H236262   1.907   5.308  14.607 -0.7641  0.6116  1.1948
 4023TIP3   OH236263   3.864   4.059  16.065 -0.0680  0.1116 -0.0576
 4023TIP3    H136264   3.771   4.051  16.087 -0.3188  0.8968 -0.7595
 4023TIP3    H236265   3.895   4.133  16.117  0.1894 -0.2025  0.2385
 4024TIP3   OH236266   2.398   6.665  16.822  0.6531 -0.0738  0.7920
 4024TIP3    H136267   2.336   6.717  16.872  0.7336  1.1830 -0.3522
 4024TIP3    H236268   2.368   6.672  16.731  2.1830  0.1889  0.2716
 4025TIP3   OH236269   3.934   4.309  16.133  0.3537 -0.5694 -0.2226
 4025TIP3    H136270   3.919   4.390  16.182 -2.7279 -0.5787 -0.9396
 4025TIP3    H236271   3.915   4.333  16.042  2.2348 -1.4552 -0.8835
 4026TIP3   OH236272   0.948   0.779  17.006  0.7726 -0.0980 -0.1248
 4026TIP3    H136273   0.977   0.843  17.071  0.8714  1.2071 -1.3863
 4026TIP3    H236274   0.984   0.696  17.035 -2.7541 -0.5404  3.8729
 4027TIP3   OH236275   3.556   3.692  17.718  0.1961  0.0312  0.1290
 4027TIP3    H136276   3.537   3.751  17.792 -1.4061  0.0556 -0.2605
 4027TIP3    H236277   3.511   3.732  17.644  3.8404  1.4304 -1.5874
 4028TIP3   OH236278   1.838   0.031  16.740 -0.3399  0.2105 -0.2871
 4028TIP3    H136279   1.872  -0.043  16.791  1.7553  0.4296 -1.2498
 4028TIP3    H236280   1.886   0.026  16.657  0.7319  3.2972  0.0390
 4029TIP3   OH236281   0.613   5.505  15.637 -0.0130 -0.5489  0.4130
 4029TIP3    H136282   0.669   5.446  15.588 -0.5252 -1.8333  1.3019
 4029TIP3    H236283   0.672   5.554  15.694  0.4095 -0.2378 -0.2855
 4030TIP3   OH236284   4.286   3.949  17.082 -0.3596  0.1766  0.6736
 4030TIP3    H136285   4.301   3.955  17.176  1.1950  0.8559  0.4115
 4030TIP3    H236286   4.314   3.860  17.060 -2.7581 -0.7878  1.1307
 4031TIP3   OH236287   1.644   2.515  14.992  0.0816 -0.4819  0.6677
 4031TIP3    H136288   1.721   2.466  15.024 -1.6859 -2.8011  1.6820
 4031TIP3    H236289   1.611   2.462  14.919 -0.2871  0.7847 -0.1173
 4032TIP3   OH236290   3.071   4.393  15.193  0.1651 -0.0262 -0.2908
 4032TIP3    H136291   3.141   4.333  15.169  3.4767  3.2153  0.4217
 4032TIP3    H236292   3.073   4.462  15.127 -2.4240  0.2194 -0.2339
 4033TIP3   OH236293   1.971   3.613  17.114 -0.0581 -0.6300  0.6915
 4033TIP3    H136294   1.893   3.611  17.059  0.5020 -0.5034 -0.1180
 4033TIP3    H236295   2.041   3.639  17.055  0.7263 -1.4415  1.2461
 4034TIP3   OH236296   1.097   2.142  15.865  0.0150  0.0683 -0.3705
 4034TIP3    H136297   1.117   2.090  15.787  0.7760  0.1395 -0.2380
 4034TIP3    H236298   1.125   2.086  15.938  0.9034  0.6658 -0.2296
 4035TIP3   OH236299   0.417   4.652  15.483 -0.0089  0.4847 -0.1048
 4035TIP3    H136300   0.380   4.719  15.540 -1.6795 -0.3851 -0.1198
 4035TIP3    H236301   0.380   4.670  15.397  0.4808  0.2532 -0.3703
 4036TIP3   OH236302   2.814   1.699  18.131 -0.3288  0.0500  0.3699
 4036TIP3    H136303   2.798   1.615  18.174 -1.9282 -0.0808 -0.4217
 4036TIP3    H236304   2.739   1.711  18.073 -0.1580  2.0541  0.5013
 4037TIP3   OH236305   0.801   3.560  16.039 -0.2785 -0.1504 -0.3149
 4037TIP3    H136306   0.841   3.628  15.985  2.2635 -0.4583  1.0513
 4037TIP3    H236307   0.745   3.607  16.100  0.4758  0.6298 -0.2081
 4038TIP3   OH236308   6.427   6.010  16.115  0.1395  0.2730  0.5501
 4038TIP3    H136309   6.494   6.035  16.178 -0.7434  1.8052  0.9184
 4038TIP3    H236310   6.354   6.068  16.133 -0.7442 -0.3641 -0.8189
 4039TIP3   OH236311   3.375   3.182  15.196 -0.1626 -0.2646  0.2244
 4039TIP3    H136312   3.324   3.148  15.122  0.2436  0.2042 -0.2831
 4039TIP3    H236313   3.314   3.181  15.270 -0.7140 -0.3257 -0.2227
 4040TIP3   OH236314   3.548   0.858  17.511  0.0374  0.4928  0.0077
 4040TIP3    H136315   3.538   0.774  17.556  0.4713 -0.5655 -1.7674
 4040TIP3    H236316   3.590   0.915  17.576  0.7375 -0.9865  0.9077
 4041TIP3   OH236317   5.409   5.301  15.297 -0.4740 -0.1458  0.2240
 4041TIP3    H136318   5.504   5.296  15.301 -0.4972 -1.6486 -0.4551
 4041TIP3    H236319   5.381   5.309  15.388  0.3207  1.5094  0.3534
 4042TIP3   OH236320   3.817   5.992  16.179 -0.0199 -0.3792  0.0924
 4042TIP3    H136321   3.879   5.946  16.236 -0.9939  0.0988  1.6183
 4042TIP3    H236322   3.865   6.070  16.150  0.6892 -0.9269 -0.2219
 4043TIP3   OH236323   0.869   2.473  16.775  0.1848 -0.6168 -0.5249
 4043TIP3    H136324   0.820   2.410  16.828  0.3968 -1.1374 -0.9329
 4043TIP3    H236325   0.956   2.475  16.814  0.4080 -1.1675 -0.9638
 4044TIP3   OH236326   4.854   6.116  17.203  0.0618  0.0625  0.2835
 4044TIP3    H136327   4.804   6.113  17.284 -1.3207  1.3378 -0.4531
 4044TIP3    H236328   4.945   6.108  17.230 -0.4486 -1.0410  1.8016
 4045TIP3   OH236329   4.924   4.173  15.831 -0.1091 -0.2197 -0.2579
 4045TIP3    H136330   4.839   4.166  15.787  0.3120 -0.8374 -0.9970
 4045TIP3    H236331   4.906   4.146  15.921 -1.1540  1.8999  0.2204
 4046TIP3   OH236332   0.749   5.267  16.643  0.2437  0.4766  0.3578
 4046TIP3    H136333   0.775   5.175  16.633  1.3991  0.9655 -1.7224
 4046TIP3    H236334   0.822   5.317  16.605 -1.0849  2.1894 -0.0667
 4047TIP3   OH236335   1.596   5.103  16.895  0.4454  0.0263 -0.0040
 4047TIP3    H136336   1.645   5.112  16.977  1.0070  1.9039 -0.4949
 4047TIP3    H236337   1.526   5.041  16.915  1.0368 -0.1426  1.6607
 4048TIP3   OH236338   4.958   0.653  15.611  0.0512  0.3642  0.1434
 4048TIP3    H136339   4.906   0.694  15.680  0.3997 -0.3532  0.8523
 4048TIP3    H236340   5.017   0.594  15.658  0.4733  0.0556 -0.7562
 4049TIP3   OH236341   4.300   0.566  15.210  0.0248 -0.4101  0.0715
 4049TIP3    H136342   4.359   0.559  15.136 -0.4855 -2.0285 -0.2228
 4049TIP3    H236343   4.348   0.529  15.284  0.0784  0.0698  0.2859
 4050TIP3   OH236344   0.115   5.988  14.950 -0.1572 -0.6006  0.3360
 4050TIP3    H136345   0.076   5.904  14.927  0.8164 -1.1162  0.5382
 4050TIP3    H236346   0.137   5.979  15.043 -2.2303  0.7423  1.0303
 4051TIP3   OH236347   6.513   2.383  17.963 -0.3659 -0.2699  0.4246
 4051TIP3    H136348   6.488   2.396  17.872 -0.4290 -0.4564  0.4155
 4051TIP3    H236349   6.609   2.388  17.962 -0.2574 -1.8794  0.0848
 4052TIP3   OH236350   1.478   0.102  15.042  0.5428 -0.0119 -0.0097
 4052TIP3    H136351   1.453   0.124  14.952 -0.0947 -1.3734 -0.1878
 4052TIP3    H236352   1.554   0.045  15.033  1.3636  0.9797  0.3945
 4053TIP3   OH236353   4.816   0.780  14.236 -0.1775  0.1139 -0.7836
 4053TIP3    H136354   4.803   0.869  14.270 -0.2248 -0.4127  0.6536
 4053TIP3    H236355   4.808   0.789  14.141  0.2251  1.7119 -0.6935
 4054TIP3   OH236356   3.876   5.582  14.949  0.4065  0.1011 -0.2586
 4054TIP3    H136357   3.955   5.544  14.911  0.6391 -0.2227  0.5423
 4054TIP3    H236358   3.809   5.567  14.882  0.8337 -0.3764 -0.5932
 4055TIP3   OH236359   5.658   0.732  15.988 -0.9285 -0.0535  0.0367
 4055TIP3    H136360   5.592   0.723  15.920 -1.5610  0.6249  0.5311
 4055TIP3    H236361   5.658   0.648  16.034 -1.3218 -0.1164 -0.0779
 4056TIP3   OH236362   3.058   4.629  16.218 -0.0488 -0.0602  0.2165
 4056TIP3    H136363   2.977   4.655  16.261 -0.7104 -0.4632 -0.7541
 4056TIP3    H236364   3.061   4.534  16.226 -0.4766 -0.2111 -1.0792
 4057TIP3   OH236365   1.409   4.926  16.998 -0.1199  0.1626 -0.3728
 4057TIP3    H136366   1.332   4.935  17.053 -1.0081 -1.4089 -1.2869
 4057TIP3    H236367   1.470   4.871  17.048 -0.1963  0.2041 -0.2375
 4058TIP3   OH236368   6.617   1.230  14.595 -0.0874  0.0601  0.4081
 4058TIP3    H136369   6.560   1.268  14.662  1.1905  1.8827  0.5003
 4058TIP3    H236370   6.629   1.300  14.531 -1.5098 -1.7012 -1.9761
 4059TIP3   OH236371   5.742   4.501  17.186 -0.1403 -0.2316  0.1289
 4059TIP3    H136372   5.661   4.519  17.139  0.4495  0.1130 -0.7892
 4059TIP3    H236373   5.804   4.476  17.118  0.2097 -1.6634  0.9367
 4060TIP3   OH236374   1.957   1.657  14.183 -0.3700 -0.2132  0.3682
 4060TIP3    H136375   2.024   1.707  14.137  0.5294 -2.1542 -0.5776
 4060TIP3    H236376   2.000   1.573  14.203 -1.8232 -0.6746  1.7674
 4061TIP3   OH236377   3.733   1.021  14.317  0.0319  0.0256 -0.4476
 4061TIP3    H136378   3.709   1.097  14.370 -1.2539 -1.0077  0.5169
 4061TIP3    H236379   3.826   1.008  14.334 -0.2307  0.0431  1.1831
 4062TIP3   OH236380   5.419   4.410  16.679 -0.2056 -0.3836 -0.2096
 4062TIP3    H136381   5.439   4.331  16.629  1.7881 -0.8662  1.2201
 4062TIP3    H236382   5.437   4.386  16.770 -1.7396  1.0637  0.5459
 4063TIP3   OH236383   0.312   2.123  17.363  0.1800 -0.1544  0.0878
 4063TIP3    H136384   0.398   2.162  17.352  0.1036  0.4724  1.4980
 4063TIP3    H236385   0.319   2.069  17.442 -0.1111 -1.9133 -1.0472
 4064TIP3   OH236386   6.282   3.165  15.467  0.3520 -0.4640  0.0335
 4064TIP3    H136387   6.281   3.217  15.547  0.9662 -1.4514  0.6840
 4064TIP3    H236388   6.374   3.163  15.440  0.2177 -0.5516 -0.4409
 4065TIP3   OH236389   6.147   6.559  14.463  0.1550 -0.6110  0.3860
 4065TIP3    H136390   6.124   6.650  14.445 -1.4144 -0.9463  0.5088
 4065TIP3    H236391   6.096   6.508  14.399  0.6654 -1.4170  0.6073
 4066TIP3   OH236392   4.201   6.683  15.948  0.4620  0.3628  0.4327
 4066TIP3    H136393   4.171   6.764  15.907 -0.9800 -0.1579  0.3905
 4066TIP3    H236394   4.148   6.675  16.027  0.3125 -0.7258  0.2397
 4067TIP3   OH236395   3.074   6.673  17.986  0.6605 -0.4337  0.0821
 4067TIP3    H136396   3.027   6.738  18.038  3.2491 -0.0115  2.1096
 4067TIP3    H236397   3.025   6.592  18.000  0.9139 -0.2159  2.8430
 4068TIP3   OH236398   6.210   0.512  15.171  0.7616 -0.2495  0.4102
 4068TIP3    H136399   6.274   0.536  15.237 -0.2329  1.6307  0.7824
 4068TIP3    H236400   6.259   0.508  15.089  1.5956 -0.3411  0.9069
 4069TIP3   OH236401   1.153   4.591  15.880  0.3428 -0.2477 -0.5278
 4069TIP3    H136402   1.192   4.599  15.793  2.3879  0.3162  0.3749
 4069TIP3    H236403   1.188   4.509  15.915 -2.0992 -1.5542 -0.9427
 4070TIP3   OH236404   1.106   1.283  17.362 -0.5705 -0.2346 -0.2740
 4070TIP3    H136405   1.195   1.314  17.349  0.1058 -0.8156  2.3628
 4070TIP3    H236406   1.103   1.199  17.316 -0.1826  0.3940 -1.4670
 4071TIP3   OH236407   3.450   4.740  16.809  0.2607  0.1873 -0.3588
 4071TIP3    H136408   3.517   4.729  16.877 -0.3652  0.8042  0.3810
 4071TIP3    H236409   3.464   4.666  16.750  2.3190  0.8967 -0.8604
 4072TIP3   OH236410   4.069   3.516  16.086  0.0294 -0.0765 -0.2618
 4072TIP3    H136411   4.133   3.529  16.156  0.0127 -0.1555 -0.2311
 4072TIP3    H236412   4.013   3.593  16.090 -1.6247 -1.2521  1.5761
 4073TIP3   OH236413   0.355   4.149  17.349 -0.4591  0.4446  0.3251
 4073TIP3    H136414   0.441   4.183  17.373 -0.4626  2.6132 -2.2625
 4073TIP3    H236415   0.359   4.136  17.254 -2.2200 -1.9098  0.4732
 4074TIP3   OH236416   2.928   3.236  15.679 -0.7699  0.2801 -0.3332
 4074TIP3    H136417   2.949   3.241  15.773  2.5811  1.0591 -0.9912
 4074TIP3    H236418   2.916   3.327  15.653  2.4234  0.5531 -1.3136
 4075TIP3   OH236419   1.543   2.970  16.351  0.3353 -0.0782 -0.5679
 4075TIP3    H136420   1.528   2.905  16.420 -1.1946 -0.4750 -1.2337
 4075TIP3    H236421   1.588   3.042  16.395  1.3607 -1.2389  0.3574
 4076TIP3   OH236422   5.274   5.977  17.732  0.5276 -0.7436  0.4205
 4076TIP3    H136423   5.261   6.042  17.664  3.5865 -0.2107  0.2075
 4076TIP3    H236424   5.209   5.910  17.714 -2.7546  2.1186  0.6371
 4077TIP3   OH236425   2.821   0.823  16.915 -0.4286  0.2567 -0.8849
 4077TIP3    H136426   2.830   0.784  17.001 -0.2083  0.2042 -0.9319
 4077TIP3    H236427   2.756   0.769  16.870 -0.5779  0.3125 -0.7368
 4078TIP3   OH236428   6.689   1.375  17.586  0.1960 -0.0836  0.0503
 4078TIP3    H136429   6.707   1.462  17.550 -0.1501 -0.4252 -0.9987
 4078TIP3    H236430   6.765   1.323  17.561 -0.3545 -0.4987 -0.8216
 4079TIP3   OH236431   5.914   1.364  16.374  0.2307  0.2026  0.1648
 4079TIP3    H136432   5.910   1.460  16.374  1.8636  0.2897  0.7623
 4079TIP3    H236433   5.841   1.338  16.318 -0.4946  1.7736  0.3168
 4080TIP3   OH236434   0.095   1.815  17.151  0.5937  0.0407 -0.2304
 4080TIP3    H136435   0.040   1.754  17.199  0.4385  0.4142  0.0731
 4080TIP3    H236436   0.144   1.862  17.219  2.1262 -1.0633 -0.5311
 4081TIP3   OH236437   5.786   3.786  17.380  0.3002  0.6329  0.9903
 4081TIP3    H136438   5.703   3.809  17.338  0.4335 -0.2972  0.1499
 4081TIP3    H236439   5.827   3.725  17.318  0.8777 -0.1686  2.1259
 4082TIP3   OH236440   2.607   3.392  17.313  0.1091  0.3701 -0.0680
 4082TIP3    H136441   2.602   3.296  17.322  0.7484  0.5333  2.6782
 4082TIP3    H236442   2.516   3.420  17.311 -0.0936 -0.2106  0.5781
 4083TIP3   OH236443   5.241   2.630  16.278 -0.0646 -0.5389  0.2642
 4083TIP3    H136444   5.235   2.623  16.374 -1.9230 -1.0249  0.1387
 4083TIP3    H236445   5.188   2.706  16.256  0.6242 -0.2319 -0.3875
 4084TIP3   OH236446   6.204   0.394  16.285 -0.3674 -0.1622  0.2844
 4084TIP3    H136447   6.143   0.378  16.214 -0.4154  0.1498  0.2548
 4084TIP3    H236448   6.208   0.489  16.293  1.8253 -0.0542 -1.1951
 4085TIP3   OH236449   4.741   5.823  17.341  0.4283 -0.4868  0.1206
 4085TIP3    H136450   4.831   5.793  17.351  1.0246  0.8862 -0.8091
 4085TIP3    H236451   4.743   5.915  17.367 -0.6389 -0.3590 -0.1788
 4086TIP3   OH236452   0.466   6.580  17.898 -0.0412  0.2819  0.1326
 4086TIP3    H136453   0.532   6.520  17.862 -0.2093 -0.6587  1.3164
 4086TIP3    H236454   0.399   6.585  17.830  0.0350 -0.7958 -0.0469
 4087TIP3   OH236455   6.145   3.873  17.178 -0.2059 -0.1717  0.1588
 4087TIP3    H136456   6.174   3.945  17.234 -0.6837  0.6441 -0.6122
 4087TIP3    H236457   6.137   3.912  17.091 -0.3091 -1.2040 -0.3141
 4088TIP3   OH236458   1.237   5.342  17.410  0.2982  0.7037  0.9657
 4088TIP3    H136459   1.149   5.337  17.372  1.5133 -1.0736 -1.9929
 4088TIP3    H236460   1.284   5.402  17.353  2.1147 -1.7607 -0.3173
 4089TIP3   OH236461   2.146   6.141  17.237  0.3059 -0.5715  0.1843
 4089TIP3    H136462   2.058   6.177  17.251  1.0194  1.1991  0.3203
 4089TIP3    H236463   2.131   6.063  17.183 -1.4612 -1.1278  1.3826
 4090TIP3   OH236464   0.073   2.631  18.067 -0.1157 -0.1101  0.0700
 4090TIP3    H136465   0.134   2.697  18.034 -0.1651 -0.2828 -0.3762
 4090TIP3    H236466   0.104   2.611  18.155  0.2840  0.0332 -0.0363
 4091TIP3   OH236467   0.958   1.049  14.597  0.2951  0.4849  0.5804
 4091TIP3    H136468   0.942   0.971  14.543 -0.0941  0.7085  0.3663
 4091TIP3    H236469   1.053   1.052  14.608  0.5189  1.1288 -1.1658
 4092TIP3   OH236470   3.146   2.291  15.917 -0.4419  0.5745  1.0274
 4092TIP3    H136471   3.205   2.319  15.847 -0.8273  1.3363  0.9927
 4092TIP3    H236472   3.201   2.242  15.977 -0.0983 -0.0878  0.1976
 4093TIP3   OH236473   2.068   6.384  15.317  0.0691 -0.0721  0.1433
 4093TIP3    H136474   2.009   6.458  15.334  0.5583  0.4900 -0.5582
 4093TIP3    H236475   2.152   6.413  15.353  0.1529 -0.4670  0.2612
 4094TIP3   OH236476   3.247   1.197  16.282  0.6130  0.4284  0.4231
 4094TIP3    H136477   3.237   1.231  16.371 -2.2860  0.5434  0.1469
 4094TIP3    H236478   3.259   1.103  16.294 -2.5582 -0.0089  0.9688
 4095TIP3   OH236479   3.988   3.908  15.859 -0.3924 -0.2824  0.0231
 4095TIP3    H136480   3.935   3.971  15.909  1.0120 -0.5118  1.9284
 4095TIP3    H236481   3.946   3.824  15.874 -0.6807 -0.1847 -0.2245
 4096TIP3   OH236482   2.788   2.126  18.169 -0.0004  0.4606 -0.5352
 4096TIP3    H136483   2.729   2.185  18.124  1.5652  2.0134 -0.6480
 4096TIP3    H236484   2.869   2.176  18.180  1.9816 -2.1682 -2.0851
 4097TIP3   OH236485   4.586   4.674  16.747 -0.0771 -0.1449  0.1458
 4097TIP3    H136486   4.585   4.716  16.833  0.6340  0.4803 -0.1401
 4097TIP3    H236487   4.665   4.620  16.748 -0.1955 -0.3215 -0.0300
 4098TIP3   OH236488   0.505   5.949  18.094 -0.2015  0.1467  0.1373
 4098TIP3    H136489   0.559   6.019  18.057  0.0812 -0.7004 -1.1328
 4098TIP3    H236490   0.443   5.994  18.151 -0.4197  1.5049 -1.1086
 4099TIP3   OH236491   5.182   6.697  16.539 -0.4052  0.2894  0.0972
 4099TIP3    H136492   5.168   6.702  16.633  0.2980 -0.3758  0.2473
 4099TIP3    H236493   5.095   6.687  16.501 -0.5582 -1.5572  0.8349
 4100TIP3   OH236494   1.586   0.212  16.291  0.0157  0.1402  0.1083
 4100TIP3    H136495   1.591   0.179  16.201 -0.6766  1.9215 -0.6365
 4100TIP3    H236496   1.648   0.285  16.293  0.5400 -0.3080  1.3046
 4101TIP3   OH236497   0.699   0.279  17.181  0.1763  0.4793 -0.0621
 4101TIP3    H136498   0.762   0.294  17.111 -0.2344 -0.2038 -0.5811
 4101TIP3    H236499   0.741   0.214  17.238  0.1166  0.3499 -0.1686
 4102TIP3   OH236500   4.576   5.253  16.092  0.0763 -0.0868  0.2603
 4102TIP3    H136501   4.539   5.330  16.135 -0.2924 -0.2298  0.2010
 4102TIP3    H236502   4.561   5.182  16.154 -0.7117 -0.3487 -0.2227
 4103TIP3   OH236503   5.916   0.447  17.194  0.6088  0.1146 -0.2110
 4103TIP3    H136504   5.896   0.496  17.273 -0.2196 -1.2775  0.4577
 4103TIP3    H236505   5.927   0.357  17.223 -0.0998 -0.4945 -1.7270
 4104TIP3   OH236506   2.179   2.252  14.553  0.3948  0.1892  0.0188
 4104TIP3    H136507   2.128   2.172  14.565  1.3585 -0.4238  0.1906
 4104TIP3    H236508   2.199   2.255  14.460  0.5084  0.1223  0.0395
 4105TIP3   OH236509   4.006   5.738  18.042 -0.1860 -0.0082  0.0758
 4105TIP3    H136510   4.015   5.720  18.136  2.9506 -2.8968 -0.5584
 4105TIP3    H236511   3.962   5.660  18.007 -0.9583  0.8559 -0.9315
 4106TIP3   OH236512   0.398   2.928  15.197  0.4267 -0.3876  0.0686
 4106TIP3    H136513   0.483   2.906  15.159  0.7892  0.3247  0.4483
 4106TIP3    H236514   0.419   2.963  15.284 -0.2898 -0.6408  0.3543
 4107TIP3   OH236515   4.722   1.857  16.661  0.4049 -0.1886 -0.0279
 4107TIP3    H136516   4.766   1.877  16.744  1.1269 -2.8004  0.3409
 4107TIP3    H236517   4.659   1.789  16.684 -0.9637  0.6038 -1.2839
 4108TIP3   OH236518   4.508   5.807  14.303 -0.3026 -0.3023  0.0419
 4108TIP3    H136519   4.484   5.868  14.233  2.1718  2.1276  1.1406
 4108TIP3    H236520   4.424   5.774  14.334 -1.6458  0.8479 -2.0475
 4109TIP3   OH236521   5.534   0.593  17.858 -0.0144 -0.0373  0.0596
 4109TIP3    H136522   5.605   0.632  17.808 -0.5156  0.6583 -0.1237
 4109TIP3    H236523   5.480   0.667  17.886 -1.2465 -0.6171 -0.7052
 4110TIP3   OH236524   5.890   6.435  17.506  0.7280 -0.3248 -0.2625
 4110TIP3    H136525   5.940   6.512  17.533 -0.8794  0.8123 -0.4008
 4110TIP3    H236526   5.924   6.364  17.560  0.2198  1.0986  2.0478
 4111TIP3   OH236527   0.073   4.559  15.088  0.1123  0.4666 -0.1790
 4111TIP3    H136528   0.041   4.477  15.052 -0.2297  0.6138 -0.2171
 4111TIP3    H236529   0.095   4.612  15.012  0.8390  0.2212 -0.1521
 4112TIP3   OH236530   2.815   0.862  17.376  0.2710 -0.2459 -0.0034
 4112TIP3    H136531   2.836   0.955  17.386 -0.2379 -0.2352  1.2027
 4112TIP3    H236532   2.850   0.838  17.290  2.8475  0.4091  0.7634
 4113TIP3   OH236533   6.036   4.104  15.351  0.4538 -0.3122  0.2910
 4113TIP3    H136534   6.112   4.131  15.299  2.3919  1.7262  3.8008
 4113TIP3    H236535   5.981   4.182  15.354  0.5375 -0.2842  1.4756
 4114TIP3   OH236536   5.337   4.266  15.427 -0.4672  0.3179  0.1039
 4114TIP3    H136537   5.367   4.323  15.356 -1.3273  0.1813 -0.3785
 4114TIP3    H236538   5.319   4.182  15.385  0.1343 -0.1170  0.6950
 4115TIP3   OH236539   0.745   5.745  17.389 -0.4788  0.0922 -0.4702
 4115TIP3    H136540   0.832   5.722  17.420  0.2780  0.7458 -2.0189
 4115TIP3    H236541   0.714   5.667  17.342 -0.8800 -0.2514  0.3427
 4116TIP3   OH236542   4.007   6.506  16.768 -0.1352  0.5347 -0.0343
 4116TIP3    H136543   4.012   6.454  16.688 -1.4412  1.1072 -0.5271
 4116TIP3    H236544   3.991   6.596  16.737  0.7263  1.0093  0.8380
 4117TIP3   OH236545   6.636   2.825  17.236  0.3590  0.2314  0.6050
 4117TIP3    H136546   6.628   2.829  17.141  1.1251 -0.2238  0.5126
 4117TIP3    H236547   6.723   2.788  17.251 -0.0342 -0.3735  1.4744
 4118TIP3   OH236548   3.122   0.453  14.331  0.3620  0.2851 -0.1236
 4118TIP3    H136549   3.079   0.530  14.294 -1.4668 -0.4148  0.3958
 4118TIP3    H236550   3.167   0.413  14.257  1.7568  2.0535 -0.3095
 4119TIP3   OH236551   3.411   5.878  15.123 -0.0512  0.0591 -0.4482
 4119TIP3    H136552   3.416   5.813  15.054 -0.5014  1.4508 -1.8564
 4119TIP3    H236553   3.318   5.899  15.130 -0.3657 -1.7059  2.2585
 4120TIP3   OH236554   0.726   5.605  15.290  0.0824  0.7599  0.2207
 4120TIP3    H136555   0.819   5.605  15.311  0.1240 -1.7737  0.2328
 4120TIP3    H236556   0.718   5.552  15.211 -1.4978 -0.3169  1.0427
 4121TIP3   OH236557   3.352   1.010  17.616  0.0915  0.3342 -0.2509
 4121TIP3    H136558   3.413   1.022  17.543  1.4471 -0.3829  0.7151
 4121TIP3    H236559   3.273   1.056  17.588  0.8530  0.8049 -1.8031
 4122TIP3   OH236560   0.663   0.075  15.114 -0.2916 -0.0071  0.3791
 4122TIP3    H136561   0.736   0.073  15.053  0.2057  0.4900  0.9477
 4122TIP3    H236562   0.662  -0.013  15.153 -0.7695 -0.4103 -0.5028
 4123TIP3   OH236563   3.825   2.863  17.900 -0.8320 -0.4315  0.4113
 4123TIP3    H136564   3.793   2.912  17.825  1.5468  1.7391  0.6875
 4123TIP3    H236565   3.864   2.784  17.862 -0.9143 -0.0513 -0.4929
 4124TIP3   OH236566   3.420   0.770  14.976  0.2694 -0.2313 -0.3291
 4124TIP3    H136567   3.367   0.796  14.900  0.6125 -2.9680 -1.6366
 4124TIP3    H236568   3.356   0.742  15.041  0.0291  0.3868 -0.2879
 4125TIP3   OH236569   5.447   2.456  17.363  0.4535  0.0757 -0.0228
 4125TIP3    H136570   5.372   2.481  17.417  0.0975  0.0968 -0.5196
 4125TIP3    H236571   5.502   2.534  17.361  0.9259 -0.2080  1.0482
 4126TIP3   OH236572   4.135   0.834  17.417 -0.6865 -0.5473  0.1555
 4126TIP3    H136573   4.089   0.918  17.417  1.4030  0.6821 -0.1642
 4126TIP3    H236574   4.155   0.817  17.509 -1.0423 -0.6715  0.2120
 4127TIP3   OH236575   4.989   1.800  15.302  0.0095 -0.3376  0.0692
 4127TIP3    H136576   5.069   1.841  15.270 -0.5197 -0.0558 -0.9157
 4127TIP3    H236577   4.920   1.831  15.243 -0.5642 -1.8513 -0.0934
 4128TIP3   OH236578   3.511   0.506  16.227 -0.3566  0.2620 -0.0474
 4128TIP3    H136579   3.421   0.526  16.201 -0.7906  0.9389  1.7874
 4128TIP3    H236580   3.548   0.458  16.153 -2.8797 -1.9427 -0.0261
 4129TIP3   OH236581   5.011   5.759  17.362  0.5979 -0.2504 -0.1524
 4129TIP3    H136582   5.072   5.831  17.348  0.6657 -0.4360 -0.8819
 4129TIP3    H236583   4.997   5.723  17.274 -0.3644 -0.3691  0.0440
 4130TIP3   OH236584   5.007   4.550  18.024 -0.0226 -0.3775 -0.4261
 4130TIP3    H136585   4.977   4.459  18.034 -0.7311 -0.2688 -1.3817
 4130TIP3    H236586   5.045   4.552  17.936  0.2548  0.1834 -0.2951
 4131TIP3   OH236587   4.654   1.630  17.562  0.1048  0.0079  0.1031
 4131TIP3    H136588   4.657   1.726  17.564 -1.8060  0.1129  2.6919
 4131TIP3    H236589   4.589   1.606  17.629 -0.1568 -3.0807 -1.0715
 4132TIP3   OH236590   3.389   4.717  14.859  0.0353 -0.1034  0.9573
 4132TIP3    H136591   3.402   4.774  14.935  1.2561  1.7640 -0.5619
 4132TIP3    H236592   3.477   4.689  14.835 -0.4214 -1.4578  0.7476
 4133TIP3   OH236593   5.831   4.766  15.621  0.1541  0.3040 -0.8525
 4133TIP3    H136594   5.829   4.680  15.578  2.1450 -1.1059  1.6220
 4133TIP3    H236595   5.812   4.748  15.713 -0.1898  2.6620 -0.3851
 4134TIP3   OH236596   5.128   5.953  14.910 -0.6154 -0.1250  0.2621
 4134TIP3    H136597   5.209   5.934  14.958 -0.5686  0.6954  0.5153
 4134TIP3    H236598   5.080   5.870  14.910  0.4077 -0.7405 -0.2443
 4135TIP3   OH236599   5.859   1.544  15.306 -0.3466  0.1897  1.0530
 4135TIP3    H136600   5.903   1.493  15.373 -1.6294 -1.8015  0.4734
 4135TIP3    H236601   5.921   1.548  15.233  0.2858  0.6626  1.6088
 4136TIP3   OH236602   2.075   5.199  16.897  0.0103  0.5968  0.5728
 4136TIP3    H136603   2.085   5.179  16.990 -0.7418  2.2257  1.0469
 4136TIP3    H236604   2.078   5.114  16.853 -0.1244 -0.2421  2.1301
 4137TIP3   OH236605   1.097   0.098  17.730  0.5854 -0.5238 -0.1385
 4137TIP3    H136606   1.112   0.179  17.682  0.6374  0.3391  1.2770
 4137TIP3    H236607   1.147   0.032  17.683  1.3385  0.4650 -0.7533
 4138TIP3   OH236608   5.424   0.318  17.897  0.0077 -0.4313 -0.3883
 4138TIP3    H136609   5.461   0.406  17.902  0.3064 -0.5784  0.1396
 4138TIP3    H236610   5.412   0.292  17.988 -0.1798 -0.8948 -0.5428
 4139TIP3   OH236611   5.779   6.108  16.746  0.0522 -0.1572  0.4174
 4139TIP3    H136612   5.827   6.036  16.705  0.6261  0.9039 -0.8709
 4139TIP3    H236613   5.799   6.184  16.691 -2.5190  0.4953  0.2610
 4140TIP3   OH236614   0.275   6.555  17.708  0.3644 -0.0154 -0.3723
 4140TIP3    H136615   0.307   6.560  17.618  0.2616  1.1337 -0.3530
 4140TIP3    H236616   0.192   6.602  17.707  0.6629  0.5534  0.4504
 4141TIP3   OH236617   0.627   1.222  14.669  0.5139 -0.1910 -0.6096
 4141TIP3    H136618   0.710   1.269  14.669  0.6784 -0.3926  1.2114
 4141TIP3    H236619   0.647   1.137  14.629  1.4412 -0.5975  0.6456
 4142TIP3   OH236620   4.574   0.646  16.570  0.1941  0.0225 -0.0049
 4142TIP3    H136621   4.517   0.718  16.598 -1.1616 -0.7231 -0.7532
 4142TIP3    H236622   4.646   0.646  16.633 -0.7803  0.8274  1.1422
 4143TIP3   OH236623   3.881   5.740  15.695  0.0325 -0.8489 -0.5584
 4143TIP3    H136624   3.878   5.829  15.660 -1.0754 -1.0107 -0.9475
 4143TIP3    H236625   3.887   5.752  15.790 -0.3390 -0.3529 -0.5898
 4144TIP3   OH236626   1.663   4.967  17.533 -0.2004  0.3002 -0.7296
 4144TIP3    H136627   1.581   4.936  17.493 -0.2166 -1.0899  0.3138
 4144TIP3    H236628   1.723   4.893  17.526  0.2830  0.5614  0.4231
 4145TIP3   OH236629   4.921   1.736  16.179 -0.2499 -0.0201  0.3499
 4145TIP3    H136630   4.922   1.821  16.137  1.1081 -0.5868 -0.8792
 4145TIP3    H236631   4.882   1.751  16.265  0.9666  2.0534  0.5911
 4146TIP3   OH236632   5.369   1.186  16.849  0.0054 -0.0722  0.3666
 4146TIP3    H136633   5.456   1.155  16.826  0.1002  0.8173 -0.5201
 4146TIP3    H236634   5.353   1.151  16.937  1.8611  1.0233  1.1800
 4147TIP3   OH236635   0.369   6.170  14.986 -0.3023  0.1479 -0.0919
 4147TIP3    H136636   0.428   6.129  15.050 -0.9156 -1.3266 -0.4275
 4147TIP3    H236637   0.282   6.149  15.018 -0.6451  1.0308 -0.4161
 4148TIP3   OH236638   3.455   0.621  15.934  0.2079  0.3643  0.0861
 4148TIP3    H136639   3.435   0.702  15.887 -0.7584 -0.1031 -0.3367
 4148TIP3    H236640   3.380   0.608  15.991  0.4214 -0.1623  0.2469
 4149TIP3   OH236641   4.192   2.831  17.065  0.3781  0.2930 -0.2762
 4149TIP3    H136642   4.254   2.792  17.127 -0.6683 -0.2498  0.4662
 4149TIP3    H236643   4.152   2.904  17.112 -0.2426  0.0356 -0.3889
 4150TIP3   OH236644   0.137   6.151  16.647 -0.1054 -0.7227 -0.6181
 4150TIP3    H136645   0.207   6.216  16.638  0.3108 -0.8250  1.4379
 4150TIP3    H236646   0.168   6.092  16.716 -3.2768  0.6854  2.2734
 4151TIP3   OH236647   6.347   5.832  14.311 -0.3267 -0.7794 -0.0449
 4151TIP3    H136648   6.273   5.844  14.371 -0.8543 -0.7634 -0.6857
 4151TIP3    H236649   6.306   5.820  14.226  0.3667 -1.9322 -0.2328
 4152TIP3   OH236650   3.935   4.396  15.874 -0.0024  0.4128 -0.4462
 4152TIP3    H136651   3.868   4.432  15.816  1.0037  2.0996 -0.6323
 4152TIP3    H236652   4.005   4.462  15.874  0.2769  0.2226  2.2643
 4153TIP3   OH236653   4.579   6.315  14.871  0.4107  0.0898 -0.1634
 4153TIP3    H136654   4.669   6.286  14.860 -0.1079 -1.6417 -0.1684
 4153TIP3    H236655   4.531   6.270  14.801 -0.4996  0.8076 -0.0226
 4154TIP3   OH236656   5.952   0.323  15.311  0.3791  0.0008  1.2049
 4154TIP3    H136657   5.878   0.309  15.370 -0.2953  1.8086  0.8415
 4154TIP3    H236658   6.004   0.392  15.352 -0.0154  1.1802 -0.1819
 4155TIP3   OH236659   2.465   2.402  17.988 -0.1194  0.6657  0.4242
 4155TIP3    H136660   2.378   2.428  17.955  0.3785  1.5171 -0.2577
 4155TIP3    H236661   2.496   2.479  18.035  0.3019  0.3903  0.5993
 4156TIP3   OH236662   5.873   6.611  17.808  0.2729 -0.5354  0.1686
 4156TIP3    H136663   5.846   6.538  17.753  0.3577  0.2089 -0.9164
 4156TIP3    H236664   5.969   6.612  17.800  0.2548 -0.1623 -0.0258
 4157TIP3   OH236665   0.610   6.691  17.301  0.0490 -0.1151 -0.5298
 4157TIP3    H136666   0.551   6.632  17.348  1.3037 -0.8785  0.1343
 4157TIP3    H236667   0.646   6.638  17.230  2.0781 -0.5601  0.7644
 4158TIP3   OH236668   6.439   5.687  17.563  0.3516  0.6038 -0.0918
 4158TIP3    H136669   6.511   5.695  17.625 -0.9014 -0.7321  1.6303
 4158TIP3    H236670   6.363   5.664  17.617 -1.2181  1.1850 -1.9207
 4159TIP3   OH236671   4.774   4.802  16.111 -0.3052 -0.1071  0.1311
 4159TIP3    H136672   4.859   4.775  16.078 -1.1781 -2.1921 -0.5808
 4159TIP3    H236673   4.716   4.796  16.035 -1.5429 -1.0238  1.1060
 4160TIP3   OH236674   2.970   3.380  17.176 -0.3777  0.1545 -0.3848
 4160TIP3    H136675   2.941   3.339  17.095 -0.4834  2.0714 -1.3797
 4160TIP3    H236676   3.066   3.382  17.168 -0.2977 -0.9246  0.2044
 4161TIP3   OH236677   0.717   3.217  16.821  0.0842  0.0613  0.2377
 4161TIP3    H136678   0.696   3.225  16.914  0.3493 -0.3037  0.3320
 4161TIP3    H236679   0.812   3.226  16.817  0.0672  0.1423 -0.0044
 4162TIP3   OH236680   0.310   3.918  16.239 -0.3361 -0.3080 -0.3299
 4162TIP3    H136681   0.337   3.987  16.177  0.7498 -0.9396 -0.5923
 4162TIP3    H236682   0.325   3.837  16.191 -0.3654 -0.7740  0.4435
 4163TIP3   OH236683   6.709   4.357  16.321 -0.0410 -0.0940 -0.4585
 4163TIP3    H136684   6.766   4.312  16.384 -0.1101 -0.6934 -0.8250
 4163TIP3    H236685   6.669   4.427  16.373  1.3644  0.6330 -0.2981
 4164TIP3   OH236686   0.165   6.682  16.021 -0.3995  0.2389  0.1357
 4164TIP3    H136687   0.175   6.763  15.971  1.4426 -0.7598 -1.2099
 4164TIP3    H236688   0.223   6.693  16.097 -0.1452  0.1777 -0.0496
 4165TIP3   OH236689   3.890   0.813  15.937 -0.1402 -0.6992 -0.0420
 4165TIP3    H136690   3.849   0.897  15.914  1.8986  0.6737  0.9736
 4165TIP3    H236691   3.929   0.783  15.855 -1.4264 -1.0095 -0.5594
 4166TIP3   OH236692   2.500   6.151  16.876 -0.1036  0.7508  0.0679
 4166TIP3    H136693   2.408   6.172  16.862  0.0323  1.3217  0.0107
 4166TIP3    H236694   2.542   6.236  16.889  0.3305  0.4628  0.5967
 4167TIP3   OH236695   5.281   3.636  16.164 -0.5808  0.1436  0.0540
 4167TIP3    H136696   5.282   3.624  16.069  0.2295  2.2033 -0.2367
 4167TIP3    H236697   5.193   3.609  16.190 -1.5526  1.5111 -1.5997
 4168TIP3   OH236698   5.342   0.163  16.787  0.2616  0.1357  0.6343
 4168TIP3    H136699   5.288   0.151  16.866 -0.4968 -0.7898 -0.0081
 4168TIP3    H236700   5.392   0.082  16.780  0.9517  0.5567  0.6211
 4169TIP3   OH236701   5.065   4.780  17.543  0.0991 -0.1919  0.5539
 4169TIP3    H136702   5.157   4.760  17.563  0.0900  0.1512  0.9404
 4169TIP3    H236703   5.020   4.773  17.627 -0.2953 -0.6954  0.3096
 4170TIP3   OH236704   4.250   0.759  17.182 -0.0042 -0.0414  0.8497
 4170TIP3    H136705   4.185   0.698  17.147  0.7834 -0.7815  0.6342
 4170TIP3    H236706   4.212   0.792  17.263 -0.9807  0.1461  0.3267
 4171TIP3   OH236707   2.049   1.050  17.694 -0.2992  0.2275  0.2240
 4171TIP3    H136708   2.007   0.966  17.711  0.4869 -0.4048 -0.8625
 4171TIP3    H236709   1.988   1.097  17.637  0.0078 -0.2827 -0.5298
 4172TIP3   OH236710   5.701   6.099  16.188  0.5184  0.2186 -0.2337
 4172TIP3    H136711   5.626   6.157  16.199 -0.5639 -1.4204  1.5398
 4172TIP3    H236712   5.774   6.145  16.231 -0.0493  0.7451  0.1733
 4173TIP3   OH236713   1.592   1.341  14.478 -0.2626  0.2754  0.0628
 4173TIP3    H136714   1.532   1.327  14.405  0.4271  0.0215 -0.4707
 4173TIP3    H236715   1.577   1.432  14.503  1.2673  1.2277 -2.1094
 4174TIP3   OH236716   4.841   6.079  16.388 -0.4868 -0.3411  0.0295
 4174TIP3    H136717   4.908   6.142  16.361  0.6327 -1.1888  0.7142
 4174TIP3    H236718   4.890   6.008  16.429 -1.6926 -1.7977 -0.9370
 4175TIP3   OH236719   3.762   2.154  15.362  0.0847 -0.1723  0.7042
 4175TIP3    H136720   3.722   2.204  15.291  0.9817 -0.8546 -0.3314
 4175TIP3    H236721   3.694   2.147  15.429 -0.7490  0.5860 -0.0409
 4176TIP3   OH236722   1.985   4.241  16.713  0.1087  0.1156 -0.1776
 4176TIP3    H136723   2.047   4.297  16.758  0.4214  0.2008 -0.7057
 4176TIP3    H236724   1.944   4.189  16.782 -0.1732  0.9755  0.3074
 4177TIP3   OH236725   1.514   2.908  17.402  0.2267 -0.4209  1.0290
 4177TIP3    H136726   1.594   2.930  17.450  1.2647  0.2270 -0.8665
 4177TIP3    H236727   1.485   2.826  17.441  0.7285  0.2913  3.0241
 4178TIP3   OH236728   5.184   5.214  17.247 -0.2917 -0.0413 -0.1723
 4178TIP3    H136729   5.210   5.180  17.333  0.5729  1.6488  0.2669
 4178TIP3    H236730   5.237   5.164  17.185  1.4830  0.9058  0.5014
 4179TIP3   OH236731   2.136   2.065  16.940 -0.0549  0.0064  0.5682
 4179TIP3    H136732   2.197   1.996  16.914 -0.4081 -0.2479  0.4089
 4179TIP3    H236733   2.184   2.116  17.006 -0.5211 -1.6493  2.2900
 4180TIP3   OH236734   4.122   4.422  17.285  0.0751 -0.1290  0.0332
 4180TIP3    H136735   4.120   4.336  17.241 -0.8635 -1.4644  2.4854
 4180TIP3    H236736   4.202   4.420  17.337 -0.6583 -0.1165  1.1824
 4181TIP3   OH236737   0.569   3.121  17.360  0.2048  0.1411 -0.1027
 4181TIP3    H136738   0.617   3.110  17.278 -1.3925 -0.3146 -0.9929
 4181TIP3    H236739   0.585   3.212  17.385  0.6674  0.2902 -0.9255
 4182TIP3   OH236740   0.207   6.627  15.668 -0.1927 -0.1544  0.0420
 4182TIP3    H136741   0.250   6.649  15.585 -0.5985 -2.5523 -0.8903
 4182TIP3    H236742   0.276   6.635  15.733  0.4008  0.7492 -0.6617
 4183TIP3   OH236743   3.736   5.904  14.973  0.6157  0.1506  0.1672
 4183TIP3    H136744   3.697   5.922  14.887 -1.2221 -1.3481  0.6207
 4183TIP3    H236745   3.812   5.850  14.955 -0.0329 -0.5530 -0.5121
 4184TIP3   OH236746   1.176   6.174  15.702  0.2344 -0.1492 -0.5228
 4184TIP3    H136747   1.086   6.203  15.691 -0.0107 -0.6747  0.0212
 4184TIP3    H236748   1.171   6.079  15.710  1.0046 -0.3540 -2.0441
 4185TIP3   OH236749   3.918   6.443  15.121  0.0950 -0.1599  0.1176
 4185TIP3    H136750   3.889   6.438  15.030 -0.3906 -5.5009  0.2789
 4185TIP3    H236751   4.011   6.422  15.118 -0.4190 -2.9521  0.8441
 4186TIP3   OH236752   5.805   3.029  16.317  0.3641  0.3553  0.1809
 4186TIP3    H136753   5.738   3.001  16.380  0.7049 -1.0738 -0.0510
 4186TIP3    H236754   5.757   3.079  16.251 -0.5416 -0.9244 -0.1587
 4187TIP3   OH236755   3.692   4.306  16.887  0.4706 -0.5889 -0.5229
 4187TIP3    H136756   3.727   4.333  16.973 -2.2198 -0.4164  0.6261
 4187TIP3    H236757   3.685   4.211  16.893  0.2241 -0.5708 -0.5289
 4188TIP3   OH236758   1.379   6.015  16.747 -0.0348  0.6583 -0.2341
 4188TIP3    H136759   1.343   6.073  16.814 -2.1976 -0.4866 -0.2901
 4188TIP3    H236760   1.405   5.936  16.795 -0.0587  0.4700 -0.5279
 4189TIP3   OH236761   6.285   6.130  17.101  0.2334  0.1472  0.3607
 4189TIP3    H136762   6.380   6.142  17.095  0.5178 -0.3709  2.6352
 4189TIP3    H236763   6.275   6.049  17.152 -1.4260  0.5495  0.7147
 4190TIP3   OH236764   6.559   2.516  16.500 -0.0384  0.0882  1.1481
 4190TIP3    H136765   6.546   2.604  16.466  2.3091  0.5449  1.2961
 4190TIP3    H236766   6.511   2.514  16.582 -1.5122  0.6424  0.3413
 4191TIP3   OH236767   3.893   0.905  18.271 -0.1818 -0.5981 -0.2492
 4191TIP3    H136768   3.892   0.939  18.361 -0.8062 -0.3494 -0.3462
 4191TIP3    H236769   3.954   0.962  18.225  0.3820 -0.9194  0.0861
 4192TIP3   OH236770   2.870   6.388  16.226 -0.2067 -0.1782 -0.1137
 4192TIP3    H136771   2.940   6.348  16.173 -0.7067 -1.3792  0.1099
 4192TIP3    H236772   2.857   6.327  16.298  1.1030  1.8686  1.9816
 4193TIP3   OH236773   1.371   1.256  14.298  0.2423  0.0723 -0.1088
 4193TIP3    H136774   1.307   1.322  14.273  0.9358  0.1468 -1.7518
 4193TIP3    H236775   1.318   1.185  14.336 -1.0172 -0.4581 -2.6586
 4194TIP3   OH236776   5.147   1.838  14.753  0.3151 -0.4714 -0.2587
 4194TIP3    H136777   5.205   1.846  14.829  0.3780  1.7313 -0.4810
 4194TIP3    H236778   5.183   1.763  14.705  1.8706 -0.3003  0.5406
 4195TIP3   OH236779   6.248   3.447  16.524 -0.4024  0.2742 -0.0017
 4195TIP3    H136780   6.204   3.425  16.606 -0.3821  0.5097  0.0729
 4195TIP3    H236781   6.333   3.403  16.529 -0.5153  0.0519 -0.0227
 4196TIP3   OH236782   2.722   5.328  15.270 -0.4953  0.0544 -0.0299
 4196TIP3    H136783   2.672   5.362  15.196  3.0673 -0.8769 -3.1664
 4196TIP3    H236784   2.802   5.380  15.271  0.3078 -1.0632  2.1907
 4197TIP3   OH236785   5.742   0.997  16.476  0.1411  0.1911 -0.3502
 4197TIP3    H136786   5.723   1.090  16.475  0.1040  0.1908 -1.6646
 4197TIP3    H236787   5.708   0.966  16.560  0.9830  1.5110  0.5202
 4198TIP3   OH236788   2.191   6.382  16.323 -0.3484  0.5648 -0.3145
 4198TIP3    H136789   2.203   6.331  16.242  0.4498  0.6607 -0.2669
 4198TIP3    H236790   2.215   6.471  16.298 -0.4920  0.6700 -0.0707
 4199TIP3   OH236791   4.320   4.682  16.631 -0.5564  0.0276 -0.2344
 4199TIP3    H136792   4.365   4.751  16.583 -0.0471 -0.0887  0.0663
 4199TIP3    H236793   4.390   4.623  16.661 -0.6741  0.8479  1.8701
 4200TIP3   OH236794   6.299   4.843  16.004  0.2820  0.0970  0.1386
 4200TIP3    H136795   6.206   4.850  15.981  0.5613  2.6934 -0.5384
 4200TIP3    H236796   6.299   4.828  16.099 -0.9256  3.3043  0.7719
 4201TIP3   OH236797   3.281   6.344  15.463  0.1242  0.3928 -0.0338
 4201TIP3    H136798   3.356   6.294  15.493  1.2991  1.9816 -0.1822
 4201TIP3    H236799   3.213   6.279  15.447  1.2125 -1.0106  0.8278
 4202TIP3   OH236800   2.354   5.260  16.161  0.0204  0.1795  0.3646
 4202TIP3    H136801   2.281   5.199  16.176  0.3018 -0.7123 -1.5735
 4202TIP3    H236802   2.316   5.347  16.172 -0.9085 -0.3055  1.1096
 4203TIP3   OH236803   2.718   3.945  17.361 -0.6623 -0.0706  0.5474
 4203TIP3    H136804   2.694   3.914  17.273 -1.0589 -0.6712  0.8614
 4203TIP3    H236805   2.754   4.032  17.346 -0.5441 -0.2416 -0.2376
 4204TIP3   OH236806   5.626   3.595  14.743  0.7538  0.9672  0.0941
 4204TIP3    H136807   5.626   3.519  14.685  0.1303  2.6380 -2.2490
 4204TIP3    H236808   5.714   3.631  14.735  0.5177  1.4844 -0.2290
 4205TIP3   OH236809   2.096   4.552  17.696  0.3766 -0.1571 -0.0166
 4205TIP3    H136810   2.185   4.523  17.717  0.7680  0.2454 -1.0570
 4205TIP3    H236811   2.061   4.585  17.779  0.8469 -1.1868  0.6105
 4206TIP3   OH236812   1.798   1.549  18.091 -0.2966 -0.0961  0.5943
 4206TIP3    H136813   1.814   1.534  18.185 -1.9708 -1.6520  0.6779
 4206TIP3    H236814   1.877   1.514  18.049 -0.7080 -2.0448  1.3100
 4207TIP3   OH236815   2.478   2.947  16.743 -0.2526  0.4860  0.7419
 4207TIP3    H136816   2.489   3.018  16.679  2.3367 -0.1781  0.3475
 4207TIP3    H236817   2.453   2.872  16.690  0.4895  0.2733  0.6914
 4208TIP3   OH236818   6.498   1.241  15.937 -0.2318 -0.1239 -0.5764
 4208TIP3    H136819   6.428   1.254  15.872 -0.0051 -0.1015 -0.8197
 4208TIP3    H236820   6.578   1.262  15.889 -0.0403 -0.3625 -0.3621
 4209TIP3   OH236821   4.109   6.459  17.071 -0.2772  0.3731 -0.2205
 4209TIP3    H136822   4.057   6.511  17.009  0.5215 -0.8865 -2.0224
 4209TIP3    H236823   4.051   6.447  17.146 -1.5677  1.3330 -1.0228
 4210TIP3   OH236824   3.083   1.547  14.367  0.0263  0.0451 -0.9555
 4210TIP3    H136825   3.134   1.541  14.287  0.8035 -0.2041 -0.4506
 4210TIP3    H236826   3.137   1.600  14.426 -0.6446  0.4311 -0.6816
 4211TIP3   OH236827   3.045   1.051  16.499 -0.2003  0.0593 -0.2730
 4211TIP3    H136828   3.039   1.144  16.479 -0.9765  0.1278  0.2450
 4211TIP3    H236829   2.962   1.014  16.470  0.3268 -0.5861 -1.0162
 4212TIP3   OH236830   6.283   3.454  15.503 -0.5137  0.5970 -0.0929
 4212TIP3    H136831   6.341   3.454  15.427 -1.3461 -0.7208 -0.7821
 4212TIP3    H236832   6.340   3.475  15.577  0.6497  0.2622 -0.8678
 4213TIP3   OH236833   4.767   0.018  15.350 -0.0098  0.0506 -0.4068
 4213TIP3    H136834   4.680  -0.000  15.385  0.0469  2.0968  0.9685
 4213TIP3    H236835   4.824   0.018  15.427  0.9202  0.2943 -1.0835
 4214TIP3   OH236836   1.300   0.496  17.593  0.3539  0.1049  0.1126
 4214TIP3    H136837   1.307   0.565  17.659  0.0579 -0.3798  0.6594
 4214TIP3    H236838   1.390   0.464  17.581  0.4199  0.2519  0.2185
 4215TIP3   OH236839   0.918   0.838  16.723 -0.3816 -0.0726 -0.0643
 4215TIP3    H136840   0.881   0.922  16.695 -0.8376 -0.8019 -1.7473
 4215TIP3    H236841   0.877   0.822  16.809  1.3061  2.3666  1.2945
 4216TIP3   OH236842   4.891   6.204  17.601 -0.4832  0.0671 -0.3866
 4216TIP3    H136843   4.882   6.289  17.644 -1.3092 -0.3280  0.2419
 4216TIP3    H236844   4.978   6.207  17.561 -1.3076  2.0983 -2.3243
 4217TIP3   OH236845   3.446   2.816  15.916 -0.3042  0.3141  0.3852
 4217TIP3    H136846   3.467   2.909  15.921  0.8772  0.0454  0.6385
 4217TIP3    H236847   3.503   2.782  15.847  0.0489 -0.4244  1.0284
 4218TIP3   OH236848   1.329   2.115  17.764  0.8013 -0.1452  0.4225
 4218TIP3    H136849   1.352   2.181  17.829  2.3551  0.4664 -0.6730
 4218TIP3    H236850   1.331   2.163  17.681  0.2834 -1.2167 -0.2281
 4219TIP3   OH236851   2.984   2.436  17.730  0.4761 -0.1392  0.2852
 4219TIP3    H136852   3.007   2.346  17.752  1.0146 -0.1573 -0.3346
 4219TIP3    H236853   2.919   2.461  17.796  0.5346 -0.8820  0.6292
 4220TIP3   OH236854   4.960   0.498  16.128 -0.1638 -0.2097 -0.1202
 4220TIP3    H136855   4.918   0.418  16.157  0.5019 -0.5394 -0.0349
 4220TIP3    H236856   4.970   0.551  16.207  1.5953 -1.0819  0.2910
 4221TIP3   OH236857   5.744   2.334  15.565  0.0994  0.4512 -0.2276
 4221TIP3    H136858   5.757   2.257  15.620  1.1931  0.0553 -1.0146
 4221TIP3    H236859   5.791   2.404  15.610 -2.8403  1.3240  1.7509
 4222TIP3   OH236860   4.898   1.840  16.959 -0.0103 -0.3312 -0.0746
 4222TIP3    H136861   4.964   1.783  16.922  1.5624  1.1700  0.2811
 4222TIP3    H236862   4.846   1.784  17.016  2.1161 -1.2432  1.0758
 4223TIP3   OH236863   5.465   6.057  14.825 -0.6549 -0.7782 -0.1662
 4223TIP3    H136864   5.375   6.067  14.794 -0.9146  1.6121  1.1427
 4223TIP3    H236865   5.458   6.004  14.904 -0.8631 -0.9445 -0.2965
 4224TIP3   OH236866   0.799   6.434  16.601  0.4259  0.3474  0.3172
 4224TIP3    H136867   0.889   6.453  16.629 -0.1225  1.2435  1.5408
 4224TIP3    H236868   0.764   6.520  16.576 -0.0989 -0.0052 -0.1775
 4225TIP3   OH236869   5.258   4.348  17.423 -0.4801  0.4159 -0.1207
 4225TIP3    H136870   5.163   4.359  17.422 -0.4005  1.1419 -0.9688
 4225TIP3    H236871   5.277   4.300  17.342 -0.1248  0.2659  0.0490
 4226TIP3   OH236872   3.091   1.686  17.348  0.4793  0.6675  0.4981
 4226TIP3    H136873   3.068   1.734  17.268  0.1211  0.0475  0.2191
 4226TIP3    H236874   3.135   1.607  17.317  1.7735  1.1784  0.9891
 4227TIP3   OH236875   6.039   4.936  16.838  0.1883 -0.1713  1.1887
 4227TIP3    H136876   6.091   5.016  16.828 -2.0481  1.0542 -4.7138
 4227TIP3    H236877   5.954   4.967  16.868  0.4516 -1.0388  2.9356
 4228TIP3   OH236878   6.090   5.812  17.896 -0.0627 -0.2192  0.1580
 4228TIP3    H136879   6.032   5.780  17.826  0.9705  0.4665 -1.0612
 4228TIP3    H236880   6.145   5.737  17.917 -0.0304 -0.2822 -0.1434
 4229TIP3   OH236881   0.552   3.504  17.157  0.0584 -0.0281  0.0718
 4229TIP3    H136882   0.583   3.561  17.086  0.4908 -1.9019 -1.3316
 4229TIP3    H236883   0.571   3.416  17.126 -0.3836 -0.9469  2.2660
 4230TIP3   OH236884   0.944   6.445  17.891  0.0074 -0.0103  0.6380
 4230TIP3    H136885   0.998   6.437  17.813  1.1970  1.0969  1.3157
 4230TIP3    H236886   1.001   6.417  17.963 -0.7832 -0.1681  1.2172
 4231TIP3   OH236887   3.886   4.009  16.554 -0.5751 -0.1131  0.2277
 4231TIP3    H136888   3.833   4.084  16.526  0.7424  0.3562 -1.1264
 4231TIP3    H236889   3.894   4.019  16.649 -3.6866 -0.7500  0.6727
 4232TIP3   OH236890   3.825   2.537  15.435  0.6069 -0.1169  0.1899
 4232TIP3    H136891   3.844   2.623  15.472 -0.2328 -0.0394  0.4686
 4232TIP3    H236892   3.778   2.491  15.505 -2.1001  0.4583 -1.1257
 4233TIP3   OH236893   2.531   5.015  17.574  0.5736  0.1137 -0.3591
 4233TIP3    H136894   2.468   5.084  17.592 -1.0809 -0.9571 -1.7516
 4233TIP3    H236895   2.515   4.990  17.483 -0.0556 -3.1635  0.5060
 4234TIP3   OH236896   2.281   1.225  15.006 -0.1304 -0.5023 -0.2999
 4234TIP3    H136897   2.293   1.317  15.028 -1.4997 -0.0940 -1.0903
 4234TIP3    H236898   2.331   1.178  15.072  0.3721  0.7951  0.2900
 4235TIP3   OH236899   3.706   4.041  16.937  0.3066 -0.8286  0.1581
 4235TIP3    H136900   3.615   4.016  16.919  0.9106 -2.4270 -0.8732
 4235TIP3    H236901   3.721   4.011  17.027 -1.2223  2.7887  1.8550
 4236TIP3   OH236902   5.194   1.156  14.111  0.4938  0.3492  0.3120
 4236TIP3    H136903   5.267   1.142  14.050 -0.4399  2.0111 -1.2606
 4236TIP3    H236904   5.121   1.107  14.074  1.1683 -3.2314  3.0409
 4237TIP3   OH236905   5.954   1.416  15.513 -0.0660 -0.2636  0.3567
 4237TIP3    H136906   5.984   1.343  15.568  1.2396 -1.2522 -1.5096
 4237TIP3    H236907   5.889   1.461  15.566  1.0472 -1.1631  2.6538
 4238TIP3   OH236908   4.627   4.681  17.265  0.4109  0.1162  0.6453
 4238TIP3    H136909   4.646   4.739  17.339 -0.5564 -1.6394  2.3497
 4238TIP3    H236910   4.543   4.641  17.286  0.4771 -1.0449 -1.0465
 4239TIP3   OH236911   4.421   3.403  16.006  0.0294  0.1443 -0.2584
 4239TIP3    H136912   4.367   3.374  16.080  0.1882  0.7350  0.0969
 4239TIP3    H236913   4.497   3.443  16.047  0.3723  0.0105 -0.7567
 4240TIP3   OH236914   3.308   2.241  14.181 -0.2975  0.1283 -0.1733
 4240TIP3    H136915   3.286   2.308  14.246 -1.4576 -0.7571  0.3843
 4240TIP3    H236916   3.290   2.283  14.096 -2.2282  0.1417  0.2054
 4241TIP3   OH236917   3.863   4.616  17.950 -0.5369  0.5520 -0.5432
 4241TIP3    H136918   3.873   4.521  17.953 -1.4351  0.4710  0.6158
 4241TIP3    H236919   3.902   4.647  18.031  0.0904  1.2325 -1.0847
 4242TIP3   OH236920   5.750   1.369  15.881 -0.0777 -0.1394  0.2897
 4242TIP3    H136921   5.772   1.462  15.883 -1.5304  0.2110  0.6382
 4242TIP3    H236922   5.693   1.360  15.804 -1.4111 -0.3811  1.2855
 4243TIP3   OH236923   3.730   1.881  16.332 -0.5688 -0.1386  0.3231
 4243TIP3    H136924   3.672   1.825  16.281 -1.8127  0.4893  1.0059
 4243TIP3    H236925   3.781   1.820  16.387 -1.2623 -0.6511  0.4078
 4244TIP3   OH236926   3.421   4.836  15.100  0.5058  0.3050 -0.1792
 4244TIP3    H136927   3.400   4.920  15.059  0.1757 -0.3096 -1.3131
 4244TIP3    H236928   3.511   4.847  15.131  0.5612  0.9876 -0.5585
 4245TIP3   OH236929   1.157   1.473  14.301  0.6274  0.0540 -0.5579
 4245TIP3    H136930   1.098   1.482  14.376  0.4458 -2.5357 -0.2876
 4245TIP3    H236931   1.109   1.512  14.228 -1.0180 -1.0724 -0.1328
 4246TIP3   OH236932   4.194   0.656  15.483 -0.3577  0.3252  0.3946
 4246TIP3    H136933   4.281   0.660  15.443  0.0647  0.6464  1.3386
 4246TIP3    H236934   4.135   0.686  15.414  0.0145 -1.9099 -0.9974
 4247TIP3   OH236935   2.179   2.523  15.717 -0.0743 -0.3184  0.2230
 4247TIP3    H136936   2.231   2.602  15.701  0.1152 -0.5814 -0.5235
 4247TIP3    H236937   2.237   2.465  15.765  0.7145 -1.0037 -1.4663
 4248TIP3   OH236938   4.212   4.808  18.146  0.0925  0.0649  0.2278
 4248TIP3    H136939   4.247   4.875  18.205 -0.5990  0.5759  0.0728
 4248TIP3    H236940   4.289   4.762  18.113  0.4571 -1.3275  2.7665
 4249TIP3   OH236941   3.161   6.592  17.759  0.3404  0.0623  0.2716
 4249TIP3    H136942   3.224   6.528  17.794 -0.3367 -0.3478  0.7616
 4249TIP3    H236943   3.118   6.627  17.837 -0.5638 -0.2128 -0.0975
 4250TIP3   OH236944   0.962   0.683  15.226  0.5103  0.1726 -0.1647
 4250TIP3    H136945   1.014   0.605  15.244 -0.3692 -0.7466 -1.4472
 4250TIP3    H236946   0.873   0.649  15.211  0.1256  1.4089 -0.8037
 4251TIP3   OH236947   4.545   4.826  16.969 -0.1173 -0.0397  0.4076
 4251TIP3    H136948   4.606   4.796  17.037  1.3473  0.5722 -0.5832
 4251TIP3    H236949   4.554   4.921  16.970  0.4423 -0.0514 -1.0631
 4252TIP3   OH236950   4.081   2.742  16.667 -0.1438 -0.0520 -0.3048
 4252TIP3    H136951   4.005   2.692  16.697 -1.9536  2.2824 -0.8025
 4252TIP3    H236952   4.053   2.783  16.585  2.4320 -0.8705 -1.7123
 4253TIP3   OH236953   2.455   5.566  18.069  0.3636 -0.0506  0.1044
 4253TIP3    H136954   2.424   5.593  17.982  0.0589  0.0538  0.2426
 4253TIP3    H236955   2.378   5.576  18.125  0.3197 -0.9310  0.2166
 4254TIP3   OH236956   4.660   1.634  15.324  0.4475  0.3408 -0.2242
 4254TIP3    H136957   4.652   1.715  15.374  2.7796  0.7220 -0.3327
 4254TIP3    H236958   4.648   1.661  15.233 -0.3000  0.2757 -0.1492
 4255TIP3   OH236959   5.125   4.526  17.756 -0.3051  0.4496 -0.5285
 4255TIP3    H136960   5.186   4.456  17.781  0.4052  1.6449  1.3754
 4255TIP3    H236961   5.182   4.600  17.736 -1.0586  1.4427  0.7766
 4256TIP3   OH236962   3.144   6.681  15.726  0.4192  0.0080  0.4040
 4256TIP3    H136963   3.099   6.701  15.809 -3.1482 -1.2359 -1.0509
 4256TIP3    H236964   3.140   6.763  15.677 -0.2059 -0.0390  0.3585
 4257TIP3   OH236965   3.063   6.143  16.829 -0.8371  0.2053 -0.1896
 4257TIP3    H136966   3.067   6.165  16.736  1.3205  2.6678  0.3628
 4257TIP3    H236967   2.991   6.196  16.862 -1.5524 -0.6099 -0.3986
 4258TIP3   OH236968   4.612   1.785  14.794 -0.0396 -0.0049  0.0663
 4258TIP3    H136969   4.645   1.874  14.785  0.6683 -0.2540  0.0793
 4258TIP3    H236970   4.653   1.737  14.722 -0.8536 -0.1981 -0.2724
 4259TIP3   OH236971   5.061   1.105  16.466  0.1811 -0.3165  0.2652
 4259TIP3    H136972   5.112   1.186  16.471  2.2031 -1.4138 -1.1686
 4259TIP3    H236973   5.080   1.061  16.549 -0.3978  0.3407  0.7661
 4260TIP3   OH236974   1.975   4.926  15.933 -0.8631 -0.0540  0.6711
 4260TIP3    H136975   1.905   4.961  15.988 -1.4318 -0.4896  0.2333
 4260TIP3    H236976   1.956   4.959  15.845  0.4322  1.2232  0.8309
 4261TIP3   OH236977   3.214   3.523  15.746  0.3348 -0.1684  0.0229
 4261TIP3    H136978   3.131   3.514  15.793 -0.8052  0.7851 -1.6864
 4261TIP3    H236979   3.200   3.477  15.663  1.3896  0.3142 -0.4414
 4262TIP3   OH236980   1.966   1.662  17.481 -0.1487 -0.0204  0.5214
 4262TIP3    H136981   2.058   1.649  17.460 -0.5259 -0.1804 -1.1500
 4262TIP3    H236982   1.961   1.648  17.576  1.5246 -0.0375  0.6376
 4263TIP3   OH236983   5.135   2.730  14.969  0.2682  0.2536 -0.1759
 4263TIP3    H136984   5.118   2.762  14.880  2.3227 -0.1605 -0.7653
 4263TIP3    H236985   5.048   2.720  15.007 -0.6406  1.3106 -1.8173
 4264TIP3   OH236986   1.701   3.529  17.780  0.0011 -0.3026  0.1588
 4264TIP3    H136987   1.652   3.600  17.740  0.9000  0.7000  0.7950
 4264TIP3    H236988   1.771   3.509  17.718  0.9423  0.7420  0.8502
 4265TIP3   OH236989   6.612   0.482  16.359  0.0131  0.2180  0.1760
 4265TIP3    H136990   6.540   0.526  16.404  0.7868  1.7942 -0.0637
 4265TIP3    H236991   6.688   0.493  16.418  0.5784  0.6039 -0.6067
 4266TIP3   OH236992   3.018   5.213  15.231 -0.5121 -0.1442 -0.2143
 4266TIP3    H136993   3.094   5.181  15.183 -1.4303 -1.1663 -1.0409
 4266TIP3    H236994   3.024   5.171  15.317 -0.0365 -0.0352 -0.1888
 4267TIP3   OH236995   3.197   6.253  14.812 -0.1062 -0.2087  0.2651
 4267TIP3    H136996   3.126   6.234  14.750  1.0507  1.2300 -1.5813
 4267TIP3    H236997   3.261   6.183  14.798  0.1643  0.1278 -0.1836
 4268TIP3   OH236998   1.563   5.583  14.266 -0.2765 -0.3459  0.7573
 4268TIP3    H136999   1.601   5.629  14.192  2.2989 -2.2791  0.7342
 4268TIP3    H237000   1.469   5.601  14.260  0.0380  0.8545 -2.0123
 4269TIP3   OH237001   0.289   6.090  16.117 -0.1705  0.3467  0.2751
 4269TIP3    H137002   0.208   6.072  16.071  0.5044 -2.5493  0.0128
 4269TIP3    H237003   0.265   6.087  16.210 -0.4690  0.1252  0.1920
 4270TIP3   OH237004   0.834   4.342  18.049  0.1617  0.3344 -0.0112
 4270TIP3    H137005   0.844   4.302  18.135  2.8664 -0.2285 -0.4797
 4270TIP3    H237006   0.818   4.269  17.990 -0.0080  0.5247 -0.2016
 4271TIP3   OH237007   5.088   5.048  17.949 -0.3126  0.3978 -0.2493
 4271TIP3    H137008   5.060   4.958  17.931 -1.5915  0.2791  1.9498
 4271TIP3    H237009   5.043   5.101  17.884 -1.0153 -0.3936 -0.4247
 4272TIP3   OH237010   1.623   4.189  15.847  0.0794  0.0558  0.1765
 4272TIP3    H137011   1.709   4.161  15.878  1.5534  0.7734 -2.8549
 4272TIP3    H237012   1.586   4.111  15.805  0.7081  0.5355 -1.3234
 4273TIP3   OH237013   1.744   3.654  15.536  0.1787 -0.3405  0.0935
 4273TIP3    H137014   1.771   3.582  15.593 -1.0803  0.8495  2.3392
 4273TIP3    H237015   1.825   3.704  15.520  0.4284 -0.2508  1.5564
 4274TIP3   OH237016   3.534   5.849  16.612 -1.0245  0.0041 -0.4623
 4274TIP3    H137017   3.536   5.816  16.523 -3.8595  0.3734 -0.7594
 4274TIP3    H237018   3.530   5.944  16.603  1.4779  0.2463  0.2165
 4275TIP3   OH237019   2.685   2.751  16.594 -0.2710 -0.0457 -0.6094
 4275TIP3    H137020   2.689   2.657  16.575 -2.0124 -0.3845  0.4545
 4275TIP3    H237021   2.771   2.784  16.568  0.2951 -1.8737 -1.2626
 4276TIP3   OH237022   2.059   0.642  15.583  0.1350 -0.5398 -0.0364
 4276TIP3    H137023   2.028   0.565  15.534  0.8746 -1.0541  0.2859
 4276TIP3    H237024   2.044   0.620  15.675 -1.6822  0.6140 -0.0125
 4277TIP3   OH237025   5.678   5.414  16.364 -0.4747 -0.3886  0.6736
 4277TIP3    H137026   5.745   5.474  16.396  0.2723 -1.1603  0.5795
 4277TIP3    H237027   5.609   5.471  16.330  0.7226  0.4483 -0.4617
 4278TIP3   OH237028   6.572   2.109  17.690 -0.8158  0.2601  0.1965
 4278TIP3    H137029   6.510   2.078  17.624  0.1540 -2.4724  0.4354
 4278TIP3    H237030   6.546   2.064  17.771  2.5197 -2.6435 -0.1294
 4279TIP3   OH237031   3.709   0.073  17.457  0.3964 -0.7992  0.3913
 4279TIP3    H137032   3.641   0.056  17.392  0.7698 -0.8712  0.0161
 4279TIP3    H237033   3.735   0.164  17.442 -1.9014  0.3829  2.6675
 4280TIP3   OH237034   1.376   3.937  17.145 -0.1185  0.8392 -0.2138
 4280TIP3    H137035   1.283   3.918  17.159  0.1960  0.6873  1.9331
 4280TIP3    H237036   1.378   3.980  17.059 -2.1579  0.8469 -0.3212
 4281TIP3   OH237037   2.492   0.512  16.386 -0.3191  0.7942 -0.3493
 4281TIP3    H137038   2.466   0.601  16.410 -0.1364  0.9170 -0.6044
 4281TIP3    H237039   2.511   0.469  16.469 -0.5768  0.9392 -0.2131
 4282TIP3   OH237040   0.091   1.108  17.311 -0.3485  0.1114 -0.1836
 4282TIP3    H137041   0.016   1.094  17.370 -0.9131 -0.3656 -0.9996
 4282TIP3    H237042   0.093   1.203  17.298  0.8578  0.4495  1.9576
 4283TIP3   OH237043   5.530   2.838  17.057  0.0105  0.0489  0.3002
 4283TIP3    H137044   5.474   2.875  16.990 -0.6113  1.1532  1.3753
 4283TIP3    H237045   5.600   2.902  17.068  0.8946 -0.8055 -0.2822
 4284TIP3   OH237046   3.286   0.317  15.835 -0.1385  0.2772  0.2663
 4284TIP3    H137047   3.249   0.253  15.897  0.0394 -0.3295 -0.2417
 4284TIP3    H237048   3.237   0.398  15.853 -0.6526 -0.1023  0.6440
 4285TIP3   OH237049   1.121   3.097  15.789  0.6150 -0.0696  0.4418
 4285TIP3    H137050   1.203   3.070  15.831  0.9990 -0.1659 -0.3559
 4285TIP3    H237051   1.148   3.161  15.723 -0.2417  2.2141  2.1536
 4286TIP3   OH237052   4.190   6.540  14.685  0.7496  0.5797  0.0872
 4286TIP3    H137053   4.152   6.567  14.602  2.4026  2.5432 -0.1144
 4286TIP3    H237054   4.251   6.610  14.708  2.1080 -1.0189  1.7697
 4287TIP3   OH237055   2.636   6.577  15.013 -0.5946  1.1693  0.2712
 4287TIP3    H137056   2.711   6.603  14.960 -1.2939  1.6905 -0.4910
 4287TIP3    H237057   2.587   6.658  15.027 -1.2311  0.7705  0.4142
 4288TIP3   OH237058   3.798   4.581  15.651 -0.1260  0.2146  0.1673
 4288TIP3    H137059   3.809   4.660  15.703 -1.6161 -0.2291  1.2067
 4288TIP3    H237060   3.888   4.553  15.631  0.4576  1.0707  1.4671
 4289TIP3   OH237061   3.718   1.068  17.181  0.0279 -0.2379 -0.6494
 4289TIP3    H137062   3.750   1.000  17.240  2.4012  1.7425  0.5316
 4289TIP3    H237063   3.795   1.093  17.129 -0.7616  1.4546 -1.0817
 4290TIP3   OH237064   5.761   0.461  16.146  0.1741  0.7884  0.9168
 4290TIP3    H137065   5.824   0.487  16.213  0.4475  0.2909  0.8588
 4290TIP3    H237066   5.677   0.459  16.192  0.2101  1.3791  1.0120
 4291TIP3   OH237067   1.110   5.597  16.673  0.1147 -0.0582  0.0171
 4291TIP3    H137068   1.027   5.556  16.647  0.5130 -0.9759  0.1826
 4291TIP3    H237069   1.094   5.691  16.660 -0.6608 -0.2816 -0.7827
 4292TIP3   OH237070   5.990   0.628  15.737 -0.7724 -0.1904  0.1012
 4292TIP3    H137071   6.045   0.658  15.810  0.6323  2.3838 -1.8401
 4292TIP3    H237072   6.052   0.593  15.673 -1.7454 -0.2942 -0.8043
 4293TIP3   OH237073   0.230   2.773  16.433  0.5221  0.1702 -0.1341
 4293TIP3    H137074   0.215   2.867  16.425  0.2588  0.2254  0.8791
 4293TIP3    H237075   0.273   2.763  16.518 -2.1596 -0.8840  1.2249
 4294TIP3   OH237076   1.287   4.445  17.819  0.0335  0.1417 -0.1761
 4294TIP3    H137077   1.193   4.430  17.834  0.1980 -0.4183  0.3631
 4294TIP3    H237078   1.313   4.504  17.889 -0.0230  0.7058 -0.6306
 4295TIP3   OH237079   1.503   0.692  17.440  0.1684  0.3741  0.1617
 4295TIP3    H137080   1.467   0.704  17.528  0.5365  0.8493  0.2495
 4295TIP3    H237081   1.556   0.612  17.447 -3.8408 -2.7190 -0.9099
 4296TIP3   OH237082   6.091   3.818  15.703 -0.3184 -0.3436 -0.2652
 4296TIP3    H137083   6.048   3.742  15.742 -2.7670  1.1304  0.1608
 4296TIP3    H237084   6.129   3.865  15.777 -1.9427  0.6481 -0.0108
 4297TIP3   OH237085   4.217   2.927  14.851 -0.2143 -0.0647  0.8209
 4297TIP3    H137086   4.283   2.861  14.834 -0.4565 -0.3881  1.1270
 4297TIP3    H237087   4.147   2.908  14.788  0.3427  0.8000 -0.0880
 4298TIP3   OH237088   5.526   4.268  16.914 -0.4492 -0.2534 -0.1571
 4298TIP3    H137089   5.514   4.225  16.999 -3.4615 -0.3142 -0.4927
 4298TIP3    H237090   5.492   4.204  16.851 -2.2381  1.3955 -0.9501
 4299TIP3   OH237091   1.824   1.891  17.619 -0.1328 -0.1710  0.2868
 4299TIP3    H137092   1.862   1.834  17.552  0.3156  0.4893 -0.0194
 4299TIP3    H237093   1.882   1.967  17.623 -0.1278 -0.2219  1.4595
 4300TIP3   OH237094   5.885   4.339  15.337 -0.7591 -0.0048 -0.3404
 4300TIP3    H137095   5.963   4.378  15.299 -0.8126  0.3028 -0.1395
 4300TIP3    H237096   5.822   4.336  15.265 -0.7359  0.2316 -0.3700
 4301TIP3   OH237097   5.845   0.591  17.734 -0.1989  0.0801 -0.4916
 4301TIP3    H137098   5.909   0.656  17.763 -1.2482  0.2843  1.6074
 4301TIP3    H237099   5.892   0.507  17.739  0.1592  0.3126  0.2772
 4302TIP3   OH237100   6.055   5.076  16.568 -0.0685  0.1287 -0.8174
 4302TIP3    H137101   6.094   4.993  16.542  0.1158 -1.1306  2.8327
 4302TIP3    H237102   5.963   5.055  16.585 -0.6887  1.3683 -2.3869
 4303TIP3   OH237103   1.793   2.658  16.952 -0.4719 -0.7256  0.2319
 4303TIP3    H137104   1.787   2.638  16.859 -1.3867 -1.2576  0.3910
 4303TIP3    H237105   1.843   2.740  16.956  0.5015 -1.2448 -0.6474
 4304TIP3   OH237106   3.107   2.309  16.739  0.3590 -0.9212 -0.3781
 4304TIP3    H137107   3.157   2.239  16.697  2.7171  1.3006 -1.5397
 4304TIP3    H237108   3.096   2.374  16.670 -0.7123  0.3908  0.9844
 4305TIP3   OH237109   3.036   1.265  14.796  0.9627  0.3594 -0.0155
 4305TIP3    H137110   3.060   1.177  14.767  0.4072  0.7788 -1.9329
 4305TIP3    H237111   3.090   1.323  14.743  0.0590  1.1909 -0.0582
 4306TIP3   OH237112   3.729   6.057  16.801 -0.2709 -1.0917 -0.0513
 4306TIP3    H137113   3.759   6.143  16.831 -2.6599 -0.6009  1.1229
 4306TIP3    H237114   3.697   6.073  16.712 -2.0905 -0.3895  0.6978
 4307TIP3   OH237115   3.273   2.894  16.992  0.3085  0.0188  0.3457
 4307TIP3    H137116   3.256   2.918  17.083  1.2231  1.4713  0.1569
 4307TIP3    H237117   3.317   2.970  16.954 -0.6260 -0.3075 -1.4998
 4308TIP3   OH237118   4.489   1.229  17.073 -0.1801 -0.5393  0.1106
 4308TIP3    H137119   4.485   1.177  16.993 -0.1736 -0.6625  0.1899
 4308TIP3    H237120   4.411   1.203  17.122  1.5984 -3.1669  1.7995
 4309TIP3   OH237121   6.351   0.447  17.891 -0.2625  0.2041  0.2711
 4309TIP3    H137122   6.387   0.360  17.905  1.2270  1.0199  1.9543
 4309TIP3    H237123   6.327   0.449  17.798  2.6996 -0.9210 -0.6285
 4310TIP3   OH237124   3.634   1.343  18.342  0.0101  0.4562  0.0632
 4310TIP3    H137125   3.600   1.364  18.428 -1.8784  0.4405 -0.6284
 4310TIP3    H237126   3.588   1.403  18.283  1.6489  0.8272 -0.8943
 4311TIP3   OH237127   3.421   1.273  16.044 -0.0606 -0.4684 -0.0187
 4311TIP3    H137128   3.349   1.273  16.107  0.2705 -1.6447  0.3802
 4311TIP3    H237129   3.496   1.239  16.093  0.4458 -0.4892 -0.7916
 4312TIP3   OH237130   0.614   0.674  15.914 -0.4046 -0.7067  0.4357
 4312TIP3    H137131   0.574   0.635  15.992 -1.7808  1.4352  0.8817
 4312TIP3    H237132   0.680   0.734  15.948  0.1153 -0.9412 -0.1381
 4313TIP3   OH237133   0.958   6.033  16.752 -0.3343  0.0860  0.7625
 4313TIP3    H137134   1.029   6.062  16.810 -0.1947  1.0062  0.1378
 4313TIP3    H237135   0.890   6.100  16.761 -0.7936 -0.3627  0.7245
 4314TIP3   OH237136   3.701   2.338  18.081 -0.4122  0.1123  0.1941
 4314TIP3    H137137   3.702   2.418  18.134 -1.1572  0.2194  0.0511
 4314TIP3    H237138   3.659   2.363  18.000  1.4416  0.1509 -0.8204
 4315TIP3   OH237139   6.281   0.136  14.684  0.3052 -0.0144  0.0680
 4315TIP3    H137140   6.222   0.116  14.611  1.2568  3.4390 -1.8915
 4315TIP3    H237141   6.346   0.065  14.682 -0.4500 -0.7182 -1.5681
 4316TIP3   OH237142   2.924   5.688  17.966 -0.1262 -0.0868 -0.1091
 4316TIP3    H137143   2.986   5.761  17.971  1.4244 -1.3170 -0.7146
 4316TIP3    H237144   2.858   5.708  18.034  1.9152  0.3589  1.8636
 4317TIP3   OH237145   4.036   2.183  15.515 -0.2462 -0.4871  0.1727
 4317TIP3    H137146   4.014   2.210  15.604 -0.7555  0.4982 -0.2221
 4317TIP3    H237147   3.951   2.161  15.475 -0.1840  0.2529 -0.4115
 4318TIP3   OH237148   2.160   4.419  15.181  0.2299 -0.1611 -0.1515
 4318TIP3    H137149   2.179   4.338  15.135  1.2659  0.1839 -0.3672
 4318TIP3    H237150   2.064   4.424  15.184  0.1179 -0.1756 -2.3160
 4319TIP3   OH237151   6.099   3.251  15.831 -0.3119  0.0211 -0.0686
 4319TIP3    H137152   6.096   3.269  15.925  1.4101 -0.1656  0.0602
 4319TIP3    H237153   6.157   3.176  15.823 -0.9598 -0.3749 -1.2442
 4320TIP3   OH237154   2.702   0.427  16.183  0.1483  0.6314  0.0939
 4320TIP3    H137155   2.766   0.424  16.254 -0.8986 -0.6922  1.0295
 4320TIP3    H237156   2.629   0.478  16.218 -0.5055 -0.2918  0.1199
 4321TIP3   OH237157   2.949   4.078  15.800  0.3181 -0.1491 -0.2357
 4321TIP3    H137158   2.863   4.038  15.813  0.3244 -0.2742 -0.5548
 4321TIP3    H237159   2.955   4.090  15.705  0.5637  0.0568 -0.1955
 4322TIP3   OH237160   1.651   1.773  17.991 -0.0487 -0.0516 -0.6672
 4322TIP3    H137161   1.718   1.842  18.001 -1.1566  0.9211  0.3552
 4322TIP3    H237162   1.687   1.699  18.040  1.3243 -0.3724 -2.0792
 4323TIP3   OH237163   2.355   1.245  17.547  0.1941  0.1463  0.6529
 4323TIP3    H137164   2.443   1.255  17.512 -0.3516  0.1142 -0.7902
 4323TIP3    H237165   2.324   1.161  17.513 -0.5338  0.3250  0.8490
 4324TIP3   OH237166   6.594   3.266  16.616  0.3934 -0.3318 -0.1458
 4324TIP3    H137167   6.597   3.353  16.576  0.3573 -1.3261 -2.4723
 4324TIP3    H237168   6.635   3.278  16.702  0.9751  1.8464 -0.6556
 4325TIP3   OH237169   0.071   0.600  15.727  0.0457  0.1161  0.2221
 4325TIP3    H137170   0.075   0.646  15.811 -0.9090  1.3296 -0.3545
 4325TIP3    H237171   0.017   0.523  15.744 -1.1817  0.9980  0.4774
 4326TIP3   OH237172   6.138   2.707  16.989  0.1744  0.1684  0.5822
 4326TIP3    H137173   6.197   2.645  16.945 -0.8922 -0.9193  0.6244
 4326TIP3    H237174   6.184   2.730  17.070  0.9885  0.1537  0.1429
 4327TIP3   OH237175   3.172   1.468  17.196  0.0291 -1.0757  0.0957
 4327TIP3    H137176   3.131   1.383  17.178  0.1141 -1.6522  2.3342
 4327TIP3    H237177   3.256   1.447  17.235 -0.3263 -0.0235  1.5344
 4328TIP3   OH237178   5.943   1.606  16.148 -0.3685  0.2710 -0.5860
 4328TIP3    H137179   5.929   1.699  16.168  0.3677  0.7802 -2.3408
 4328TIP3    H237180   5.855   1.568  16.155 -0.6570  1.0469  0.3207
 4329TIP3   OH237181   0.692   1.018  16.780  0.1476  0.0292  0.5856
 4329TIP3    H137182   0.720   1.109  16.783 -0.0043  0.3078 -2.7066
 4329TIP3    H237183   0.598   1.021  16.794 -0.1346  0.6483 -1.1856
 4330TIP3   OH237184   2.276   4.163  15.812 -0.2343 -0.8011 -0.2429
 4330TIP3    H137185   2.223   4.237  15.841 -0.1461 -0.6640 -0.4276
 4330TIP3    H237186   2.367   4.193  15.821 -0.2145  0.0743 -2.7427
 4331TIP3   OH237187   1.586   0.388  14.932  0.0078  1.0125 -0.0370
 4331TIP3    H137188   1.620   0.468  14.892  0.0378  1.3290  0.6022
 4331TIP3    H237189   1.663   0.338  14.957 -0.0094  0.9642 -0.0803
 4332TIP3   OH237190   6.312   0.922  15.218 -0.1994 -0.0638  0.5259
 4332TIP3    H137191   6.227   0.895  15.183 -0.7628  2.2807 -0.0528
 4332TIP3    H237192   6.371   0.917  15.143 -0.3294  0.4324  0.3910
 4333TIP3   OH237193   4.008   5.806  17.082 -0.6384  0.3036  0.2847
 4333TIP3    H137194   4.029   5.898  17.066 -1.2135  0.2994 -0.5738
 4333TIP3    H237195   3.991   5.802  17.176 -2.4882  1.4999  0.0620
 4334TIP3   OH237196   4.362   2.129  15.242  0.2082  0.0569  0.2360
 4334TIP3    H137197   4.394   2.194  15.179  1.0873 -0.6002 -0.0165
 4334TIP3    H237198   4.312   2.067  15.188 -0.2799  0.2860  0.4160
 4335TIP3   OH237199   2.475   2.904  17.625 -0.2074  0.7404  0.1837
 4335TIP3    H137200   2.493   2.852  17.547  0.4035  0.4991  0.4795
 4335TIP3    H237201   2.416   2.973  17.595 -0.2130  0.4741 -0.4263
 4336TIP3   OH237202   3.380   5.259  15.747 -0.4667 -0.3084 -0.1645
 4336TIP3    H137203   3.442   5.221  15.684 -0.7210  0.9661 -1.2488
 4336TIP3    H237204   3.293   5.238  15.711 -0.6105  1.2820 -0.8250
 4337TIP3   OH237205   3.330   6.537  17.139 -0.3156  0.9900  0.0882
 4337TIP3    H137206   3.266   6.597  17.100 -1.6071  1.3144  2.4804
 4337TIP3    H237207   3.277   6.471  17.184  0.9700  1.0795  1.8897
 4338TIP3   OH237208   1.659   5.758  14.062 -0.1001 -0.2186 -0.8779
 4338TIP3    H137209   1.569   5.789  14.052 -0.4829 -1.4028 -1.2718
 4338TIP3    H237210   1.695   5.761  13.974  0.3936  0.6417 -0.6584
 4339TIP3   OH237211   4.315   5.083  15.115 -0.2216 -0.4807  0.2709
 4339TIP3    H137212   4.288   5.140  15.044  0.3356  0.3633  0.7177
 4339TIP3    H237213   4.385   5.029  15.077 -0.4420 -0.5610 -0.0243
 4340TIP3   OH237214   3.375   2.659  16.489  0.3015  0.4502 -0.2041
 4340TIP3    H137215   3.425   2.579  16.475 -1.1238 -0.3356 -0.9881
 4340TIP3    H237216   3.359   2.662  16.583  3.0721  1.5483  0.3579
 4341TIP3   OH237217   1.149   0.337  16.271  0.2192 -0.4803  0.5173
 4341TIP3    H137218   1.224   0.322  16.328 -0.1825 -0.8134  0.9572
 4341TIP3    H237219   1.184   0.325  16.182  0.9635  0.5351  0.6512
 4342TIP3   OH237220   2.156   1.120  16.812 -0.1247  0.3573  0.0581
 4342TIP3    H137221   2.211   1.181  16.763 -1.9538  1.9524 -0.1628
 4342TIP3    H237222   2.181   1.133  16.904  2.3137 -1.5955 -0.2564
 4343TIP3   OH237223   4.085   1.613  16.805 -0.1606 -0.2972 -0.2511
 4343TIP3    H137224   4.150   1.617  16.875  0.4615  0.5336 -0.8505
 4343TIP3    H237225   4.001   1.613  16.850  0.2361 -0.0309  0.4978
 4344TIP3   OH237226   0.091   1.763  16.588  0.1928  0.0243  0.2098
 4344TIP3    H137227   0.015   1.706  16.595 -0.9841  1.2896 -1.3444
 4344TIP3    H237228   0.151   1.733  16.656 -0.4075 -2.9439 -0.4694
 4345TIP3   OH237229   1.506   5.460  16.702 -0.3801  0.2764 -0.1820
 4345TIP3    H137230   1.421   5.419  16.720  1.5407 -3.2767  2.0105
 4345TIP3    H237231   1.527   5.432  16.613 -0.7951 -0.2810 -0.1090
 4346TIP3   OH237232   1.794   4.672  17.258  0.4638  0.5721 -0.2999
 4346TIP3    H137233   1.808   4.729  17.333  0.4368  1.0746 -0.6698
 4346TIP3    H237234   1.880   4.635  17.239  0.0556 -1.4947  1.4787
 4347TIP3   OH237235   5.494   0.890  16.211 -0.5050 -0.2590  0.3293
 4347TIP3    H137236   5.471   0.797  16.221 -1.0480 -0.0528  1.1186
 4347TIP3    H237237   5.581   0.890  16.172  0.6764 -1.1453  2.8048
 4348TIP3   OH237238   6.118   1.996  15.560 -0.3122  0.7339 -0.0203
 4348TIP3    H137239   6.208   1.996  15.526 -0.5635  1.5400 -0.7240
 4348TIP3    H237240   6.124   1.952  15.645  1.0144  2.0376  0.5988
 4349TIP3   OH237241   4.405   3.072  17.869 -0.2247 -0.5011 -0.1868
 4349TIP3    H137242   4.463   3.140  17.834  1.0204  0.2981  3.0517
 4349TIP3    H237243   4.336   3.121  17.914  0.1169 -1.3121  1.3003
 4350TIP3   OH237244   1.548   5.506  17.006  0.2041 -0.5084  0.6188
 4350TIP3    H137245   1.599   5.474  16.932  0.2996  1.5423 -0.2592
 4350TIP3    H237246   1.613   5.525  17.074  0.0811 -2.8141  1.4908
 4351TIP3   OH237247   1.347   5.595  16.476  0.6138 -0.4272 -0.0378
 4351TIP3    H137248   1.259   5.613  16.511  0.2591 -0.6715 -0.7758
 4351TIP3    H237249   1.395   5.677  16.489  0.6899 -0.6923  1.5540
 4352TIP3   OH237250   1.581   4.600  14.717 -0.1486  0.1590  0.3333
 4352TIP3    H137251   1.613   4.515  14.687  0.1437  0.4551 -0.2160
 4352TIP3    H237252   1.618   4.663  14.654 -0.4674  0.6758  0.6561
 4353TIP3   OH237253   2.790   1.529  14.276 -0.1725 -0.5216 -0.5113
 4353TIP3    H137254   2.879   1.505  14.302 -0.3282 -0.2526  0.3020
 4353TIP3    H237255   2.761   1.589  14.344 -1.1267 -0.9298 -0.5447
 4354TIP3   OH237256   3.123   3.530  16.787 -0.1067 -0.3651 -0.2058
 4354TIP3    H137257   3.054   3.485  16.837  0.3434 -0.4678  0.3337
 4354TIP3    H237258   3.157   3.463  16.728  0.0302 -0.5243  0.0509
 4355TIP3   OH237259   2.109   0.211  14.609 -0.2444  0.1612  0.3186
 4355TIP3    H137260   2.149   0.236  14.526  0.7470  0.2110  0.7941
 4355TIP3    H237261   2.129   0.118  14.618 -0.4471  0.1299  0.4510
 4356TIP3   OH237262   0.781   6.185  16.890 -0.7457 -0.8203  0.1269
 4356TIP3    H137263   0.849   6.241  16.926 -1.9307  0.3429  0.6050
 4356TIP3    H237264   0.774   6.113  16.953  0.3189 -1.1985 -0.1551
 4357TIP3   OH237265   1.811   4.115  16.026 -0.0993  0.0634  0.2546
 4357TIP3    H137266   1.825   4.176  16.099 -1.1338 -0.6460  1.0836
 4357TIP3    H237267   1.891   4.064  16.022 -0.3736 -0.5132  1.5400
 4358TIP3   OH237268   0.972   4.418  16.396 -0.3395 -0.4813 -0.2387
 4358TIP3    H137269   1.040   4.355  16.372 -0.9106 -1.1389 -0.1458
 4358TIP3    H237270   0.926   4.435  16.314  0.7246  0.9672 -0.5895
 4359TIP3   OH237271   0.953   5.747  16.928 -0.1767 -0.4377 -0.9932
 4359TIP3    H137272   1.049   5.754  16.932 -0.1633 -0.4297 -1.3164
 4359TIP3    H237273   0.932   5.680  16.992  0.0132 -0.1577 -0.6334
 4360TIP3   OH237274   6.314   0.164  15.482  0.4655  0.0028  0.4644
 4360TIP3    H137275   6.401   0.145  15.517  0.5883  0.0259  0.1756
 4360TIP3    H237276   6.331   0.214  15.402  0.1691  0.7416  0.8469
 4361TIP3   OH237277   2.555   2.510  17.113 -0.2927 -0.4640 -0.1977
 4361TIP3    H137278   2.554   2.419  17.144 -0.7756 -0.2366  0.4899
 4361TIP3    H237279   2.506   2.508  17.031 -2.4359 -0.4403  1.0181
 4362TIP3   OH237280   5.263   6.049  14.639  0.2531 -0.0844  0.0121
 4362TIP3    H137281   5.194   6.112  14.617  0.4179 -0.8507 -3.1674
 4362TIP3    H237282   5.218   5.965  14.642  0.4836 -0.1722  1.5881
 4363TIP3   OH237283   2.081   6.530  15.957  0.0671 -0.1726  0.2397
 4363TIP3    H137284   2.104   6.560  15.869  2.7813 -1.8750  0.2717
 4363TIP3    H237285   2.096   6.606  16.013 -0.1456  0.4700 -0.5637
 4364TIP3   OH237286   3.180   0.317  14.550  0.0546 -0.0140  0.1705
 4364TIP3    H137287   3.174   0.357  14.464  3.5766  0.2549 -0.1072
 4364TIP3    H237288   3.155   0.387  14.611 -1.0753  0.2289 -0.5385
 4365TIP3   OH237289   3.705   3.951  17.544  0.0476 -0.3753 -0.4519
 4365TIP3    H137290   3.672   3.960  17.633 -0.8340  0.0466 -0.8080
 4365TIP3    H237291   3.774   4.017  17.537  0.8423 -1.1009  0.2221
 4366TIP3   OH237292   1.091   5.856  16.601 -0.5750  0.1079 -0.4214
 4366TIP3    H137293   1.184   5.878  16.607 -0.5154  0.6407 -2.5204
 4366TIP3    H237294   1.047   5.928  16.644 -0.0272 -0.2746  0.8218
 4367TIP3   OH237295   1.844   2.723  15.732 -0.2472  0.1600 -0.3267
 4367TIP3    H137296   1.857   2.758  15.643 -2.9860  0.7355 -0.6051
 4367TIP3    H237297   1.858   2.798  15.789  1.3374 -0.1673 -0.2473
 4368TIP3   OH237298   5.715   3.932  15.568 -0.3001  0.6312  0.2824
 4368TIP3    H137299   5.694   3.898  15.655  0.5683  0.4842  0.4474
 4368TIP3    H237300   5.682   4.021  15.567  0.7842  1.0688  1.2232
 4369TIP3   OH237301   4.530   0.830  17.650 -0.0569 -0.1283  0.4644
 4369TIP3    H137302   4.575   0.817  17.733  0.5306 -1.2867 -0.0083
 4369TIP3    H237303   4.524   0.742  17.612 -0.6064  0.3312 -0.5716
 4370TIP3   OH237304   5.871   6.011  17.962 -0.5254 -0.2302 -0.2327
 4370TIP3    H137305   5.779   6.000  17.984 -0.1765 -2.3652  0.3813
 4370TIP3    H237306   5.915   5.935  18.001  1.4728  0.6260 -0.6644
 4371TIP3   OH237307   1.895   4.512  14.540  0.1830  0.2852  0.3608
 4371TIP3    H137308   1.870   4.600  14.512 -1.1317  0.5014  1.9817
 4371TIP3    H237309   1.811   4.468  14.555  0.7526 -1.9084 -2.1479
 4372TIP3   OH237310   0.207   2.413  16.743 -0.1619  0.1176  0.6563
 4372TIP3    H137311   0.193   2.463  16.663  0.9816  0.6581  0.7680
 4372TIP3    H237312   0.214   2.479  16.812  0.1295 -0.2693  1.0034
 4373TIP3   OH237313   6.444   6.438  15.718 -0.1069 -0.1522  0.7790
 4373TIP3    H137314   6.533   6.433  15.684 -1.0229 -1.5377 -1.6540
 4373TIP3    H237315   6.439   6.368  15.782  0.3865 -0.4557  0.4905
 4374TIP3   OH237316   0.074   2.054  16.954 -0.4851 -0.2046  0.1932
 4374TIP3    H137317   0.047   1.973  16.997 -0.6382  0.3181  1.0963
 4374TIP3    H237318   0.140   2.092  17.013  0.5327 -0.2993 -0.8398
 4375TIP3   OH237319   3.407   0.362  16.939 -0.0292  0.2479  0.0635
 4375TIP3    H137320   3.345   0.340  17.009  1.2586 -0.2207  1.0998
 4375TIP3    H237321   3.366   0.435  16.893 -2.7083 -1.8653 -1.1371
 4376TIP3   OH237322   3.212   1.553  15.992 -0.2942  0.0856  0.0951
 4376TIP3    H137323   3.152   1.490  15.952 -1.1403 -0.0129  1.4582
 4376TIP3    H237324   3.178   1.566  16.081  0.2817  1.9168  0.0886
 4377TIP3   OH237325   4.550   6.022  15.340  0.1656 -0.0314  0.4471
 4377TIP3    H137326   4.555   6.057  15.252 -0.5609  0.8596  0.7513
 4377TIP3    H237327   4.614   6.072  15.390 -1.0472  1.0673  0.9382
 4378TIP3   OH237328   2.813   3.458  15.553 -0.1886 -0.3078 -0.4437
 4378TIP3    H137329   2.726   3.451  15.592 -0.1712  1.4878  0.0255
 4378TIP3    H237330   2.813   3.545  15.512  0.1454 -1.6495 -3.6219
 4379TIP3   OH237331   5.841   1.622  16.524 -0.2053  0.6930 -0.1415
 4379TIP3    H137332   5.906   1.612  16.593 -0.0503 -1.4670 -0.5189
 4379TIP3    H237333   5.863   1.704  16.481  0.2101  1.6553  1.8024
 4380TIP3   OH237334   5.054   0.430  15.746 -0.0283 -0.6859 -0.1325
 4380TIP3    H137335   5.130   0.479  15.779  0.9288 -1.9068 -0.4383
 4380TIP3    H237336   5.045   0.356  15.805  0.0604 -1.4574 -1.0508
 4381TIP3   OH237337   3.573   2.644  17.890  0.2127  0.1609  0.1065
 4381TIP3    H137338   3.650   2.659  17.945 -0.2078 -0.1167  0.7898
 4381TIP3    H237339   3.552   2.551  17.904  0.5844 -0.1279 -1.1647
 4382TIP3   OH237340   4.942   0.208  16.250 -0.4032  0.0143 -0.2098
 4382TIP3    H137341   4.934   0.125  16.203  0.0903  0.1665 -0.5638
 4382TIP3    H237342   5.035   0.230  16.246 -0.4543  0.3528  0.2850
 4383TIP3   OH237343   5.807   5.447  17.030 -0.3798  0.1907 -0.4439
 4383TIP3    H137344   5.848   5.471  16.947  1.4993 -1.3513 -0.0375
 4383TIP3    H237345   5.849   5.502  17.096  0.3999 -0.7340 -0.1438
 4384TIP3   OH237346   3.921   2.242  17.489 -0.6266  0.4600 -0.0716
 4384TIP3    H137347   3.978   2.165  17.476  0.4694  1.1100  0.6939
 4384TIP3    H237348   3.898   2.269  17.401 -2.6164 -1.8530 -0.3556
 4385TIP3   OH237349   0.619   0.013  16.216  0.0977 -0.3034  0.2045
 4385TIP3    H137350   0.616  -0.075  16.179  0.3631 -0.0473 -0.4375
 4385TIP3    H237351   0.616   0.071  16.140 -0.1219  0.2439  0.6277
 4386TIP3   OH237352   0.872   2.709  15.056  0.4848  0.0643  0.1401
 4386TIP3    H137353   0.938   2.729  15.122  0.6383 -0.7844  0.2483
 4386TIP3    H237354   0.899   2.759  14.979  1.3067 -0.3439  0.1586
 4387TIP3   OH237355   4.240   5.968  15.897  0.2954  0.3645  0.0333
 4387TIP3    H137356   4.271   5.997  15.982 -3.6945  1.1020  1.4471
 4387TIP3    H237357   4.212   5.878  15.910 -2.6513  1.2132  0.3771
 4388TIP3   OH237358   6.036   5.866  17.574  0.1928 -0.0954 -0.4913
 4388TIP3    H137359   6.034   5.926  17.499  0.0628 -0.3208 -0.6735
 4388TIP3    H237360   5.945   5.863  17.604 -0.1767 -1.5890 -1.6188
 4389TIP3   OH237361   6.144   5.326  16.424 -0.0217 -0.3855  0.1765
 4389TIP3    H137362   6.132   5.396  16.488 -1.6688 -1.6444  1.3498
 4389TIP3    H237363   6.117   5.247  16.470 -0.6939 -1.4404 -1.8780
 4390TIP3   OH237364   1.842   1.771  17.222 -0.0057  0.3357 -0.7281
 4390TIP3    H137365   1.855   1.865  17.228 -0.0035  0.2906  0.0890
 4390TIP3    H237366   1.875   1.737  17.305 -3.4518  0.0099  0.6488
 4391TIP3   OH237367   3.501   3.593  16.928  0.1437 -0.2322 -0.1012
 4391TIP3    H137368   3.438   3.616  16.996  0.4273  2.3126 -0.6296
 4391TIP3    H237369   3.584   3.630  16.957  0.5911 -0.3681 -1.1482
 4392TIP3   OH237370   4.100   1.614  15.589 -0.3778  0.3445  0.0236
 4392TIP3    H137371   4.133   1.533  15.629  0.1384  0.5908  0.1039
 4392TIP3    H237372   4.005   1.601  15.584 -0.7771  1.0937  3.2008
 4393TIP3   OH237373   1.692   6.646  14.980  0.1612  0.0611 -0.3103
 4393TIP3    H137374   1.722   6.597  15.057  0.9114  0.3657 -0.4005
 4393TIP3    H237375   1.772   6.682  14.942 -0.2822  0.5327 -0.8112
 4394TIP3   OH237376   3.587   2.480  15.318 -0.5718 -0.0124  0.3252
 4394TIP3    H137377   3.517   2.535  15.354 -0.9825  1.3942 -2.3765
 4394TIP3    H237378   3.667   2.515  15.358 -1.0790  0.8176  0.6556
 4395TIP3   OH237379   2.013   4.482  17.462  0.1593  0.3614 -0.6073
 4395TIP3    H137380   2.032   4.506  17.553  0.9802  1.9043 -1.1570
 4395TIP3    H237381   2.097   4.491  17.417  0.0267 -1.5363 -1.3208
 4396TIP3   OH237382   1.873   4.176  17.888 -0.1754  0.6792 -0.0050
 4396TIP3    H137383   1.849   4.088  17.918 -1.4307  0.9865 -0.0462
 4396TIP3    H237384   1.949   4.200  17.941 -1.2761  0.5127  1.7445
 4397TIP3   OH237385   6.577   0.435  15.816 -0.6422  0.4756  0.0877
 4397TIP3    H137386   6.547   0.367  15.755 -0.9339 -0.4816  1.2504
 4397TIP3    H237387   6.592   0.388  15.898  1.9360  1.2946  0.1833
 4398TIP3   OH237388   0.542   3.037  16.687 -0.1854 -0.4014  0.0274
 4398TIP3    H137389   0.616   2.994  16.643  1.3086  1.2926  0.7627
 4398TIP3    H237390   0.582   3.090  16.756 -2.2925 -1.4853  2.2506
 4399TIP3   OH237391   1.276   4.179  17.346 -0.1139 -0.7175  0.0035
 4399TIP3    H137392   1.355   4.232  17.356 -0.3612 -0.5023  0.9154
 4399TIP3    H237393   1.264   4.171  17.252 -0.4628  1.4210 -0.1694
 4400TIP3   OH237394   0.682   4.352  16.289 -0.0167 -0.1359  0.2183
 4400TIP3    H137395   0.708   4.270  16.247 -0.1940 -0.2222  0.2739
 4400TIP3    H237396   0.659   4.409  16.217  1.1234  0.2282  0.1164
 4401TIP3   OH237397   0.104   5.872  17.133 -0.3126  0.3792  0.6048
 4401TIP3    H137398   0.101   5.964  17.156  1.1115  0.4202  0.7369
 4401TIP3    H237399   0.053   5.828  17.201 -0.6304  1.0215  0.7839
 4402TIP3   OH237400   5.210   5.962  16.909  0.5752  0.0004  0.4162
 4402TIP3    H137401   5.244   5.889  16.859 -0.1984  0.8420 -1.4123
 4402TIP3    H237402   5.118   5.968  16.884 -0.2887 -0.4560  3.0971
 4403TIP3   OH237403   0.497   0.162  16.981 -0.0005  0.7484  0.7082
 4403TIP3    H137404   0.426   0.220  17.009 -0.9945 -0.3445  0.5348
 4403TIP3    H237405   0.562   0.167  17.051  0.4932  2.9489  0.1559
 4404TIP3   OH237406   4.955   2.105  17.042 -0.3424 -0.1525  0.1640
 4404TIP3    H137407   4.995   2.123  17.128  2.5497  0.3678 -1.1623
 4404TIP3    H237408   4.971   2.012  17.027 -1.1008 -0.3091  0.2699
 4405TIP3   OH237409   0.637   4.607  17.625 -0.2754  0.5703  0.4649
 4405TIP3    H137410   0.621   4.689  17.578  1.2581  0.1306 -0.9204
 4405TIP3    H237411   0.655   4.634  17.715  0.2338  1.7799  0.0253
 4406TIP3   OH237412   3.357   6.440  16.288  0.5999 -0.3804  0.3254
 4406TIP3    H137413   3.331   6.362  16.238  0.6185  0.5497 -1.1850
 4406TIP3    H237414   3.294   6.444  16.360 -1.5909  0.0755 -1.4913
 4407TIP3   OH237415   0.660   6.087  15.107  0.4709 -0.1402  0.1387
 4407TIP3    H137416   0.731   6.084  15.171  0.5773 -1.6476  0.0039
 4407TIP3    H237417   0.656   6.178  15.078  1.7045  0.1598  0.8624
 4408TIP3   OH237418   3.532   5.291  16.171  0.2613  0.0040  0.0032
 4408TIP3    H137419   3.548   5.196  16.166  0.7468  0.1059 -0.4216
 4408TIP3    H237420   3.559   5.324  16.086 -0.8932  0.3902 -0.2262
 4409TIP3   OH237421   1.501   5.829  15.392  0.3784  0.0934 -0.0380
 4409TIP3    H137422   1.465   5.807  15.306 -0.4708  1.5749 -0.0921
 4409TIP3    H237423   1.557   5.905  15.376  0.1513  0.4320  0.7251
 4410TIP3   OH237424   1.395   3.984  16.877  0.3035 -0.0675 -0.5710
 4410TIP3    H137425   1.300   3.985  16.889  0.3508 -0.5368 -0.0895
 4410TIP3    H237426   1.416   4.070  16.841  0.0416  1.1809  2.0294
 4411TIP3   OH237427   5.154   4.580  16.310 -0.3312  0.5458 -0.0232
 4411TIP3    H137428   5.241   4.621  16.307 -1.3396  2.7348 -1.6524
 4411TIP3    H237429   5.164   4.499  16.261  1.2704 -0.3953  1.7080
 4412TIP3   OH237430   4.805   3.523  18.044 -0.0817 -0.4836  0.1119
 4412TIP3    H137431   4.797   3.599  18.101 -0.8727 -0.0775 -0.5033
 4412TIP3    H237432   4.899   3.508  18.035  0.2006  1.6523 -1.3028
 4413TIP3   OH237433   6.076   2.942  15.853  0.3908  0.1862  0.2926
 4413TIP3    H137434   6.032   2.898  15.925  1.3870 -0.5375  0.4733
 4413TIP3    H237435   6.034   2.908  15.774 -0.2659  0.5047  0.4961
 4414TIP3   OH237436   1.498   6.484  16.196 -0.1716 -0.4221  0.4369
 4414TIP3    H137437   1.526   6.568  16.234  1.2960 -0.1023 -1.2054
 4414TIP3    H237438   1.566   6.422  16.222  1.3365 -0.0172 -2.1671
 4415TIP3   OH237439   1.361   5.695  15.213 -0.3720  0.0055  0.2376
 4415TIP3    H137440   1.377   5.725  15.124 -1.7331 -0.0856 -0.0628
 4415TIP3    H237441   1.342   5.602  15.204 -0.9516  0.0847  0.5510
 4416TIP3   OH237442   4.152   0.726  17.689 -0.1914  0.4253  0.2147
 4416TIP3    H137443   4.180   0.740  17.779 -1.3817  0.4484  0.5911
 4416TIP3    H237444   4.096   0.648  17.693  1.1636 -0.6658 -0.8013
 4417TIP3   OH237445   2.033   4.567  17.098 -0.1470 -0.1888 -0.6621
 4417TIP3    H137446   2.118   4.604  17.121 -0.2863 -0.9395  1.3004
 4417TIP3    H237447   2.022   4.494  17.160 -2.5289  0.3437 -0.3651
 4418TIP3   OH237448   5.776   5.269  14.931  0.0270  0.3987 -0.6506
 4418TIP3    H137449   5.786   5.288  14.838  2.7171  2.8777 -0.0187
 4418TIP3    H237450   5.856   5.222  14.954 -1.3204 -1.6233  0.1923
 4419TIP3   OH237451   6.467   2.627  17.407  0.3012 -0.2130 -0.2921
 4419TIP3    H137452   6.415   2.547  17.409 -1.4765  0.8918  0.8866
 4419TIP3    H237453   6.549   2.602  17.365  0.3134 -2.9430  1.1384
 4420TIP3   OH237454   2.319   3.906  15.877  0.1263 -0.2162 -0.3047
 4420TIP3    H137455   2.234   3.868  15.853 -0.1825 -0.0800  0.5506
 4420TIP3    H237456   2.302   4.000  15.886  0.5396 -0.0820 -0.8579
 4421TIP3   OH237457   5.304   5.935  16.622 -0.5598  0.1415 -0.0402
 4421TIP3    H137458   5.370   5.969  16.683 -1.1852  0.6982  0.3289
 4421TIP3    H237459   5.309   5.840  16.633  0.0293  0.1845  0.1416
 4422TIP3   OH237460   3.681   6.515  17.637  0.4375  0.5313  0.2996
 4422TIP3    H137461   3.643   6.587  17.688  1.7729  1.0369  0.6181
 4422TIP3    H237462   3.714   6.557  17.557  1.6616  0.3730  0.7067
 4423TIP3   OH237463   0.072   5.832  18.254 -0.2394  0.7615  0.1452
 4423TIP3    H137464   0.041   5.756  18.205  0.7603  0.3901  0.0807
 4423TIP3    H237465   0.027   5.827  18.338  1.6129 -1.2819  1.0968
 4424TIP3   OH237466   2.199   0.832  15.967 -0.1905  0.5274  0.2679
 4424TIP3    H137467   2.235   0.845  15.879 -0.0715  1.0438  0.3893
 4424TIP3    H237468   2.224   0.911  16.015 -0.1573  0.1972  0.7989
 4425TIP3   OH237469   4.771   4.819  15.616 -0.3889 -0.1319  0.2730
 4425TIP3    H137470   4.776   4.756  15.688 -1.0191 -1.9437 -1.1898
 4425TIP3    H237471   4.689   4.866  15.631 -0.8047 -0.8968  0.4386
 4426TIP3   OH237472   6.162   2.308  15.613  0.2840  0.0508  0.5099
 4426TIP3    H137473   6.254   2.283  15.613 -0.1996 -2.2819 -2.0324
 4426TIP3    H237474   6.115   2.228  15.638 -1.1017  1.5027  2.9388
 4427TIP3   OH237475   3.956   6.163  14.952  0.3452 -0.1092  0.3503
 4427TIP3    H137476   3.877   6.167  15.006  0.9375  0.3943  1.2110
 4427TIP3    H237477   3.958   6.248  14.906  0.6780  0.1172  0.7723
 4428TIP3   OH237478   2.208   6.410  17.821 -0.2483  0.4482  0.1127
 4428TIP3    H137479   2.194   6.423  17.915 -2.5504  1.8712 -0.3472
 4428TIP3    H237480   2.160   6.481  17.779 -4.0884 -3.1219 -2.3257
 4429TIP3   OH237481   1.231   1.042  14.395  0.3779  0.5605  0.1916
 4429TIP3    H137482   1.261   0.952  14.409  1.9652  1.2019  1.2651
 4429TIP3    H237483   1.166   1.036  14.325 -0.7644 -1.6288  1.3520
 4430TIP3   OH237484   2.076   0.407  15.168  0.2568  0.2706 -0.0721
 4430TIP3    H137485   2.160   0.444  15.195  0.5000 -0.4161  0.1131
 4430TIP3    H237486   2.044   0.468  15.101  0.7417  0.7170  0.0955
 4431TIP3   OH237487   2.577   6.292  17.255 -0.1917 -0.6601  0.0031
 4431TIP3    H137488   2.635   6.313  17.328 -0.1746  1.9310 -0.6566
 4431TIP3    H237489   2.616   6.213  17.216 -0.3870 -2.3207  2.8764
 4432TIP3   OH237490   1.020   0.388  15.157  0.0434  0.4284  0.1670
 4432TIP3    H137491   0.924   0.393  15.151  0.0565 -0.4415 -1.1037
 4432TIP3    H237492   1.036   0.334  15.235 -0.4985  0.4661  0.3095
 4433TIP3   OH237493   6.637   1.005  14.754 -0.5700 -0.6575 -0.4184
 4433TIP3    H137494   6.733   1.007  14.761 -0.5110 -0.0604 -1.2377
 4433TIP3    H237495   6.616   1.075  14.691 -1.5953 -0.3057  0.2884
 4434TIP3   OH237496   2.011   3.640  14.651  0.2076  0.0995 -0.4543
 4434TIP3    H137497   2.095   3.676  14.681 -0.0802 -0.1413  0.6499
 4434TIP3    H237498   2.016   3.547  14.670 -0.6700  0.2287  0.4787
 4435TIP3   OH237499   3.075   6.495  16.962 -0.2791  0.1515  0.7119
 4435TIP3    H137500   3.139   6.425  16.950 -1.7919 -1.0439 -0.8467
 4435TIP3    H237501   3.128   6.573  16.980  1.5854 -0.8347 -0.1967
 4436TIP3   OH237502   2.928   0.476  18.038 -0.0241  0.2094  0.5027
 4436TIP3    H137503   2.995   0.515  17.983 -1.3301  0.2261 -1.1432
 4436TIP3    H237504   2.926   0.531  18.116  1.6898  0.3309  0.4873
 4437TIP3   OH237505   5.368   0.431  17.299 -0.2642 -0.1948  0.0146
 4437TIP3    H137506   5.442   0.376  17.324  1.6668  1.7340 -1.0677
 4437TIP3    H237507   5.375   0.508  17.357  1.1161  1.8761 -2.6803
 4438TIP3   OH237508   4.267   2.339  17.253  0.1276 -0.2774 -0.1118
 4438TIP3    H137509   4.176   2.343  17.222 -0.1650  0.8630  0.8114
 4438TIP3    H237510   4.261   2.295  17.338  0.5156 -0.7126 -0.3116
 4439TIP3   OH237511   6.482   5.646  16.083  0.4578  0.4076  0.1897
 4439TIP3    H137512   6.572   5.645  16.116  1.0929 -0.5929 -1.4689
 4439TIP3    H237513   6.476   5.729  16.035  0.2876  0.7432  0.7737
 4440TIP3   OH237514   0.648   5.993  17.424  0.1516  0.5915 -0.0569
 4440TIP3    H137515   0.685   5.907  17.406  2.5494  1.6678 -0.7851
 4440TIP3    H237516   0.556   5.986  17.398  0.9992 -0.9153 -3.1146
 4441TIP3   OH237517   6.129   6.387  15.800  0.2355  0.0294  0.0744
 4441TIP3    H137518   6.154   6.471  15.763 -0.5888 -0.8209 -2.6355
 4441TIP3    H237519   6.049   6.363  15.754  0.0652 -1.9294  1.2800
 4442TIP3   OH237520   3.530   3.444  16.481 -0.0962  0.3934  0.2293
 4442TIP3    H137521   3.590   3.469  16.551 -0.0947 -0.2619  0.4662
 4442TIP3    H237522   3.562   3.490  16.404  1.2967 -0.6964  0.1178
 4443TIP3   OH237523   1.325   0.276  14.814 -0.1411 -0.3070 -0.0281
 4443TIP3    H137524   1.349   0.269  14.721 -1.2233  0.4329 -0.3868
 4443TIP3    H237525   1.399   0.320  14.855 -0.0631  0.2364 -0.7300
 4444TIP3   OH237526   0.956   6.390  16.997  0.0889 -0.1388 -0.0312
 4444TIP3    H137527   0.933   6.467  17.050  0.1416 -2.1943  3.2437
 4444TIP3    H237528   1.020   6.423  16.934 -0.8617  2.7365  0.3336
 4445TIP3   OH237529   2.698   3.088  18.027 -0.1494  0.3386  0.3487
 4445TIP3    H137530   2.774   3.109  18.080  0.9987 -0.0422 -1.1059
 4445TIP3    H237531   2.658   3.172  18.007  0.5347  0.6286  0.1856
 4446TIP3   OH237532   1.623   1.236  15.297 -0.0804  0.6375 -1.1175
 4446TIP3    H137533   1.536   1.234  15.258 -0.6381  1.2380  0.0318
 4446TIP3    H237534   1.612   1.195  15.383  0.8076  0.5732 -1.0254
 4447TIP3   OH237535   0.196   5.802  17.770 -0.2380 -0.3115 -0.1868
 4447TIP3    H137536   0.222   5.887  17.807 -0.9157 -0.2983  0.2819
 4447TIP3    H237537   0.250   5.738  17.818  0.6302 -0.1226 -0.8855
 4448TIP3   OH237538   1.900   1.094  14.695 -0.1758  0.3672 -0.0809
 4448TIP3    H137539   1.935   1.083  14.784  1.8602  1.0670 -0.7468
 4448TIP3    H237540   1.973   1.072  14.637 -0.9006  1.6807 -1.5670
 4449TIP3   OH237541   2.989   1.753  15.820  0.1390  0.0754  0.2310
 4449TIP3    H137542   3.073   1.797  15.828  0.6628 -0.9564  0.5665
 4449TIP3    H237543   2.967   1.726  15.909  0.5849 -1.6859 -0.1619
 4450TIP3   OH237544   4.911   0.238  16.906  0.3298 -0.1138  0.2003
 4450TIP3    H137545   4.867   0.199  16.830 -1.0744 -0.2606  1.0571
 4450TIP3    H237546   4.969   0.305  16.869  0.5554 -0.9819 -1.0744
 4451TIP3   OH237547   2.858   1.096  15.362  0.0164 -0.6081 -0.5708
 4451TIP3    H137548   2.776   1.134  15.393  0.2401 -0.8850  0.4095
 4451TIP3    H237549   2.833   1.015  15.319 -0.4332  0.4349 -2.3920
 4452TIP3   OH237550   4.909   4.262  17.262  0.4714 -0.1516  0.1238
 4452TIP3    H137551   4.971   4.284  17.193 -0.4155 -0.2533 -0.7151
 4452TIP3    H237552   4.848   4.335  17.265  2.0429  1.2185  2.6959
 4453TIP3   OH237553   1.175   5.923  15.999  0.9839  0.4253 -0.0431
 4453TIP3    H137554   1.169   5.946  15.906  0.0989  1.3585  0.2309
 4453TIP3    H237555   1.208   6.002  16.041 -1.6733  1.1515  0.8601
 4454TIP3   OH237556   3.569   6.086  16.193 -0.0023 -0.1627  0.5229
 4454TIP3    H137557   3.649   6.034  16.205 -1.3992 -2.3122  1.1257
 4454TIP3    H237558   3.556   6.088  16.098  1.2243  1.0444  0.3402
 4455TIP3   OH237559   0.262   5.431  15.943  0.2929  0.1546  0.2742
 4455TIP3    H137560   0.260   5.381  16.025  2.1806  0.2758  0.4529
 4455TIP3    H237561   0.331   5.389  15.891 -0.2857  0.6144 -0.9114
 4456TIP3   OH237562   1.492   5.147  14.123  0.1157 -0.2849 -0.5402
 4456TIP3    H137563   1.446   5.154  14.207 -0.0046  0.9142 -0.7005
 4456TIP3    H237564   1.521   5.055  14.120 -0.2216 -0.4476  0.6258
 4457TIP3   OH237565   4.974   6.377  16.033 -0.6051 -0.5144  0.1227
 4457TIP3    H137566   4.887   6.411  16.054  0.3419  1.6087  0.8897
 4457TIP3    H237567   4.985   6.302  16.092 -1.1420  0.4500  1.4982
 4458TIP3   OH237568   5.432   4.201  16.474 -0.8801 -0.0056  0.3539
 4458TIP3    H137569   5.519   4.198  16.435 -0.4450 -1.4191  1.3264
 4458TIP3    H237570   5.372   4.209  16.399  0.0245 -0.3449 -0.4272
 4459TIP3   OH237571   2.019   1.159  14.944 -0.3783 -0.1779  0.1377
 4459TIP3    H137572   1.993   1.245  14.977  0.4413  0.9655 -1.9919
 4459TIP3    H237573   2.114   1.155  14.959 -0.2496 -0.2706 -0.6433
 4460TIP3   OH237574   3.215   5.271  14.644 -0.1523 -0.3531 -0.0429
 4460TIP3    H137575   3.149   5.286  14.577 -1.7042 -0.7868  1.3286
 4460TIP3    H237576   3.268   5.199  14.609 -0.5160 -0.1429 -1.0662
 4461TIP3   OH237577   0.495   2.142  16.006  0.1478 -0.2553  0.1677
 4461TIP3    H137578   0.511   2.223  15.958  0.9977 -0.7248 -0.3624
 4461TIP3    H237579   0.492   2.168  16.098 -0.7384  0.5400 -0.0711
 4462TIP3   OH237580   2.896   4.952  16.431 -0.0899  0.2301 -0.7326
 4462TIP3    H137581   2.833   4.961  16.360 -1.5574 -1.3978  0.2899
 4462TIP3    H237582   2.893   4.859  16.454 -0.2912  0.8373  2.0165
 4463TIP3   OH237583   5.363   2.785  14.681  0.1164 -0.8376 -0.2737
 4463TIP3    H137584   5.428   2.716  14.669 -0.3046 -1.3821  0.5451
 4463TIP3    H237585   5.280   2.744  14.658  0.0901  0.0252 -1.9315
 4464TIP3   OH237586   6.466   4.510  17.447 -0.5526  0.1241 -0.1386
 4464TIP3    H137587   6.477   4.581  17.384  0.5126  0.8475  0.8005
 4464TIP3    H237588   6.508   4.434  17.406  0.8651  0.7931  0.0010
 4465TIP3   OH237589   4.644   3.558  16.095 -0.1880  0.4363  0.1608
 4465TIP3    H137590   4.624   3.625  16.161 -0.2644  1.2581 -0.6838
 4465TIP3    H237591   4.694   3.492  16.144  1.6999  2.0754  0.6059
 4466TIP3   OH237592   3.553   5.199  17.888 -1.2215 -0.0275 -0.4696
 4466TIP3    H137593   3.542   5.292  17.867 -0.3615  0.0607 -0.5484
 4466TIP3    H237594   3.599   5.162  17.812  2.5451  0.4227  1.3713
 4467TIP3   OH237595   1.317   6.620  17.776 -0.0576 -0.4236 -0.2743
 4467TIP3    H137596   1.281   6.680  17.841  0.7385 -0.2940  0.0606
 4467TIP3    H237597   1.412   6.625  17.788  0.0926 -0.6374 -1.2347
 4468TIP3   OH237598   2.780   4.590  15.884 -0.1512 -0.2483 -0.0117
 4468TIP3    H137599   2.736   4.508  15.861 -0.9984  0.6107 -1.6947
 4468TIP3    H237600   2.713   4.641  15.931 -1.7922  1.7478 -4.0335
 4469TIP3   OH237601   3.405   2.997  17.591 -0.0058 -0.3979  0.1470
 4469TIP3    H137602   3.416   3.003  17.686  0.6337 -1.2946  0.1456
 4469TIP3    H237603   3.396   2.903  17.573 -1.5298 -0.1500 -0.5477
 4470TIP3   OH237604   0.024   3.899  16.886 -0.0386  0.1274 -0.3725
 4470TIP3    H137605  -0.042   3.877  16.951  1.5875 -2.2619  0.6301
 4470TIP3    H237606   0.103   3.918  16.937  0.3085  2.1073 -1.5525
 4471TIP3   OH237607   4.804   1.659  14.624  0.0960 -0.2105  0.1220
 4471TIP3    H137608   4.857   1.705  14.559  0.0360  1.1925  1.0255
 4471TIP3    H237609   4.812   1.566  14.601  0.9756  0.1728 -1.1939
 4472TIP3   OH237610   0.412   3.171  17.072  0.8190  0.0504 -0.1419
 4472TIP3    H137611   0.393   3.142  17.161  1.8528 -3.0976 -0.8081
 4472TIP3    H237612   0.498   3.213  17.078 -0.4922  2.8821  0.7662
 4473TIP3   OH237613   2.308   1.951  15.397 -0.1834  0.1228 -0.9916
 4473TIP3    H137614   2.385   2.003  15.421  0.5882 -1.1133 -0.7014
 4473TIP3    H237615   2.285   1.981  15.310 -0.4172  1.6954 -0.4201
 4474TIP3   OH237616   0.073   0.177  17.662 -0.3732  0.0545 -0.6550
 4474TIP3    H137617   0.111   0.136  17.584 -0.5059 -1.4498  0.0382
 4474TIP3    H237618   0.034   0.105  17.711  0.2403  0.8630  1.1184
 4475TIP3   OH237619   6.193   5.943  16.527  0.2052  0.0704  0.0079
 4475TIP3    H137620   6.230   5.856  16.512 -0.4441  0.0393 -1.6326
 4475TIP3    H237621   6.255   6.003  16.486 -0.2719  0.2186 -0.5130
 4476TIP3   OH237622   3.323   0.612  15.552 -0.1257 -0.0665 -0.4763
 4476TIP3    H137623   3.408   0.570  15.566 -0.1995 -0.0182  0.1404
 4476TIP3    H237624   3.329   0.695  15.600 -0.7095 -0.3019  0.0208
 4477TIP3   OH237625   4.530   6.062  16.372  0.0800 -0.1336 -0.1055
 4477TIP3    H137626   4.510   6.088  16.282  2.7279 -1.3265 -1.1454
 4477TIP3    H237627   4.616   6.099  16.389  0.6320 -1.8300  1.0602
 4478TIP3   OH237628   2.841   1.460  16.723  0.3281 -0.3565 -0.1793
 4478TIP3    H137629   2.756   1.500  16.705  0.3493 -0.2511 -0.0487
 4478TIP3    H237630   2.820   1.378  16.767  0.3281  0.5683  1.6332
 4479TIP3   OH237631   1.348   2.305  16.941 -0.0644  0.3941 -0.5879
 4479TIP3    H137632   1.282   2.238  16.958 -0.2896  0.8220  0.2940
 4479TIP3    H237633   1.421   2.282  16.998 -0.5250  1.4225  0.4483
 4480TIP3   OH237634   3.837   5.280  15.318 -0.4436  0.0337 -0.1218
 4480TIP3    H137635   3.896   5.328  15.260 -1.2128 -0.0795 -1.0190
 4480TIP3    H237636   3.779   5.347  15.354 -0.0640  0.0824  0.4055
 4481TIP3   OH237637   4.054   0.190  14.823 -0.0690  0.1860 -0.0729
 4481TIP3    H137638   3.985   0.149  14.875 -0.2254 -1.0111 -1.1767
 4481TIP3    H237639   4.099   0.248  14.885 -0.6816 -0.6530  1.2090
 4482TIP3   OH237640   4.904   2.890  15.683 -0.3714 -0.2166 -0.2617
 4482TIP3    H137641   4.904   2.846  15.768 -1.6344 -0.8523 -0.5607
 4482TIP3    H237642   4.936   2.823  15.622  1.1043  0.4240 -0.2253
 4483TIP3   OH237643   2.156   5.488  15.119  0.7692  0.0566  0.1755
 4483TIP3    H137644   2.241   5.507  15.158  0.1185 -0.8463  2.1605
 4483TIP3    H237645   2.109   5.439  15.187 -0.7805 -0.7985 -1.4442
 4484TIP3   OH237646   6.594   2.978  15.698  0.0110  0.9059 -0.1034
 4484TIP3    H137647   6.661   3.008  15.636 -0.2485  2.0419  0.1326
 4484TIP3    H237648   6.543   3.057  15.718  0.6603  0.8069  2.2621
 4485TIP3   OH237649   5.499   1.949  15.815  0.3275 -0.5104 -0.0925
 4485TIP3    H137650   5.430   2.014  15.826  0.1576 -0.3173 -1.8994
 4485TIP3    H237651   5.507   1.907  15.900 -0.2067  1.2315  0.8631
 4486TIP3   OH237652   4.139   0.116  17.239  0.2935 -0.6984 -0.4041
 4486TIP3    H137653   4.074   0.124  17.169  0.6904  0.5464 -0.6656
 4486TIP3    H237654   4.207   0.060  17.201 -0.2934 -1.4370 -0.3792
 4487TIP3   OH237655   6.641   2.478  17.239 -0.1007  0.0226  0.0163
 4487TIP3    H137656   6.654   2.393  17.281  1.0195  0.1283 -0.0986
 4487TIP3    H237657   6.613   2.456  17.150 -0.1760 -0.2236  0.0987
 4488TIP3   OH237658   0.986   2.095  16.912  0.3007  0.1427  0.1211
 4488TIP3    H137659   0.979   2.176  16.962 -2.3372  1.4678 -2.1061
 4488TIP3    H237660   0.895   2.074  16.888  1.3171  0.5717 -5.3379
 4489TIP3   OH237661   1.067   1.201  16.331  0.2140 -0.5753 -0.1801
 4489TIP3    H137662   0.978   1.173  16.313 -0.1398  0.8035 -0.7758
 4489TIP3    H237663   1.075   1.201  16.426 -1.0845  1.1005 -0.0180
 4490TIP3   OH237664   2.118   0.391  16.949  0.4189 -0.1739  0.1675
 4490TIP3    H137665   2.044   0.410  17.006  0.4317  2.1322 -0.4708
 4490TIP3    H237666   2.096   0.309  16.906 -0.7238 -0.6587  1.5957
 4491TIP3   OH237667   2.571   1.553  16.654  0.3388  0.3305 -0.2652
 4491TIP3    H137668   2.492   1.502  16.674  0.6710  0.6804  2.3281
 4491TIP3    H237669   2.576   1.553  16.559 -0.3886 -3.3608 -0.4396
 4492TIP3   OH237670   1.829   0.598  16.204 -0.2237  0.2993  0.4759
 4492TIP3    H137671   1.797   0.513  16.233 -1.6016  1.7595  3.8285
 4492TIP3    H237672   1.913   0.609  16.249 -0.0707  0.7233  0.1007
 4493TIP3   OH237673   4.976   3.576  16.597  0.3015 -0.2532 -0.1714
 4493TIP3    H137674   4.985   3.617  16.683 -1.1169 -0.0108 -0.1225
 4493TIP3    H237675   4.961   3.483  16.617  0.4346 -0.2781 -0.1827
 4494TIP3   OH237676   0.993   4.340  17.044 -0.1786 -0.1670  0.1401
 4494TIP3    H137677   1.027   4.376  17.125  1.7549 -0.0612 -0.6783
 4494TIP3    H237678   0.953   4.416  17.000 -0.5568 -0.0729  0.6309
 4495TIP3   OH237679   5.819   2.526  16.471 -0.4139  0.2493  0.2529
 4495TIP3    H137680   5.764   2.554  16.544 -0.9701 -0.3395  0.0643
 4495TIP3    H237681   5.758   2.486  16.409 -0.3382  2.7514 -1.6210
 4496TIP3   OH237682   5.291   2.656  15.188  0.4323 -0.4208  0.0593
 4496TIP3    H137683   5.246   2.686  15.108  0.9952  2.1181  0.5972
 4496TIP3    H237684   5.364   2.604  15.155 -0.7368 -1.5042 -0.9558
 4497TIP3   OH237685   3.882   0.501  14.589  0.4991 -0.5861 -0.0788
 4497TIP3    H137686   3.859   0.408  14.584  1.2323 -0.8304  0.8049
 4497TIP3    H237687   3.872   0.533  14.499  1.1520 -1.7506 -0.5867
 4498TIP3   OH237688   1.700   1.777  15.019  0.4118  0.1289 -0.3383
 4498TIP3    H137689   1.659   1.765  15.104  1.0392  0.8684  0.0900
 4498TIP3    H237690   1.661   1.710  14.963 -1.2899  0.7383  0.0617
 4499TIP3   OH237691   1.280   4.759  15.236  0.2485  0.0487  1.0441
 4499TIP3    H137692   1.322   4.794  15.314  0.6566 -1.3211  1.4619
 4499TIP3    H237693   1.350   4.754  15.171  0.2423 -0.2204  1.0588
 4500TIP3   OH237694   0.011   2.196  16.738  0.5457 -0.4410  0.1510
 4500TIP3    H137695   0.055   2.277  16.763  0.7132 -0.3408 -0.4385
 4500TIP3    H237696   0.029   2.135  16.809 -0.9016  0.4890  1.3994
 4501TIP3   OH237697   0.521   1.006  15.886  0.0963  0.0829 -0.4807
 4501TIP3    H137698   0.529   0.918  15.849 -0.1198 -0.2049  0.1394
 4501TIP3    H237699   0.485   0.992  15.974 -0.6033  0.8427 -0.6336
 4502TIP3   OH237700   0.471   2.519  15.235  0.1505 -0.2075 -0.0782
 4502TIP3    H137701   0.503   2.584  15.172 -0.3324 -1.8660 -2.1480
 4502TIP3    H237702   0.383   2.550  15.257 -0.3391 -0.4356 -1.5535
 4503TIP3   OH237703   1.428   4.589  16.924 -0.1741 -0.1995 -0.3113
 4503TIP3    H137704   1.392   4.580  16.836  1.7823  1.7887 -1.3930
 4503TIP3    H237705   1.448   4.499  16.951  0.0214 -0.7818 -2.2692
 4504TIP3   OH237706   5.329   6.269  17.161  0.7001 -0.2644 -0.2580
 4504TIP3    H137707   5.306   6.308  17.077  1.1402  0.3950 -0.0764
 4504TIP3    H237708   5.379   6.336  17.207 -1.1220  0.1455  1.3032
 4505TIP3   OH237709   1.942   0.797  15.263  0.3020  0.7003 -0.3027
 4505TIP3    H137710   1.906   0.823  15.348  0.0598  1.4255 -0.6214
 4505TIP3    H237711   2.020   0.746  15.285 -1.6658 -2.2349  0.4768
 4506TIP3   OH237712   5.907   4.025  16.795  0.2232 -0.1466  0.0679
 4506TIP3    H137713   5.924   4.089  16.726 -0.6652  0.6218  0.5573
 4506TIP3    H237714   5.866   3.951  16.750 -0.1424  0.2555 -0.2578
 4507TIP3   OH237715   5.454   1.297  17.185 -0.4118 -0.3711  0.0326
 4507TIP3    H137716   5.483   1.215  17.144 -1.3285 -0.6611 -0.0518
 4507TIP3    H237717   5.508   1.305  17.264 -0.5896 -1.2650  0.2530
 4508TIP3   OH237718   1.903   4.554  15.011 -0.7142 -0.2140 -0.4264
 4508TIP3    H137719   1.902   4.649  15.020 -1.6756 -0.3512  1.3536
 4508TIP3    H237720   1.811   4.529  15.020 -0.2575 -1.4554  1.2728
 4509TIP3   OH237721   2.164   0.261  14.338  0.7691 -0.6587  0.0137
 4509TIP3    H137722   2.227   0.189  14.347  1.2475 -0.5110 -1.7516
 4509TIP3    H237723   2.145   0.265  14.244 -1.7187 -0.5362  0.4448
 4510TIP3   OH237724   4.385   2.666  15.372  0.2081 -0.1728  0.5354
 4510TIP3    H137725   4.308   2.723  15.377  0.0579 -0.1624 -1.3349
 4510TIP3    H237726   4.390   2.640  15.280  1.4681 -1.5426  0.9574
 4511TIP3   OH237727   3.468   2.756  15.217  0.0268 -0.5862 -0.2848
 4511TIP3    H137728   3.438   2.746  15.127  0.4505 -1.5159 -0.3253
 4511TIP3    H237729   3.562   2.738  15.214  0.2196  0.2848  0.1920
 4512TIP3   OH237730   4.890   0.838  16.111  0.3597 -0.4910 -0.3341
 4512TIP3    H137731   4.832   0.822  16.186 -1.3260 -0.7872 -1.6373
 4512TIP3    H237732   4.970   0.790  16.132 -0.1241 -0.7039  1.1889
 4513TIP3   OH237733   2.864   2.798  14.418 -0.4159  0.3284  0.6384
 4513TIP3    H137734   2.809   2.728  14.454 -0.3529  0.7960  1.6753
 4513TIP3    H237735   2.870   2.862  14.488  0.3329  0.9245  0.0448
 4514TIP3   OH237736   4.977   2.786  15.290  0.0249  0.1740  0.6797
 4514TIP3    H137737   4.949   2.762  15.202  0.0073 -0.6490  0.8950
 4514TIP3    H237738   4.943   2.874  15.304 -0.0959  0.2533 -0.0790
 4515TIP3   OH237739   1.897   6.179  15.792  0.2369  0.0309 -0.0142
 4515TIP3    H137740   1.979   6.202  15.749  0.6026  0.1954  0.7473
 4515TIP3    H237741   1.911   6.090  15.823  0.0251 -0.0395 -0.1206
 4516TIP3   OH237742   3.573   2.458  17.584 -0.2052  0.0084 -0.5108
 4516TIP3    H137743   3.495   2.408  17.607  0.3393  0.1904  1.9985
 4516TIP3    H237744   3.546   2.550  17.591 -0.0440  0.0760 -0.7437
 4517TIP3   OH237745   0.063   5.161  14.686 -0.1836  0.0684  0.6131
 4517TIP3    H137746   0.103   5.247  14.675  0.5290 -0.3312 -0.0417
 4517TIP3    H237747   0.125   5.101  14.646 -1.1963 -0.6336  0.0594
 4518TIP3   OH237748   1.335   0.927  16.859 -0.1204 -0.9678 -0.3927
 4518TIP3    H137749   1.365   0.999  16.916 -1.2738  1.0446 -2.1798
 4518TIP3    H237750   1.362   0.848  16.905  2.0956  0.5861  1.2319
 4519TIP3   OH237751   2.912   4.506  17.877 -0.0003 -0.3801  0.4894
 4519TIP3    H137752   2.974   4.506  17.949  0.3329 -0.3645  0.2048
 4519TIP3    H237753   2.902   4.598  17.854  1.2306 -0.5071 -0.6214
 4520TIP3   OH237754   0.501   2.391  15.865 -0.0718  0.7954 -0.2536
 4520TIP3    H137755   0.436   2.391  15.795 -0.9886  1.1637  0.5842
 4520TIP3    H237756   0.545   2.476  15.857 -2.5722  2.4095  1.7535
 4521TIP3   OH237757   6.219   4.584  16.523 -0.2747  0.4653 -0.2054
 4521TIP3    H137758   6.259   4.537  16.595 -1.6652  0.2133  0.4394
 4521TIP3    H237759   6.215   4.520  16.452 -0.6185  0.1319  0.1130
 4522TIP3   OH237760   3.146   1.832  18.054 -0.2980 -0.3389  0.2954
 4522TIP3    H137761   3.090   1.801  18.125  2.3943 -0.7303  2.3916
 4522TIP3    H237762   3.214   1.765  18.047  1.3361  1.3262 -0.3852
 4523TIP3   OH237763   4.843   5.632  16.191  0.5112 -0.0594 -0.0639
 4523TIP3    H137764   4.792   5.690  16.134  0.4212 -0.8400 -0.7894
 4523TIP3    H237765   4.929   5.674  16.196 -0.2573  1.4337  1.4235
 4524TIP3   OH237766   0.374   3.321  15.968  0.2457 -0.2899 -0.0102
 4524TIP3    H137767   0.419   3.383  15.910 -1.4362  1.8752  0.8928
 4524TIP3    H237768   0.438   3.301  16.036  0.4317  1.4649  0.3715
 4525TIP3   OH237769   3.483   0.544  14.834 -0.1719  0.0016 -0.0349
 4525TIP3    H137770   3.486   0.622  14.889  0.0757  0.3631 -0.5439
 4525TIP3    H237771   3.570   0.506  14.841  0.7667  1.5153 -2.1999
 4526TIP3   OH237772   2.912   0.795  16.313  0.0441 -0.3975 -0.4495
 4526TIP3    H137773   2.911   0.792  16.217  0.4530  1.8206 -0.5900
 4526TIP3    H237774   2.832   0.842  16.337  1.3839  1.7784  0.0517
 4527TIP3   OH237775   6.660   0.413  17.629  0.4904 -0.1754  0.0120
 4527TIP3    H137776   6.661   0.445  17.719 -2.6507 -0.2310  0.1788
 4527TIP3    H237777   6.700   0.326  17.635  0.9098  0.0744  1.2196
 4528TIP3   OH237778   0.975   4.729  17.805 -0.0216  0.0203 -0.4758
 4528TIP3    H137779   0.956   4.779  17.725 -1.0867  0.3506 -0.0312
 4528TIP3    H237780   0.905   4.753  17.866 -0.3601 -1.7106 -0.1129
 4529TIP3   OH237781   6.107   1.886  16.560  0.1269 -0.5116  0.8038
 4529TIP3    H137782   6.199   1.869  16.540  0.6234  1.6036  1.1103
 4529TIP3    H237783   6.081   1.812  16.615  0.5229 -3.0945 -2.1614
 4530TIP3   OH237784   2.067   6.609  17.650 -0.2941  0.5836  0.0959
 4530TIP3    H137785   2.105   6.661  17.579 -1.0649  0.1218 -0.6733
 4530TIP3    H237786   2.065   6.669  17.725  1.3059  0.8231 -0.0167
 4531TIP3   OH237787   4.775   5.102  15.447 -0.2608 -0.9741  0.2501
 4531TIP3    H137788   4.691   5.069  15.413  0.1383 -0.6870 -1.0523
 4531TIP3    H237789   4.765   5.197  15.447 -0.0709 -0.9545  0.4487
 4532TIP3   OH237790   4.941   1.211  17.919 -0.1371 -0.5463 -0.0267
 4532TIP3    H137791   5.005   1.163  17.867 -0.8289 -0.6036 -0.8481
 4532TIP3    H237792   4.883   1.252  17.854  0.1981  1.0816  0.6496
 4533TIP3   OH237793   6.023   3.424  16.977 -0.1288 -0.1688  0.0778
 4533TIP3    H137794   6.063   3.450  17.061 -0.9691 -0.2090  0.5056
 4533TIP3    H237795   5.966   3.350  17.000  0.4658 -0.8925 -0.7295
 4534TIP3   OH237796   2.510   2.680  18.086  0.4751  0.3512 -0.4111
 4534TIP3    H137797   2.458   2.758  18.104  0.4822  0.2242  0.1826
 4534TIP3    H237798   2.586   2.712  18.037  1.9320  1.1954  2.1584
 4535TIP3   OH237799   2.077   1.946  15.212 -0.0289 -0.5784  0.7651
 4535TIP3    H137800   2.147   1.936  15.148 -0.3103 -1.1846  0.5387
 4535TIP3    H237801   2.032   2.027  15.186 -1.1706 -1.6707 -0.8515
 4536TIP3   OH237802   1.353   4.500  17.242 -0.1449  0.4962  0.0408
 4536TIP3    H137803   1.431   4.534  17.198 -0.2064 -0.1886 -0.6029
 4536TIP3    H237804   1.388   4.448  17.315 -0.0123  0.5001 -0.0191
 4537TIP3   OH237805   0.116   3.015  15.576 -0.5033  0.0536  0.0518
 4537TIP3    H137806   0.120   3.103  15.540 -0.7100 -0.3983 -1.1244
 4537TIP3    H237807   0.133   2.957  15.501 -1.4335 -0.9409  0.5725
 4538TIP3   OH237808   1.916   3.923  16.303 -0.7168 -0.0506  0.5580
 4538TIP3    H137809   1.949   4.000  16.349 -0.5498  0.2300 -0.0227
 4538TIP3    H237810   1.839   3.896  16.354 -0.0752 -0.2299  1.4567
 4539TIP3   OH237811   1.714   4.765  15.479 -0.6193  0.1402 -0.8059
 4539TIP3    H137812   1.652   4.820  15.431  1.4998  1.8831 -1.6579
 4539TIP3    H237813   1.798   4.779  15.435  0.6391 -1.2628  1.0224
 4540TIP3   OH237814   0.861   5.189  16.335 -0.4890 -0.0202  0.4724
 4540TIP3    H137815   0.929   5.170  16.398  1.5844  0.0206 -1.6181
 4540TIP3    H237816   0.882   5.276  16.301 -0.7636 -0.5287 -1.1290
 4541TIP3   OH237817   5.388   3.068  16.156 -0.4139 -0.0853 -0.3534
 4541TIP3    H137818   5.350   3.071  16.244  1.0374 -2.0094  0.4285
 4541TIP3    H237819   5.345   2.993  16.114  1.6829 -1.7263  0.2289
 4542TIP3   OH237820   2.871   2.032  16.079 -0.0209 -0.5043 -0.0662
 4542TIP3    H137821   2.946   2.045  16.136 -0.5601  0.3554  0.4681
 4542TIP3    H237822   2.797   2.019  16.138 -0.3214 -1.2140 -0.5827
 4543TIP3   OH237823   3.328   4.584  17.823  0.2649  0.3669  0.0943
 4543TIP3    H137824   3.414   4.565  17.861 -0.5905 -1.3812  1.3257
 4543TIP3    H237825   3.283   4.635  17.891 -0.4726 -0.7665  0.4773
 4544TIP3   OH237826   3.704   5.155  14.961 -0.5304 -0.0620 -0.2733
 4544TIP3    H137827   3.770   5.206  15.008 -0.9665  0.2664  0.0004
 4544TIP3    H237828   3.734   5.153  14.871 -0.7549  1.1258 -0.3894
 4545TIP3   OH237829   5.576   5.153  15.070 -0.3144  0.0105  0.2043
 4545TIP3    H137830   5.632   5.155  14.993  0.3353 -0.9556  0.6366
 4545TIP3    H237831   5.495   5.113  15.040 -1.0151  1.8842 -0.5492
 4546TIP3   OH237832   1.119   3.407  17.431 -0.2234 -0.7477 -0.4143
 4546TIP3    H137833   1.210   3.377  17.431  0.2440  0.6094 -0.5394
 4546TIP3    H237834   1.091   3.397  17.522  0.5939  0.3288 -0.0165
 4547TIP3   OH237835   5.922   6.019  15.556  0.0553  0.1726 -0.9664
 4547TIP3    H137836   5.846   6.071  15.528  0.3998  0.8130 -0.7475
 4547TIP3    H237837   5.887   5.956  15.619 -0.3243  0.3383 -1.0082
 4548TIP3   OH237838   2.247   1.880  15.024  0.0799  0.1040  0.3914
 4548TIP3    H137839   2.252   1.799  14.973 -3.3745  0.8800 -1.4708
 4548TIP3    H237840   2.311   1.938  14.984 -0.5379 -0.2909 -1.2598
 4549TIP3   OH237841   2.445   6.097  15.447  1.2498  0.2526 -0.1338
 4549TIP3    H137842   2.440   6.184  15.408 -0.9499  0.4791  0.5444
 4549TIP3    H237843   2.454   6.113  15.541  2.0597 -0.2893 -0.1016
 4550TIP3   OH237844   5.594   1.539  16.582  0.2715 -0.1736  0.2261
 4550TIP3    H137845   5.673   1.589  16.560 -0.0705  0.2328 -0.0994
 4550TIP3    H237846   5.531   1.605  16.611 -0.2415 -0.3924 -0.3652
 4551TIP3   OH237847   3.014   6.475  14.591  0.1932 -0.2585  0.3380
 4551TIP3    H137848   3.007   6.382  14.613 -2.6857 -0.0838  0.5672
 4551TIP3    H237849   2.969   6.483  14.507  0.0165  1.0061  0.5350
 4552TIP3   OH237850   6.396   1.737  16.093  0.8472  0.3168 -0.2615
 4552TIP3    H137851   6.302   1.745  16.079  0.8443  1.1499  0.1698
 4552TIP3    H237852   6.434   1.748  16.005  0.5077 -1.0020 -0.5926
 4553TIP3   OH237853   0.353   3.619  16.703 -0.4488 -0.4622 -0.1204
 4553TIP3    H137854   0.386   3.690  16.758 -0.7735 -0.8607  0.5997
 4553TIP3    H237855   0.400   3.541  16.733  0.1701 -0.5120 -1.1465
 4554TIP3   OH237856   2.394   3.139  15.790 -0.1472 -0.1603  0.2075
 4554TIP3    H137857   2.357   3.053  15.771  0.6496 -0.3565 -0.5377
 4554TIP3    H237858   2.394   3.144  15.886 -0.6085 -0.8036  0.2493
 4555TIP3   OH237859   1.623   1.424  16.697  0.3131  0.2726 -0.1605
 4555TIP3    H137860   1.548   1.445  16.640 -0.3305 -2.0566 -0.2419
 4555TIP3    H237861   1.625   1.496  16.760 -1.4042  0.8915 -0.7379
 4556TIP3   OH237862   3.032   4.222  17.855 -0.0767 -1.0906  0.1831
 4556TIP3    H137863   2.943   4.254  17.841 -0.1753 -0.7245  1.4400
 4556TIP3    H237864   3.021   4.135  17.893 -0.0168 -0.2231  2.3654
 4557TIP3   OH237865   0.416   6.327  15.955 -0.8930 -0.0442  0.2653
 4557TIP3    H137866   0.374   6.280  15.883  2.6073 -0.1923 -1.9275
 4557TIP3    H237867   0.404   6.271  16.031  1.4558 -3.8118 -1.8170
 4558TIP3   OH237868   3.436   3.629  15.063 -0.0597  0.4984  0.1534
 4558TIP3    H137869   3.493   3.562  15.102  0.2072 -0.0424 -1.1255
 4558TIP3    H237870   3.417   3.596  14.975 -1.6253  1.1026  0.2220
 4559TIP3   OH237871   5.916   4.128  15.695  0.5114 -0.4668  0.5472
 4559TIP3    H137872   5.946   4.153  15.782  0.2694 -2.3713  1.2249
 4559TIP3    H237873   5.821   4.119  15.703  0.4654 -0.4752  0.0496
 4560TIP3   OH237874   4.576   0.078  16.939 -0.5722 -0.0382 -0.1426
 4560TIP3    H137875   4.646   0.118  16.991  0.9709  0.7796 -2.6553
 4560TIP3    H237876   4.507   0.145  16.937 -0.7479 -0.1730  1.0020
 4561TIP3   OH237877   5.056   1.528  15.311  0.5884 -0.3017  0.4384
 4561TIP3    H137878   5.136   1.543  15.362 -0.2542  0.0359  1.7241
 4561TIP3    H237879   5.011   1.612  15.311 -0.1962 -0.7081  0.5295
 4562TIP3   OH237880   3.772   5.084  18.169 -0.4503  0.1079  0.5472
 4562TIP3    H137881   3.835   5.065  18.100 -0.0416 -1.1484  1.2485
 4562TIP3    H237882   3.792   5.174  18.196  1.5196 -0.4817  1.2215
 4563TIP3   OH237883   5.925   4.783  16.648  0.3043  0.0860  0.2125
 4563TIP3    H137884   5.952   4.841  16.719  0.5190  0.1504  0.0800
 4563TIP3    H237885   5.931   4.695  16.686  1.9571  0.0020 -0.2059
 4564TIP3   OH237886   6.523   6.684  14.690  0.5262  0.1293  0.5119
 4564TIP3    H137887   6.584   6.701  14.762  0.5159  0.3672  0.4664
 4564TIP3    H237888   6.576   6.640  14.623  0.7413  0.6772  0.3156
 4565TIP3   OH237889   6.477   5.461  16.456  0.0505 -0.0171  0.1737
 4565TIP3    H137890   6.419   5.430  16.525 -0.6710 -1.0871 -0.8834
 4565TIP3    H237891   6.425   5.525  16.407  1.2334  2.3440  1.7967
 4566TIP3   OH237892   0.364   3.119  17.978 -0.1103 -0.3666  0.1881
 4566TIP3    H137893   0.299   3.163  17.924 -1.0314 -1.0398  0.7265
 4566TIP3    H237894   0.419   3.189  18.013 -1.2976  0.3183  0.7059
 4567TIP3   OH237895   4.176   1.651  14.891 -0.1756 -0.0319  0.6505
 4567TIP3    H137896   4.212   1.736  14.865 -1.3838  0.6151  1.0018
 4567TIP3    H237897   4.242   1.587  14.865 -0.0616  0.8391 -1.3522
 4568TIP3   OH237898   3.694   4.620  15.380 -0.5702 -0.0678 -0.1867
 4568TIP3    H137899   3.737   4.581  15.456 -0.0936  1.7043  0.5109
 4568TIP3    H237900   3.754   4.603  15.307  0.5988  0.9870  0.4825
 4569TIP3   OH237901   5.740   6.588  14.911  0.0502 -0.6432  0.3558
 4569TIP3    H137902   5.762   6.552  14.996  2.3483  1.0939  0.5966
 4569TIP3    H237903   5.695   6.671  14.931  2.5143  0.8757  0.0186
 4570TIP3   OH237904   2.121   0.036  13.935  0.2969  0.0842  0.1619
 4570TIP3    H137905   2.075   0.086  13.868 -0.4693 -1.6749 -0.6795
 4570TIP3    H237906   2.052   0.009  13.996  0.2551 -2.0710 -0.7817
 4571TIP3   OH237907   3.265   1.138  15.128 -0.2239  0.3745  0.0413
 4571TIP3    H137908   3.297   1.081  15.198  0.4783  1.6210  0.7585
 4571TIP3    H237909   3.248   1.221  15.170  1.4226  1.5526 -1.4605
 4572TIP3   OH237910   0.443   3.290  15.241  0.5361 -0.5708 -0.0926
 4572TIP3    H137911   0.519   3.249  15.281  0.4990 -0.3538  0.2049
 4572TIP3    H237912   0.448   3.265  15.148  3.0484  2.4489 -0.9592
 4573TIP3   OH237913   3.738   1.963  17.749  0.0577  0.0336  0.1857
 4573TIP3    H137914   3.654   1.939  17.787  0.2148 -0.3306  0.3086
 4573TIP3    H237915   3.716   2.000  17.663 -0.2199 -0.1223  0.1904
 4574TIP3   OH237916   2.316   4.657  16.534  0.7294  0.1358 -0.0391
 4574TIP3    H137917   2.279   4.724  16.477 -1.0114  0.4745  1.3972
 4574TIP3    H237918   2.240   4.610  16.568  1.8922 -3.3873 -1.8184
 4575TIP3   OH237919   4.356   6.482  14.963  0.1104 -0.1017  0.2279
 4575TIP3    H137920   4.394   6.403  14.926 -1.4185 -0.4600 -0.6702
 4575TIP3    H237921   4.396   6.553  14.912  0.8143 -0.3420  0.4308
 4576TIP3   OH237922   1.612   2.499  17.104 -0.3877  0.4368  1.0509
 4576TIP3    H137923   1.526   2.537  17.121 -0.2410  1.1591  0.2364
 4576TIP3    H237924   1.658   2.565  17.052  0.7597  0.1752  1.6938
 4577TIP3   OH237925   0.203   2.240  14.748 -0.0094  0.7836  0.0671
 4577TIP3    H137926   0.166   2.310  14.801  1.7335  0.7952  1.3490
 4577TIP3    H237927   0.194   2.271  14.658 -0.2903  2.1560  0.5420
 4578TIP3   OH237928   4.847   1.401  15.458 -0.2463 -0.0042 -0.0935
 4578TIP3    H137929   4.911   1.358  15.402  0.9840  0.4299  0.9313
 4578TIP3    H237930   4.815   1.474  15.405  0.0865 -0.2351 -0.6271
 4579TIP3   OH237931   0.267   3.431  16.381  0.0744 -0.3209 -0.0139
 4579TIP3    H137932   0.175   3.415  16.359 -0.0008 -0.0482  0.1025
 4579TIP3    H237933   0.264   3.501  16.446  0.4466  0.6404 -1.0103
 4580TIP3   OH237934   3.844   0.900  17.357  0.2048 -0.5782  0.2081
 4580TIP3    H137935   3.863   0.815  17.317  1.2917 -0.3973  0.3157
 4580TIP3    H237936   3.830   0.880  17.450  1.7890 -0.4944  0.4886
 4581TIP3   OH237937   1.699   0.854  16.517  0.3050 -0.2899  0.3125
 4581TIP3    H137938   1.794   0.866  16.507  0.2027  0.1265 -0.2060
 4581TIP3    H237939   1.674   0.914  16.587  0.4254 -0.4189  0.4671
 4582TIP3   OH237940   3.951   1.121  17.058  0.7896 -0.7357  0.3448
 4582TIP3    H137941   4.014   1.175  17.012  0.9675 -0.9741  0.3065
 4582TIP3    H237942   3.960   1.034  17.019  1.6423 -1.1884  1.4917
 4583TIP3   OH237943   3.984   5.844  17.342  0.3131 -0.0543 -0.0202
 4583TIP3    H137944   3.997   5.820  17.434  0.1255 -0.4422 -0.0973
 4583TIP3    H237945   3.907   5.900  17.343  0.0511 -0.4142  0.0018
 4584TIP3   OH237946   0.172   5.399  18.242  0.3711 -0.0747  0.6920
 4584TIP3    H137947   0.118   5.322  18.225  1.0082 -0.2871 -0.4284
 4584TIP3    H237948   0.112   5.473  18.235  0.2937 -0.2640 -1.0633
 4585TIP3   OH237949   3.605   1.482  16.785  0.0206 -0.1468  0.2192
 4585TIP3    H137950   3.654   1.448  16.860 -0.1274  0.3926  0.5685
 4585TIP3    H237951   3.513   1.464  16.807  0.0171 -0.5520 -0.1227
 4586TIP3   OH237952   4.044   3.859  14.790 -0.5384  0.3234 -0.6599
 4586TIP3    H137953   3.981   3.877  14.720 -0.6023  1.0531 -0.4271
 4586TIP3    H237954   3.998   3.799  14.849 -0.1940 -0.9483 -1.6431
 4587TIP3   OH237955   5.988   6.706  16.676  0.0490  0.1954  0.4997
 4587TIP3    H137956   6.000   6.798  16.701  1.5146  0.3189 -0.5172
 4587TIP3    H237957   6.076   6.671  16.672 -0.3965 -0.8483 -0.6127
 4588TIP3   OH237958   5.022   5.061  16.156 -0.2301 -0.2412  0.0587
 4588TIP3    H137959   5.025   4.973  16.192 -1.1802 -1.3597 -2.4089
 4588TIP3    H237960   4.947   5.062  16.098 -0.7335  2.4850  0.6002
 4589TIP3   OH237961   2.194   3.546  15.928 -0.5214 -0.2412  0.1529
 4589TIP3    H137962   2.285   3.562  15.902 -0.0224 -0.1798  1.8260
 4589TIP3    H237963   2.146   3.622  15.895 -0.5302 -1.5208 -3.1391
 4590TIP3   OH237964   2.467   0.781  16.448 -0.4341  0.3507  0.3795
 4590TIP3    H137965   2.523   0.848  16.408  1.3762 -0.3648  1.5758
 4590TIP3    H237966   2.378   0.813  16.434  0.1535  1.1078 -2.4247
 4591TIP3   OH237967   0.125   3.254  15.899 -0.3450  0.0702 -0.2103
 4591TIP3    H137968   0.054   3.274  15.960  0.9864  2.7866  0.5925
 4591TIP3    H237969   0.203   3.290  15.940  1.3182 -1.6388 -1.6953
 4592TIP3   OH237970   4.899   6.520  17.204 -0.2207  0.7335  0.2729
 4592TIP3    H137971   4.886   6.601  17.155 -1.2313 -0.2178 -1.1034
 4592TIP3    H237972   4.814   6.475  17.199  0.9799 -1.5529 -1.2044
 4593TIP3   OH237973   1.952   6.333  17.392 -0.7232  0.3469  0.1179
 4593TIP3    H137974   1.872   6.381  17.371 -0.5216  1.2024  1.1753
 4593TIP3    H237975   2.013   6.401  17.422 -0.6345 -0.5985  2.2877
 4594TIP3   OH237976   0.160   4.242  16.516 -0.5503  0.0548 -0.3952
 4594TIP3    H137977   0.163   4.299  16.593  0.9531  0.8298 -0.9922
 4594TIP3    H237978   0.186   4.156  16.549 -1.7049 -0.0576  0.2888
 4595TIP3   OH237979   5.615   4.162  15.467  0.2940 -0.6516  0.2839
 4595TIP3    H137980   5.538   4.215  15.445  0.8054  0.6426  1.4981
 4595TIP3    H237981   5.689   4.211  15.430  0.6724 -1.1648  0.3488
 4596TIP3   OH237982   4.342   2.345  17.764  0.5363  0.2214  0.1375
 4596TIP3    H137983   4.424   2.296  17.773  0.8163  0.3140 -1.5734
 4596TIP3    H237984   4.275   2.283  17.793  0.9318 -1.0817 -1.5532
 4597TIP3   OH237985   5.966   1.160  16.965  0.1191  0.3078 -0.4617
 4597TIP3    H137986   5.972   1.137  16.873  0.5264  1.2427 -0.6803
 4597TIP3    H237987   5.940   1.079  17.009 -0.7895  0.0366 -1.4822
 4598TIP3   OH237988   3.041   1.226  17.178  0.3694 -0.1746 -0.1884
 4598TIP3    H137989   2.948   1.214  17.196 -0.5095  2.0556 -2.6375
 4598TIP3    H237990   3.060   1.162  17.109 -0.4077  1.7594 -2.3304
 4599TIP3   OH237991   4.747   1.336  17.754 -0.8380  0.0655 -0.1019
 4599TIP3    H137992   4.711   1.247  17.751 -1.4108  0.3247 -2.5102
 4599TIP3    H237993   4.674   1.393  17.731 -0.0379  1.0064 -0.3740
 4600TIP3   OH237994   5.402   0.253  14.894  0.2475 -0.2783  0.4145
 4600TIP3    H137995   5.317   0.227  14.858  1.4449  0.6763 -3.5944
 4600TIP3    H237996   5.396   0.348  14.902  0.7556 -0.2575  0.5612
 4601TIP3   OH237997   3.234   1.307  14.616 -0.1538 -0.3368  0.3903
 4601TIP3    H137998   3.247   1.214  14.595 -0.7636 -0.4798  0.6327
 4601TIP3    H237999   3.306   1.351  14.572  0.5473 -0.9954  0.8320
 4602TIP3   OH238000   1.320   4.789  14.617 -0.2706 -0.1582  0.7838
 4602TIP3    H138001   1.300   4.776  14.710  1.8927  1.3676  1.5504
 4602TIP3    H238002   1.330   4.701  14.582 -1.4061 -0.7709  1.9029
 4603TIP3   OH238003   6.241   3.684  16.018 -0.4892  0.7942 -0.1697
 4603TIP3    H138004   6.220   3.774  15.993 -0.0318  0.8918 -0.2088
 4603TIP3    H238005   6.156   3.643  16.034 -0.7922  0.7412 -1.8174
 4604TIP3   OH238006   0.587   1.790  16.417  0.0120 -0.2538 -0.0378
 4604TIP3    H138007   0.619   1.860  16.360  0.0104  2.5442  3.0812
 4604TIP3    H238008   0.493   1.787  16.400  0.0533  0.3416 -0.3942
 4605TIP3   OH238009   0.682   6.143  15.717 -0.0783 -0.1456  0.4813
 4605TIP3    H138010   0.594   6.109  15.731  0.3965 -1.8354 -0.3398
 4605TIP3    H238011   0.676   6.237  15.736 -1.8497 -0.3875  1.2081
 4606TIP3   OH238012   1.445   3.456  16.221 -0.5687  0.5326  0.0802
 4606TIP3    H138013   1.440   3.386  16.286 -0.5393 -0.3276 -0.8168
 4606TIP3    H238014   1.536   3.454  16.191 -0.8350  0.2006 -0.7440
 4607TIP3   OH238015   2.341   1.322  16.150  0.3830  0.0649  0.3431
 4607TIP3    H138016   2.431   1.349  16.135  0.0967  0.9975  0.2159
 4607TIP3    H238017   2.288   1.385  16.100 -0.2798 -1.6407 -1.2138
 4608TIP3   OH238018   6.113   6.465  17.787  0.0322 -0.0193 -0.3748
 4608TIP3    H138019   6.196   6.501  17.820 -0.4890  0.1333  0.8208
 4608TIP3    H238020   6.098   6.387  17.841 -1.4900  0.9542  0.6641
 4609TIP3   OH238021   5.512   0.757  15.720 -0.1590 -0.7707 -0.5588
 4609TIP3    H138022   5.420   0.763  15.693 -0.0124 -1.6898 -1.3122
 4609TIP3    H238023   5.558   0.822  15.667 -0.0435 -1.8228 -1.7926
 4610TIP3   OH238024   1.873   1.877  15.688 -0.2524 -0.1080 -0.5266
 4610TIP3    H138025   1.811   1.905  15.755  1.6462  1.5168  0.6693
 4610TIP3    H238026   1.958   1.878  15.733  0.6818 -2.3673 -2.0380
 4611TIP3   OH238027   1.288   6.365  17.886  0.2005  0.1556 -0.4558
 4611TIP3    H138028   1.326   6.451  17.904  1.9937 -0.4897 -1.0025
 4611TIP3    H238029   1.354   6.319  17.835 -1.1907 -1.1644 -1.1554
 4612TIP3   OH238030   6.108   0.697  17.526  0.0746 -0.1029  0.4435
 4612TIP3    H138031   6.200   0.710  17.546 -0.3082  0.8676  1.7206
 4612TIP3    H238032   6.067   0.677  17.610 -0.8338 -0.8419 -0.1511
 4613TIP3   OH238033   5.484   5.942  16.043  0.3502 -0.2079  0.4025
 4613TIP3    H138034   5.443   6.027  16.025  0.2690 -0.1596  0.8095
 4613TIP3    H238035   5.575   5.963  16.064  0.3320 -0.2198  0.4967
 4614TIP3   OH238036   2.195   0.707  15.370  0.3484 -0.1474  0.1660
 4614TIP3    H138037   2.240   0.634  15.328 -0.7311 -1.1287  0.6431
 4614TIP3    H238038   2.159   0.670  15.451  0.8218  1.2348  1.0482
 4615TIP3   OH238039   6.177   2.107  14.986  0.2630 -0.0422 -0.7762
 4615TIP3    H138040   6.107   2.139  15.042  0.3832 -0.5585 -0.3197
 4615TIP3    H238041   6.211   2.185  14.943 -1.4182  0.0723 -1.9946
 4616TIP3   OH238042   4.958   1.724  17.695 -0.4728  0.2126 -0.3962
 4616TIP3    H138043   4.975   1.709  17.788 -1.3017  2.3215  0.1399
 4616TIP3    H238044   4.959   1.636  17.656  0.6079 -0.6550  1.4489
 4617TIP3   OH238045   2.336   5.542  16.156  0.2779  0.3176 -0.0833
 4617TIP3    H138046   2.397   5.558  16.229  0.1346  1.0947 -0.1176
 4617TIP3    H238047   2.257   5.589  16.182 -0.5600 -1.2439  0.2731
 4618TIP3   OH238048   4.313   5.440  16.849 -0.3165 -0.1805  0.9444
 4618TIP3    H138049   4.259   5.481  16.781 -0.3874  1.7958  2.1067
 4618TIP3    H238050   4.363   5.372  16.803 -0.4184  1.0403 -1.0708
 4619TIP3   OH238051   1.472   2.420  14.770  0.1930  0.4820 -0.5965
 4619TIP3    H138052   1.464   2.325  14.769 -0.9042  0.5379  0.5643
 4619TIP3    H238053   1.415   2.449  14.698 -0.1373  0.2937 -0.4148
 4620TIP3   OH238054   3.678   5.852  15.311  0.1271  0.5088  0.5004
 4620TIP3    H138055   3.752   5.809  15.268 -1.0753 -0.6072 -0.5433
 4620TIP3    H238056   3.675   5.811  15.398  0.9710  0.8664  0.7077
 4621TIP3   OH238057   5.907   5.049  17.243 -0.2813  0.1419 -0.2794
 4621TIP3    H138058   5.846   4.984  17.209  0.0623 -0.2104 -0.2260
 4621TIP3    H238059   5.994   5.012  17.226 -0.0454  1.1169 -1.3444
 4622TIP3   OH238060   0.644   5.919  14.775 -0.2303  0.4778  0.0451
 4622TIP3    H138061   0.599   6.002  14.759  0.3381  1.0038  1.1272
 4622TIP3    H238062   0.713   5.940  14.838 -0.6917 -0.9915  1.1035
 4623TIP3   OH238063   4.662   1.182  15.331 -0.4037 -0.1732  0.7146
 4623TIP3    H138064   4.738   1.162  15.386 -0.4678 -0.2857  0.7607
 4623TIP3    H238065   4.629   1.096  15.304 -0.5104 -0.1228  0.6871
 4624TIP3   OH238066   6.026   4.554  17.021  0.2784 -0.0923 -0.0090
 4624TIP3    H138067   5.944   4.603  17.017 -0.1879 -0.7842  0.6758
 4624TIP3    H238068   6.093   4.618  16.998 -0.2785  0.9787  1.1612
 4625TIP3   OH238069   1.426   0.149  15.831  0.3791 -0.4087 -0.1099
 4625TIP3    H138070   1.520   0.144  15.814  0.2298 -1.4265 -0.7204
 4625TIP3    H238071   1.389   0.076  15.781 -0.7290 -0.0516  0.1706
 4626TIP3   OH238072   1.054   5.234  15.431  0.3954  0.3659 -0.8284
 4626TIP3    H138073   1.054   5.242  15.336  1.4078 -0.4792 -0.9174
 4626TIP3    H238074   1.115   5.301  15.461  0.1696  0.5510 -0.7821
 4627TIP3   OH238075   3.699   4.042  15.119  0.4183  0.2728  0.0768
 4627TIP3    H138076   3.762   3.998  15.176  0.0993 -0.4568 -0.1228
 4627TIP3    H238077   3.622   3.986  15.121  0.4874  0.0945 -1.2794
 4628TIP3   OH238078   3.674   4.368  16.397  0.2488 -0.0129 -0.7541
 4628TIP3    H138079   3.634   4.288  16.431  0.5600  0.1895  0.1103
 4628TIP3    H238080   3.764   4.366  16.430  0.1136  0.9342 -0.3061
 4629TIP3   OH238081   4.581   2.827  16.725 -0.5822  0.5119 -0.3560
 4629TIP3    H138082   4.529   2.772  16.665  0.4651  0.4689 -1.2669
 4629TIP3    H238083   4.672   2.808  16.701 -0.1790  2.1031 -0.1921
 4630TIP3   OH238084   2.236   1.214  16.385 -0.3617 -0.2119  0.6483
 4630TIP3    H138085   2.275   1.254  16.463 -0.5927  0.5579  0.3747
 4630TIP3    H238086   2.263   1.270  16.313 -1.2365 -0.1684  0.3439
 4631TIP3   OH238087   0.987   5.585  15.380  0.9400 -0.8143  0.3450
 4631TIP3    H138088   1.037   5.658  15.345  0.4396 -0.6510 -0.0379
 4631TIP3    H238089   1.032   5.563  15.462  0.0980  1.0344  1.3651
 4632TIP3   OH238090   1.007   2.267  17.145 -0.0856  0.1883 -0.0053
 4632TIP3    H138091   0.919   2.277  17.181 -0.3458 -0.4094 -0.4644
 4632TIP3    H238092   1.040   2.186  17.184 -0.1735 -0.1910 -0.7053
 4633TIP3   OH238093   4.129   1.509  16.548 -0.1875 -0.6357  0.1956
 4633TIP3    H138094   4.132   1.553  16.633 -0.5337  0.4770 -0.3557
 4633TIP3    H238095   4.039   1.521  16.517  0.0164 -0.7717 -0.4650
 4634TIP3   OH238096   0.436   6.512  14.984 -0.4759 -0.0550  0.3578
 4634TIP3    H138097   0.417   6.419  14.997  1.5286 -0.4366  0.9471
 4634TIP3    H238098   0.404   6.555  15.063  2.2241 -0.8917  2.0481
 4635TIP3   OH238099   0.596   6.487  16.066 -0.0790 -0.3354 -0.5508
 4635TIP3    H138100   0.518   6.447  16.027 -0.3698 -0.0403 -0.2751
 4635TIP3    H238101   0.665   6.422  16.053 -0.3762 -0.6105 -0.7732
 4636TIP3   OH238102   2.920   2.916  16.924  0.4370  0.6008  0.0359
 4636TIP3    H138103   2.834   2.957  16.935 -0.2944  0.5199 -3.9087
 4636TIP3    H238104   2.976   2.958  16.990 -2.2481  1.6557  1.7961
 4637TIP3   OH238105   5.204   6.416  16.466 -0.4732  0.3595 -0.4576
 4637TIP3    H138106   5.185   6.433  16.558  1.7357  1.3395 -0.0958
 4637TIP3    H238107   5.205   6.503  16.426  1.2877  0.2364 -0.7657
 4638TIP3   OH238108   3.199   2.888  16.030 -0.1939 -0.1319 -0.1826
 4638TIP3    H138109   3.187   2.819  16.095 -1.2453 -0.2131 -0.4412
 4638TIP3    H238110   3.264   2.853  15.970 -0.6414 -0.8742 -0.2560
 4639TIP3   OH238111   1.491   0.523  16.226  0.0340 -0.1528 -0.2445
 4639TIP3    H138112   1.521   0.528  16.316  1.7646 -0.5627 -0.7547
 4639TIP3    H238113   1.417   0.584  16.221 -0.8526 -1.0223  1.7101
 4640TIP3   OH238114   3.592   5.756  15.552  0.4386  0.0638  0.4293
 4640TIP3    H138115   3.606   5.842  15.592  0.5468  0.0832  0.3494
 4640TIP3    H238116   3.507   5.763  15.509  1.2867  0.7647 -1.2317
 4641TIP3   OH238117   6.711   5.437  15.202 -0.2824 -0.3249  0.1710
 4641TIP3    H138118   6.769   5.399  15.268 -2.0543 -0.2531  1.8362
 4641TIP3    H238119   6.770   5.461  15.130  1.8687  0.4660  2.0829
 4642TIP3   OH238120   0.690   3.654  16.945 -0.2089 -0.6083  0.1386
 4642TIP3    H138121   0.612   3.650  16.890  0.3693 -0.0123 -0.7558
 4642TIP3    H238122   0.749   3.714  16.899  0.2537 -0.0049  1.4728
 4643TIP3   OH238123   3.695   2.176  16.151 -0.2083 -0.5281 -0.2968
 4643TIP3    H138124   3.763   2.173  16.218 -1.6953 -0.8716  1.2869
 4643TIP3    H238125   3.695   2.088  16.113 -1.3349 -1.3304  1.4216
 4644TIP3   OH238126   4.334   0.377  17.145  0.3449 -0.4381 -0.4714
 4644TIP3    H138127   4.397   0.369  17.217 -0.6526 -1.8521  0.3023
 4644TIP3    H238128   4.261   0.426  17.183  0.0265 -0.7493 -0.6788
 4645TIP3   OH238129   6.700   3.392  18.240  0.1228 -0.0271 -0.0190
 4645TIP3    H138130   6.722   3.407  18.148  1.2272  0.6097  0.3244
 4645TIP3    H238131   6.659   3.474  18.268  0.0765 -0.1012  0.1278
 4646TIP3   OH238132   5.424   4.712  17.142 -0.1339  0.3517 -0.0637
 4646TIP3    H138133   5.466   4.636  17.101  1.5130  0.9642  0.4015
 4646TIP3    H238134   5.450   4.786  17.087  1.7771  1.1295  1.7360
 4647TIP3   OH238135   1.779   6.031  14.893  0.3447 -0.4598 -0.0118
 4647TIP3    H138136   1.842   6.095  14.862 -0.6988 -0.5455 -2.5850
 4647TIP3    H238137   1.798   5.952  14.842 -0.2778 -1.2616  0.9599
 4648TIP3   OH238138   0.691   1.484  16.595  0.5494  0.1988 -0.2411
 4648TIP3    H138139   0.682   1.511  16.503  0.7771 -0.4436 -0.4580
 4648TIP3    H238140   0.772   1.524  16.624 -0.2903  1.6942  0.1554
 4649TIP3   OH238141   3.062   5.908  16.008 -0.4475 -0.0659  0.2665
 4649TIP3    H138142   3.106   5.828  15.977  0.0738 -0.2242  1.3823
 4649TIP3    H238143   3.028   5.885  16.094  2.0850  1.6809  1.8680
 4650TIP3   OH238144   5.479   3.064  17.782 -0.0302 -0.1064  0.5373
 4650TIP3    H138145   5.520   3.075  17.868 -0.5115  0.3903  0.7043
 4650TIP3    H238146   5.458   3.152  17.753  1.3546 -0.1470 -0.7167
 4651TIP3   OH238147   2.654   3.167  16.655 -0.3860 -0.0258  0.3441
 4651TIP3    H138148   2.684   3.138  16.741 -1.7250  0.7926  1.1197
 4651TIP3    H238149   2.699   3.251  16.641 -2.0564  1.1037  1.4183
 4652TIP3   OH238150   2.184   2.489  16.207 -0.1167 -0.0084  0.2000
 4652TIP3    H138151   2.118   2.429  16.173 -0.0924 -0.0210  0.1759
 4652TIP3    H238152   2.245   2.501  16.135 -0.5281  0.6432 -0.0477
 4653TIP3   OH238153   5.064   0.180  15.878  0.7499 -0.2458  0.0614
 4653TIP3    H138154   5.133   0.147  15.937  1.2729 -1.1691 -1.0300
 4653TIP3    H238155   4.993   0.117  15.888  1.1556 -0.8649 -0.8873
 4654TIP3   OH238156   5.483   2.619  16.181 -0.3872 -0.2111  0.8961
 4654TIP3    H138157   5.393   2.617  16.214 -1.6720 -2.0007 -2.2397
 4654TIP3    H238158   5.496   2.708  16.150 -1.4703 -0.1844  0.4822
 4655TIP3   OH238159   6.103   6.055  16.830 -0.2437  0.6025 -0.1917
 4655TIP3    H138160   6.066   6.029  16.746  1.3121  0.8511 -0.9871
 4655TIP3    H238161   6.185   6.099  16.808  1.7093 -1.8515  1.5206
 4656TIP3   OH238162   4.358   1.846  15.283  0.2581  0.0062 -0.2700
 4656TIP3    H138163   4.396   1.934  15.288  0.8230 -0.1433 -1.4655
 4656TIP3    H238164   4.420   1.797  15.229 -0.5211 -0.8718 -0.3889
 4657TIP3   OH238165   0.072   6.268  18.069 -0.0793  0.1988  0.6986
 4657TIP3    H138166   0.092   6.194  18.011 -0.9136  0.2482  0.3193
 4657TIP3    H238167   0.118   6.249  18.150 -0.4709 -0.8602  0.6819
 4658TIP3   OH238168   3.753   0.452  14.834 -0.1873 -0.2179 -0.1483
 4658TIP3    H138169   3.798   0.472  14.752 -1.6265 -1.9830 -1.4262
 4658TIP3    H238170   3.805   0.382  14.873 -0.8626 -1.1109 -0.8138
 4659TIP3   OH238171   5.881   0.736  17.373 -0.1193  0.3847  0.1534
 4659TIP3    H138172   5.968   0.719  17.409 -0.6819  0.7029  1.7345
 4659TIP3    H238173   5.891   0.815  17.321  0.5386  0.4170  0.3241
 4660TIP3   OH238174   5.618   3.404  16.646  0.0217 -0.1979 -0.0383
 4660TIP3    H138175   5.712   3.402  16.628  0.0593  0.2336  0.1030
 4660TIP3    H238176   5.611   3.377  16.738  0.0119 -0.2017 -0.0400
 4661TIP3   OH238177   6.606   0.892  15.463  0.1724 -0.6903  0.4849
 4661TIP3    H138178   6.624   0.943  15.384 -1.5654 -1.3991 -0.4232
 4661TIP3    H238179   6.629   0.951  15.535 -2.3933  1.7429 -0.4970
 4662TIP3   OH238180   4.780   1.938  17.588 -0.4803  0.4143 -0.5020
 4662TIP3    H138181   4.833   1.881  17.643 -0.3516  1.5447  0.5837
 4662TIP3    H238182   4.782   2.023  17.632 -0.4862  1.3353 -2.1889
 4663TIP3   OH238183   1.856   6.647  16.274 -0.3376  0.2624 -0.2734
 4663TIP3    H138184   1.845   6.603  16.190  0.9033 -2.8659  1.0392
 4663TIP3    H238185   1.769   6.644  16.314  0.1787 -4.5113  1.1699
 4664TIP3   OH238186   2.577   5.815  17.568  0.0544  0.2807 -0.4645
 4664TIP3    H138187   2.602   5.900  17.603 -0.5654  1.2202 -2.1765
 4664TIP3    H238188   2.656   5.781  17.528  0.2491  0.1352  0.0350
 4665TIP3   OH238189   0.199   2.272  15.142  0.0206  0.0709 -0.7872
 4665TIP3    H138190   0.202   2.222  15.224 -1.4413 -0.1354 -0.8408
 4665TIP3    H238191   0.208   2.363  15.169 -1.9710  0.1309 -0.2276
 4666TIP3   OH238192   3.567   5.919  14.450  0.3828  0.3540  0.0604
 4666TIP3    H138193   3.615   5.988  14.404  0.5701  0.0458 -0.2062
 4666TIP3    H238194   3.588   5.933  14.543  1.7905 -0.3807 -0.1253
 4667TIP3   OH238195   2.900   1.712  17.517 -0.3054 -0.4184 -0.2831
 4667TIP3    H138196   2.853   1.794  17.500  1.1112  0.8472  1.5032
 4667TIP3    H238197   2.976   1.716  17.458  0.6341  0.3897  0.9350
 4668TIP3   OH238198   0.530   3.484  16.294  0.6915  0.4442  0.1039
 4668TIP3    H138199   0.521   3.569  16.251  1.1317  0.9723  1.0430
 4668TIP3    H238200   0.441   3.450  16.301  0.4139  1.2619  0.5931
 4669TIP3   OH238201   5.970   1.156  16.144 -0.0842  0.0272  0.2408
 4669TIP3    H138202   5.916   1.082  16.116  0.4714  0.6731 -2.8100
 4669TIP3    H238203   5.911   1.231  16.139  0.4832  0.4126 -1.0363
 4670TIP3   OH238204   2.546   4.291  16.051  0.4301  0.3341  0.5292
 4670TIP3    H138205   2.570   4.292  15.958 -0.1054  1.1647  0.3777
 4670TIP3    H238206   2.502   4.375  16.064  0.3424  0.1466  1.4966
 4671TIP3   OH238207   0.764   3.557  16.552 -0.3612  0.1186  0.3709
 4671TIP3    H138208   0.780   3.650  16.568 -0.4155  0.1902  0.0261
 4671TIP3    H238209   0.733   3.554  16.461  1.8000 -0.4693 -0.3966
 4672TIP3   OH238210   0.424   5.126  18.160  0.0177  0.9555  0.3741
 4672TIP3    H138211   0.497   5.074  18.196  2.3832  2.4837 -1.8057
 4672TIP3    H238212   0.385   5.169  18.236  0.9998 -0.3825  1.6986
 4673TIP3   OH238213   5.882   6.134  17.392  0.0185  0.0830  0.3914
 4673TIP3    H138214   5.923   6.155  17.308 -1.6500 -1.8552 -0.9829
 4673TIP3    H238215   5.947   6.160  17.457  1.6830  0.9356 -1.5056
 4674TIP3   OH238216   2.671   1.497  14.783 -0.4357 -0.2221 -0.0976
 4674TIP3    H138217   2.765   1.508  14.798 -0.3942 -0.2863 -0.3141
 4674TIP3    H238218   2.636   1.472  14.869 -0.4082  0.7637  0.2221
 4675TIP3   OH238219   3.244   6.714  16.167  0.1571 -0.1940  0.1066
 4675TIP3    H138220   3.214   6.738  16.255  1.5341  0.7519  0.3532
 4675TIP3    H238221   3.267   6.622  16.174 -1.0218 -0.4880  0.3583
 4676TIP3   OH238222   2.452   0.251  15.205 -0.6614  0.4624  0.4314
 4676TIP3    H138223   2.520   0.218  15.263 -0.6227 -0.9831 -0.3917
 4676TIP3    H238224   2.401   0.312  15.259 -1.3080 -1.6265  2.3217
 4677TIP3   OH238225   5.762   0.342  14.447 -0.4601  0.4036  0.2453
 4677TIP3    H138226   5.795   0.418  14.400 -0.2863 -1.0421 -2.1270
 4677TIP3    H238227   5.841   0.296  14.477 -0.4611  0.0160 -0.3133
 4678TIP3   OH238228   3.745   4.856  15.578  0.3891  0.4355  0.3792
 4678TIP3    H138229   3.772   4.914  15.507  1.3233  0.2828  0.6032
 4678TIP3    H238230   3.731   4.771  15.535 -1.6044  0.9391 -0.0635
 4679TIP3   OH238231   1.458   0.946  17.385  0.0541 -0.0691  0.2784
 4679TIP3    H138232   1.482   0.864  17.428  0.6151 -0.2955 -0.4607
 4679TIP3    H238233   1.389   0.983  17.441 -1.7774 -2.0970 -0.5037
 4680TIP3   OH238234   6.513   6.706  15.812 -0.0691 -0.6621 -0.2777
 4680TIP3    H138235   6.541   6.616  15.826  0.4493 -1.1423 -3.5468
 4680TIP3    H238236   6.485   6.709  15.720  1.4655  2.8479 -0.8150
 4681TIP3   OH238237   2.171   6.387  14.658  0.0474 -1.0361 -0.7471
 4681TIP3    H138238   2.167   6.436  14.575 -0.2770 -0.1104 -0.2054
 4681TIP3    H238239   2.248   6.331  14.649 -0.0245 -1.0104 -1.7045
 4682TIP3   OH238240   3.346   5.712  17.814 -0.0223  0.8140  0.7820
 4682TIP3    H138241   3.320   5.796  17.777 -2.5827 -0.4578 -0.5588
 4682TIP3    H238242   3.387   5.665  17.741  2.8099  1.3545  1.9085
 4683TIP3   OH238243   6.257   0.271  17.669  0.2967  0.1898 -0.3921
 4683TIP3    H138244   6.162   0.282  17.665 -0.0231 -2.0158 -0.2529
 4683TIP3    H238245   6.286   0.281  17.579  0.1507  2.1814 -0.2603
 4684TIP3   OH238246   0.459   0.577  17.446  0.5339  0.3826  0.6500
 4684TIP3    H138247   0.384   0.543  17.495 -0.1758 -0.2498 -0.7893
 4684TIP3    H238248   0.420   0.638  17.383  1.2336  0.1318 -0.0432
 4685TIP3   OH238249   4.942   0.733  15.039 -0.4470  0.2339 -0.1360
 4685TIP3    H138250   4.943   0.708  14.947 -0.5945 -0.6509  0.1023
 4685TIP3    H238251   4.982   0.821  15.040  2.1724 -0.8502 -0.7359
 4686TIP3   OH238252   5.478   6.128  14.290 -0.3434 -0.9902  0.2444
 4686TIP3    H138253   5.386   6.101  14.289 -1.6558  2.8700  0.0485
 4686TIP3    H238254   5.491   6.170  14.205  0.5144  1.4561  1.4809
 4687TIP3   OH238255   2.211   4.182  15.028 -0.2560 -0.2236  0.4875
 4687TIP3    H138256   2.232   4.145  14.942  0.2392  1.1233 -0.0045
 4687TIP3    H238257   2.193   4.106  15.083  0.1872 -1.1584 -0.6065
 4688TIP3   OH238258   3.834   0.119  16.806 -0.4511  0.3868  0.1202
 4688TIP3    H138259   3.795   0.168  16.733  1.1039  0.6159 -0.5922
 4688TIP3    H238260   3.910   0.076  16.767 -0.4951 -0.7656  1.2729
 4689TIP3   OH238261   3.719   5.384  16.887  0.0805  0.4436 -0.3308
 4689TIP3    H138262   3.650   5.405  16.824  1.8268 -1.2139 -2.9626
 4689TIP3    H238263   3.773   5.463  16.889 -1.0957  1.2569  0.7285
 4690TIP3   OH238264   5.792   4.356  16.932 -0.2948  0.2261 -0.5268
 4690TIP3    H138265   5.827   4.282  16.979  0.3737 -0.9278 -2.6948
 4690TIP3    H238266   5.698   4.340  16.927 -0.3042  0.1246 -0.0152
 4691TIP3   OH238267   2.153   2.003  17.315  0.1324 -0.1709 -0.4212
 4691TIP3    H138268   2.215   2.060  17.270  2.0009 -1.1677  0.7556
 4691TIP3    H238269   2.191   1.916  17.307 -0.9057 -0.7586  0.7320
 4692TIP3   OH238270   2.159   0.079  15.447  0.0887  0.6665 -0.6178
 4692TIP3    H138271   2.077   0.109  15.407 -0.1713  0.2883 -0.3841
 4692TIP3    H238272   2.207   0.039  15.375 -0.5535 -0.3718 -0.5004
 4693TIP3   OH238273   1.361   5.047  14.389 -0.1652  0.5192  0.0255
 4693TIP3    H138274   1.336   4.959  14.416  0.9018  0.3272  0.4312
 4693TIP3    H238275   1.355   5.099  14.469 -0.8729  0.8504 -0.2301
 4694TIP3   OH238276   4.441   0.424  16.513  0.5707 -0.7690  0.4272
 4694TIP3    H138277   4.505   0.495  16.524 -0.0137 -0.2675  0.6564
 4694TIP3    H238278   4.370   0.447  16.573 -0.1747 -0.9009 -0.3907
 4695TIP3   OH238279   5.314   1.919  15.428  0.4797  0.3076  0.1200
 4695TIP3    H138280   5.351   1.949  15.511 -0.6569  0.4404  0.5947
 4695TIP3    H238281   5.279   1.832  15.447  0.3203  0.2868 -0.2534
 4696TIP3   OH238282   2.799   2.155  17.692  0.2249  0.7158 -0.3589
 4696TIP3    H138283   2.724   2.211  17.672 -2.1580 -0.2918  4.3953
 4696TIP3    H238284   2.771   2.068  17.662  1.1232  0.8999 -1.8112
 4697TIP3   OH238285   3.719   0.747  15.094 -0.1450  0.1949 -0.3084
 4697TIP3    H138286   3.663   0.824  15.104  1.0167  1.1369 -0.7835
 4697TIP3    H238287   3.726   0.734  14.999 -0.2420 -0.4373 -0.2344
 4698TIP3   OH238288   1.494   1.055  16.122  0.8578 -0.3896 -0.1553
 4698TIP3    H138289   1.533   0.978  16.163 -0.3879 -1.5260 -1.0432
 4698TIP3    H238290   1.433   1.089  16.188  0.4076 -0.9730 -0.2656
 4699TIP3   OH238291   2.250   5.611  16.832 -0.5143  0.2752  0.0683
 4699TIP3    H138292   2.296   5.683  16.788 -0.7355  1.9363  2.3472
 4699TIP3    H238293   2.161   5.644  16.845 -1.2089 -1.2520 -0.6225
 4700TIP3   OH238294   6.513   5.604  16.761  0.1168 -0.4697 -0.2711
 4700TIP3    H138295   6.505   5.607  16.857  0.0930 -0.1170 -0.2812
 4700TIP3    H238296   6.565   5.526  16.744  0.0016 -0.6129  0.0249
 4701TIP3   OH238297   2.043   2.758  18.129 -0.7713 -0.0392  0.0335
 4701TIP3    H138298   2.106   2.738  18.060  0.7568 -3.5885  2.1550
 4701TIP3    H238299   2.083   2.828  18.180 -0.4976  0.5285 -0.9478
 4702TIP3   OH238300   3.688   0.042  15.244  0.5631 -0.4891 -0.3739
 4702TIP3    H138301   3.631  -0.033  15.227 -1.2565 -0.0016  2.9112
 4702TIP3    H238302   3.640   0.117  15.208  0.4737 -0.4143 -0.0978
 4703TIP3   OH238303   2.377   4.199  17.055  0.4961 -0.3238  0.3005
 4703TIP3    H138304   2.359   4.293  17.056  0.9596 -0.2162 -0.4903
 4703TIP3    H238305   2.468   4.192  17.085  0.4184 -0.5334  0.4902
 4704TIP3   OH238306   1.534   5.056  18.333 -0.1543  0.2701  0.4285
 4704TIP3    H138307   1.545   5.097  18.418 -1.5006  1.1864  0.1853
 4704TIP3    H238308   1.467   5.108  18.289  0.3871 -0.2813 -1.1323
 4705TIP3   OH238309   0.954   6.170  15.955  0.3450  0.3231 -0.3890
 4705TIP3    H138310   0.967   6.128  16.040 -0.5230  0.3472 -0.2341
 4705TIP3    H238311   0.866   6.207  15.960 -1.3300 -2.8764 -2.6224
 4706TIP3   OH238312   2.332   2.246  17.598 -0.1425 -0.0838  0.2603
 4706TIP3    H138313   2.329   2.213  17.687  1.1333  0.0506  0.3690
 4706TIP3    H238314   2.347   2.168  17.543 -0.4861 -0.1097  0.2020
 4707TIP3   OH238315   2.388   0.240  17.103  0.1348  0.4333  0.1928
 4707TIP3    H138316   2.327   0.311  17.084  0.2514  0.6463  0.5987
 4707TIP3    H238317   2.404   0.198  17.018  1.6811  2.1912 -0.4684
 4708TIP3   OH238318   5.218   2.342  16.205 -0.0660  0.1125 -0.0737
 4708TIP3    H138319   5.124   2.330  16.218  0.1769 -0.0512  1.7152
 4708TIP3    H238320   5.232   2.436  16.216  0.0363  0.0835  0.0460
 4709TIP3   OH238321   4.904   0.157  14.869  0.0439 -0.0388  0.7453
 4709TIP3    H138322   4.883   0.182  14.958  0.1626 -1.7772  1.2980
 4709TIP3    H238323   4.899   0.239  14.819  0.0738  0.9761  2.3404
 4710TIP3   OH238324   1.489   4.771  17.728 -0.2243 -0.5506  0.1067
 4710TIP3    H138325   1.441   4.825  17.665 -0.3712  0.5546  1.1218
 4710TIP3    H238326   1.559   4.828  17.760  0.0657 -1.2135  0.6763
 4711TIP3   OH238327   6.589   6.285  16.648 -0.3608 -0.1813 -0.1180
 4711TIP3    H138328   6.614   6.285  16.556 -0.0190  0.9211 -0.0418
 4711TIP3    H238329   6.671   6.271  16.695 -0.3442  0.4908  0.0539
 4712TIP3   OH238330   6.119   2.124  17.115 -0.0706  0.0965 -0.4664
 4712TIP3    H138331   6.127   2.147  17.023  0.5468 -0.5617 -0.5861
 4712TIP3    H238332   6.102   2.207  17.159 -0.3062  0.4229 -1.1657
 4713TIP3   OH238333   4.817   4.059  17.434  0.1311 -0.2245 -0.1057
 4713TIP3    H138334   4.880   3.988  17.442 -0.1359 -0.4616 -0.1037
 4713TIP3    H238335   4.862   4.126  17.383  0.6949 -0.0333  0.6379
 4714TIP3   OH238336   5.328   6.229  17.583 -0.0653 -0.2743 -0.3619
 4714TIP3    H138337   5.308   6.322  17.573 -1.4920 -0.5829 -0.5703
 4714TIP3    H238338   5.424   6.225  17.583  0.1166  0.8750 -3.6393
 4715TIP3   OH238339   4.241   3.135  17.520 -0.0785  0.0484 -0.0771
 4715TIP3    H138340   4.269   3.198  17.586  2.8050 -0.6655 -0.5093
 4715TIP3    H238341   4.265   3.050  17.556 -1.4721 -0.6312 -0.6673
 4716TIP3   OH238342   2.359   5.981  14.514  0.4418 -0.5112 -0.0098
 4716TIP3    H138343   2.354   6.070  14.550 -0.2713 -0.0606 -1.1793
 4716TIP3    H238344   2.449   5.974  14.481  0.1933  0.1645 -0.8602
 4717TIP3   OH238345   2.431   1.075  14.067 -0.2363  0.9157  0.0755
 4717TIP3    H138346   2.370   1.135  14.024 -0.9941 -0.1657 -0.4070
 4717TIP3    H238347   2.376   1.023  14.126  0.1185 -0.2974 -0.6055
 4718TIP3   OH238348   4.950   5.334  16.221 -0.1966 -0.7691  0.2955
 4718TIP3    H138349   4.938   5.253  16.271 -0.1636 -0.3779  0.9514
 4718TIP3    H238350   5.043   5.354  16.231 -0.2851 -0.4389  0.4756
 4719TIP3   OH238351   6.621   1.499  16.363  0.3182 -0.6399 -0.2863
 4719TIP3    H138352   6.532   1.476  16.336  0.2464 -0.1498 -0.4731
 4719TIP3    H238353   6.662   1.532  16.283  0.2558  0.3581  0.0871
 4720TIP3   OH238354   2.318   5.932  18.026 -0.4888  0.0841 -0.0703
 4720TIP3    H138355   2.399   5.952  18.074 -1.0991  1.6110  0.3959
 4720TIP3    H238356   2.344   5.930  17.934  0.4593 -1.5737  0.2056
 4721TIP3   OH238357   2.492   0.487  17.739  0.2107 -0.2076  0.8129
 4721TIP3    H138358   2.494   0.512  17.647 -1.5700 -0.2968  0.7207
 4721TIP3    H238359   2.446   0.558  17.782 -0.8530 -1.1583  1.2821
 4722TIP3   OH238360   1.239   3.124  17.708 -0.2226 -0.2473 -0.5016
 4722TIP3    H138361   1.330   3.136  17.684  0.4869 -1.0990  1.5297
 4722TIP3    H238362   1.202   3.212  17.710  1.3159  0.4142  1.3108
 4723TIP3   OH238363   1.764   2.698  16.102 -0.7576  0.5714  0.0062
 4723TIP3    H138364   1.771   2.660  16.014 -0.3768  2.8416 -1.0078
 4723TIP3    H238365   1.836   2.659  16.151 -1.1969 -1.0132 -0.5295
 4724TIP3   OH238366   1.227   5.013  14.991  0.2105  0.2166 -0.1609
 4724TIP3    H138367   1.242   4.923  14.961 -1.3143 -0.2896  0.4553
 4724TIP3    H238368   1.259   5.068  14.920 -0.0735 -0.8497 -1.1489
 4725TIP3   OH238369   0.047   4.006  17.308 -0.1587 -0.3316 -0.0301
 4725TIP3    H138370   0.110   3.942  17.340 -0.2459  0.5691  2.1670
 4725TIP3    H238371  -0.037   3.977  17.345 -0.2970  0.6749  0.4854
 4726TIP3   OH238372   1.840   5.826  17.165 -0.0893  0.6142  0.0997
 4726TIP3    H138373   1.860   5.826  17.259 -1.5062  0.6263  0.4179
 4726TIP3    H238374   1.915   5.783  17.125  0.1330 -0.2008  1.3393
 4727TIP3   OH238375   1.436   1.691  16.703  0.3425 -0.5458  0.3199
 4727TIP3    H138376   1.407   1.722  16.618  0.1743  0.2607  0.6681
 4727TIP3    H238377   1.359   1.647  16.740 -0.2195  0.8345  0.8737
 4728TIP3   OH238378   1.514   2.290  15.531 -0.1682 -0.3985  0.0558
 4728TIP3    H138379   1.559   2.349  15.470  1.7146 -1.7556  0.0328
 4728TIP3    H238380   1.456   2.346  15.581  0.4760  1.2330 -0.9491
 4729TIP3   OH238381   6.375   1.898  16.508 -0.8500 -0.1950 -0.3196
 4729TIP3    H138382   6.397   1.977  16.557 -0.8335 -0.5149  0.1837
 4729TIP3    H238383   6.452   1.881  16.454 -0.9393  0.2580 -0.5972
 4730TIP3   OH238384   0.055   2.558  15.116 -0.3818  0.3661 -0.6953
 4730TIP3    H138385   0.009   2.641  15.131  0.4063  0.7492 -0.3027
 4730TIP3    H238386   0.009   2.495  15.171 -0.6867  0.6564 -0.6145
 4731TIP3   OH238387   0.643   3.000  17.958 -0.2354  0.4095 -0.0771
 4731TIP3    H138388   0.553   2.969  17.959 -0.4742  1.0851 -0.2834
 4731TIP3    H238389   0.640   3.083  18.006 -0.2233  1.7946 -2.3695
 4732TIP3   OH238390   3.039   2.225  16.988  0.6471  0.2073 -0.1575
 4732TIP3    H138391   2.984   2.292  17.026 -0.1286 -0.4675 -0.0588
 4732TIP3    H238392   3.047   2.250  16.896  0.6961  0.6472 -0.0343
 4733TIP3   OH238393   5.753   3.323  15.742 -0.4104 -0.3731  0.1642
 4733TIP3    H138394   5.837   3.279  15.754 -0.6874 -1.2740 -1.0423
 4733TIP3    H238395   5.696   3.256  15.705 -1.6126  0.2870  0.7526
 4734TIP3   OH238396   1.295   5.103  15.998  0.4951 -0.1042 -0.6654
 4734TIP3    H138397   1.204   5.133  15.994  0.3446 -0.6296 -1.5787
 4734TIP3    H238398   1.345   5.183  16.015  0.0041  0.5148 -1.9341
 4735TIP3   OH238399   0.352   3.042  15.845 -0.2612  0.3344 -0.0884
 4735TIP3    H138400   0.312   3.101  15.909  4.0077  1.9207  1.5352
 4735TIP3    H238401   0.375   3.098  15.771  0.8960  0.0578  0.0325
 4736TIP3   OH238402   0.633   5.521  16.825  0.5812  0.3064  0.3096
 4736TIP3    H138403   0.642   5.491  16.735  0.2996  3.5156 -0.9091
 4736TIP3    H238404   0.634   5.617  16.819  2.2349  0.6913  3.9022
 4737TIP3   OH238405   3.306   4.917  18.222 -0.4984 -0.4097  0.4232
 4737TIP3    H138406   3.298   5.005  18.186 -1.6186 -0.1723  1.1805
 4737TIP3    H238407   3.393   4.916  18.263 -0.2276  0.1332 -0.1155
 4738TIP3   OH238408   3.816   1.570  17.802  0.0132 -0.3555 -0.2819
 4738TIP3    H138409   3.818   1.631  17.875 -0.5654 -0.8363  0.1478
 4738TIP3    H238410   3.814   1.626  17.724  0.6961  0.1605  0.0605
 4739TIP3   OH238411   1.962   0.907  16.160  0.1469 -0.2615  0.1648
 4739TIP3    H138412   1.896   0.839  16.171  1.6387 -1.7278  0.5016
 4739TIP3    H238413   1.942   0.946  16.075 -1.8780  0.2221  0.8060
 4740TIP3   OH238414   1.667   1.428  17.320 -0.1647  1.0121  0.0008
 4740TIP3    H138415   1.709   1.374  17.386 -0.6070 -0.0317 -0.5561
 4740TIP3    H238416   1.738   1.478  17.280  0.3531  0.3162  0.0365
 4741TIP3   OH238417   5.927   0.901  15.453  0.1969 -0.2321  0.2181
 4741TIP3    H138418   5.860   0.920  15.388 -0.1023 -0.1764  0.5426
 4741TIP3    H238419   5.879   0.873  15.531  0.5046  0.5588  0.7076
 4742TIP3   OH238420   0.814   3.296  16.160  0.3810 -0.0256 -0.0054
 4742TIP3    H138421   0.802   3.390  16.151  2.2636  0.4220  1.5750
 4742TIP3    H238422   0.837   3.283  16.252 -0.3165 -2.1021 -0.0722
 4743TIP3   OH238423   5.207   4.888  16.531  0.1444 -0.3346 -0.3054
 4743TIP3    H138424   5.122   4.871  16.489  0.3108  1.8930 -1.6995
 4743TIP3    H238425   5.262   4.920  16.460  1.4824  0.3567  1.0025
 4744TIP3   OH238426   4.923   4.062  16.964 -0.1389  0.3005  0.2507
 4744TIP3    H138427   4.933   4.151  16.997  0.9555  0.7836 -1.2917
 4744TIP3    H238428   4.945   4.006  17.038 -1.3196  1.2783  1.3837
 4745TIP3   OH238429   5.718   3.265  15.372 -0.0919 -0.0844 -0.1036
 4745TIP3    H138430   5.750   3.341  15.421 -0.6209 -1.1751  2.0280
 4745TIP3    H238431   5.672   3.304  15.297  1.8786  1.6043 -0.5391
 4746TIP3   OH238432   0.755   2.968  17.675  0.0740 -0.3871  0.0897
 4746TIP3    H138433   0.740   3.062  17.665  1.6665 -0.1346 -0.2881
 4746TIP3    H238434   0.689   2.939  17.738 -1.3617  0.6851 -0.8751
 4747TIP3   OH238435   1.719   1.253  17.096  0.4150 -0.0045  0.3941
 4747TIP3    H138436   1.681   1.318  17.155 -0.6299 -0.0784 -0.1696
 4747TIP3    H238437   1.722   1.173  17.149  0.4562  0.1756  0.6679
 4748TIP3   OH238438   5.353   2.321  17.153 -0.6800 -0.6312  0.1870
 4748TIP3    H138439   5.394   2.362  17.229 -0.9378 -0.8116  0.4209
 4748TIP3    H238440   5.334   2.395  17.094  0.2952 -0.5762 -0.0808
 4749TIP3   OH238441   5.649   3.025  15.824  0.5030 -0.0343 -0.3901
 4749TIP3    H138442   5.614   3.031  15.735 -1.7512  1.8661  0.5006
 4749TIP3    H238443   5.599   3.090  15.873  2.4126 -0.2784  2.0570
 4750TIP3   OH238444   6.163   1.764  15.957  0.0158 -0.1200  0.4326
 4750TIP3    H138445   6.204   1.777  15.872  1.5496 -0.1507  1.1394
 4750TIP3    H238446   6.096   1.697  15.941  0.1412  0.0300 -0.7822
 4751TIP3   OH238447   6.605   5.255  17.620 -0.5235 -0.7314  0.9534
 4751TIP3    H138448   6.530   5.272  17.564  0.1687  2.0353  0.7071
 4751TIP3    H238449   6.571   5.258  17.709 -0.8909 -0.4961  0.8055
 4752TIP3   OH238450   1.218   3.300  16.074  0.0462  0.2653 -0.4207
 4752TIP3    H138451   1.296   3.340  16.113 -0.7019  0.6575  0.7369
 4752TIP3    H238452   1.175   3.255  16.147  0.0811 -1.4308 -1.3882
 4753TIP3   OH238453   1.935   0.908  17.056  0.1889 -0.4024  0.1427
 4753TIP3    H138454   1.885   0.925  16.976  1.7032  1.1765 -0.5431
 4753TIP3    H238455   1.872   0.918  17.127 -0.9235 -0.6591 -0.7829
 4754TIP3   OH238456   0.978   0.999  15.055  0.5813  0.4891 -0.1645
 4754TIP3    H138457   1.015   1.083  15.081 -0.4275  1.1325 -0.7266
 4754TIP3    H238458   0.942   1.015  14.968  1.4828 -0.8732 -0.8220
 4755TIP3   OH238459   2.481   4.945  17.325 -0.0998  0.5589 -0.0257
 4755TIP3    H138460   2.479   4.960  17.230 -0.5106 -0.7498 -0.2397
 4755TIP3    H238461   2.393   4.915  17.347 -0.0782  1.0966  0.8198
 4756TIP3   OH238462   0.880   1.970  17.907 -0.3197  0.0442 -0.1982
 4756TIP3    H138463   0.895   1.906  17.976  0.3833  1.1983  0.7741
 4756TIP3    H238464   0.797   1.944  17.867  0.8908 -2.5813 -1.1635
 4757TIP3   OH238465   5.683   4.454  15.720  0.1915  0.6153  0.2707
 4757TIP3    H138466   5.769   4.458  15.677 -0.5834  0.3993 -1.4002
 4757TIP3    H238467   5.703   4.438  15.812  1.9376  0.0995 -0.1493
 4758TIP3   OH238468   3.178   2.006  15.219 -0.2849 -0.0939  0.7337
 4758TIP3    H138469   3.222   2.075  15.170 -0.2630 -0.6380 -0.0289
 4758TIP3    H238470   3.246   1.942  15.238 -0.8078 -1.2717 -1.0404
 4759TIP3   OH238471   0.633   0.302  16.779  0.2170 -0.1850 -0.0378
 4759TIP3    H138472   0.568   0.258  16.834 -1.1539  0.0758 -1.3516
 4759TIP3    H238473   0.647   0.387  16.821 -3.5458  1.5656 -1.7477
 4760TIP3   OH238474   2.183   5.321  17.790  0.6999  0.4967 -0.3930
 4760TIP3    H138475   2.215   5.288  17.705  1.2640  1.3524 -0.5208
 4760TIP3    H238476   2.259   5.316  17.848  1.2702  2.9189 -0.8047
 4761TIP3   OH238477   0.274   5.666  17.120 -0.0815  0.0813 -0.2103
 4761TIP3    H138478   0.207   5.734  17.107  0.5354  0.8065  0.2675
 4761TIP3    H238479   0.355   5.716  17.132  0.0459 -0.6175  2.4650
 4762TIP3   OH238480   4.688   3.475  17.793 -0.1709  0.0829  0.0295
 4762TIP3    H138481   4.742   3.485  17.871  0.0010 -0.2165 -0.0481
 4762TIP3    H238482   4.598   3.483  17.824 -0.0822  0.6045  0.1557
 4763TIP3   OH238483   5.376   0.632  15.271  0.4922  0.0563 -0.6631
 4763TIP3    H138484   5.466   0.616  15.241  0.1637  0.1603 -1.7390
 4763TIP3    H238485   5.359   0.723  15.248 -0.4143 -0.4021 -1.8875
 4764TIP3   OH238486   0.470   2.717  16.258  0.4120 -0.3169  1.0223
 4764TIP3    H138487   0.391   2.724  16.310 -0.0431  2.4559  0.1272
 4764TIP3    H238488   0.451   2.767  16.178  2.3508 -1.3221 -0.1561
 4765TIP3   OH238489   2.927   4.377  15.428  0.4660  0.8421  0.2278
 4765TIP3    H138490   2.954   4.392  15.337 -1.1644  1.6438 -0.1614
 4765TIP3    H238491   2.907   4.283  15.431  2.7262  0.2888  0.4334
 4766TIP3   OH238492   6.615   5.012  17.909  0.2617 -0.7895  0.2394
 4766TIP3    H138493   6.616   4.994  17.815  0.1484  1.2500 -0.1882
 4766TIP3    H238494   6.529   5.049  17.925  0.5155 -0.5354  1.0315
 4767TIP3   OH238495   0.028   5.552  16.466  0.3104 -0.6361 -0.0139
 4767TIP3    H138496  -0.049   5.499  16.485  0.2980 -0.3087  0.8994
 4767TIP3    H238497   0.078   5.552  16.548  0.6658  0.1627 -0.2188
 4768TIP3   OH238498   3.015   4.979  17.550 -0.2261 -0.2648 -0.0278
 4768TIP3    H138499   2.953   4.959  17.480  0.4053 -0.8203 -0.4456
 4768TIP3    H238500   3.100   4.982  17.506  0.1371 -0.2738  0.6610
 4769TIP3   OH238501   3.927   1.506  17.024 -0.2635 -0.0906 -0.3293
 4769TIP3    H138502   3.840   1.541  17.044 -0.4648 -0.6153 -0.2708
 4769TIP3    H238503   3.949   1.451  17.100 -0.0257 -0.2305 -0.4981
 4770TIP3   OH238504   2.241   4.415  15.492 -0.4209 -1.0674 -0.4983
 4770TIP3    H138505   2.152   4.432  15.521  0.3199  2.2461  0.2729
 4770TIP3    H238506   2.239   4.432  15.398 -0.6849 -1.3641 -0.5469
 4771TIP3   OH238507   4.786   2.659  16.575 -0.0127 -0.3124  0.2940
 4771TIP3    H138508   4.857   2.633  16.516  1.7673  1.2078  1.6124
 4771TIP3    H238509   4.747   2.577  16.605  0.7258 -1.1665 -1.0213
 4772TIP3   OH238510   4.599   6.251  16.893 -0.2922  0.1656  0.3528
 4772TIP3    H138511   4.507   6.275  16.905 -1.5863 -3.3712 -1.1066
 4772TIP3    H238512   4.643   6.334  16.874 -3.4707  1.8060 -0.5722
 4773TIP3   OH238513   5.263   6.440  15.367 -0.1145 -0.7821 -0.5423
 4773TIP3    H138514   5.205   6.370  15.339 -1.0946 -1.7996  3.3910
 4773TIP3    H238515   5.205   6.509  15.397  0.7060 -0.6413  0.8175
 4774TIP3   OH238516   6.028   4.235  15.912  0.6074  0.2219 -0.0403
 4774TIP3    H138517   5.988   4.289  15.980 -2.1286 -1.6133 -0.0637
 4774TIP3    H238518   6.118   4.222  15.942 -0.8616 -1.8894  4.2822
 4775TIP3   OH238519   3.107   3.048  17.857 -0.1150  0.0207 -0.1918
 4775TIP3    H138520   3.065   3.059  17.771 -0.9893  1.3095  0.3619
 4775TIP3    H238521   3.109   3.136  17.893  0.8081 -0.4226  0.8622
 4776TIP3   OH238522   2.887   5.559  17.145 -0.2035 -0.3180  0.1471
 4776TIP3    H138523   2.970   5.606  17.134 -0.0287 -0.8731 -1.0745
 4776TIP3    H238524   2.873   5.557  17.239  0.8424  0.3538  0.3356
 4777TIP3   OH238525   2.840   0.555  17.804 -0.3075  0.0131 -0.0067
 4777TIP3    H138526   2.854   0.522  17.893 -0.6509  0.3473  0.1745
 4777TIP3    H238527   2.810   0.645  17.817 -0.5323  0.0031 -0.4593
 4778TIP3   OH238528   3.619   1.792  14.603 -0.5989 -0.6501 -0.2786
 4778TIP3    H138529   3.569   1.787  14.521 -1.1736 -0.3884  0.0499
 4778TIP3    H238530   3.553   1.811  14.670  0.2198  2.2465 -0.1787
 4779TIP3   OH238531   3.512   0.463  15.329 -0.2156 -0.3983 -0.4252
 4779TIP3    H138532   3.590   0.471  15.274  0.0358 -1.1002 -0.1860
 4779TIP3    H238533   3.460   0.541  15.309  0.4791  0.0070 -0.6917
 4780TIP3   OH238534   6.487   2.134  14.838  0.5261 -0.4626 -0.3684
 4780TIP3    H138535   6.448   2.051  14.866  0.8859 -0.4450  0.1961
 4780TIP3    H238536   6.417   2.198  14.850  0.4197 -0.5932 -0.2812
 4781TIP3   OH238537   2.157   5.189  13.607  0.0571  0.2067 -0.3914
 4781TIP3    H138538   2.134   5.268  13.556 -0.3855  0.0375 -0.4563
 4781TIP3    H238539   2.162   5.220  13.697 -1.7331  0.0083 -0.1791
 4782TIP3   OH238540   5.689   5.662  15.974  0.0831  0.2009 -0.6793
 4782TIP3    H138541   5.759   5.596  15.972  0.3249  0.4675 -1.4197
 4782TIP3    H238542   5.728   5.736  16.021 -0.6676 -0.6861  1.4272
 4783TIP3   OH238543   3.084   0.761  14.863  0.0616 -0.1704  0.7751
 4783TIP3    H138544   3.007   0.751  14.919 -0.4135 -1.3971 -0.0611
 4783TIP3    H238545   3.153   0.714  14.910 -0.1322 -0.5062  0.7313
 4784TIP3   OH238546   5.040   4.045  16.707  0.5404  0.0917  0.4324
 4784TIP3    H138547   5.036   4.092  16.790  0.3649 -0.5437  0.7974
 4784TIP3    H238548   5.063   4.111  16.642 -0.4036  0.8204  0.8175
 4785TIP3   OH238549   2.850   2.426  18.117  0.7389  0.3793  0.1351
 4785TIP3    H138550   2.795   2.441  18.193  0.9735 -0.8212  0.5551
 4785TIP3    H238551   2.802   2.466  18.044 -0.3075  0.0358  0.6187
 4786TIP3   OH238552   0.118   4.844  15.421 -0.1618 -0.0140  0.0511
 4786TIP3    H138553   0.083   4.845  15.509  1.5033 -2.6243  0.8703
 4786TIP3    H238554   0.100   4.755  15.389  1.0375  0.2295 -1.4342
 4787TIP3   OH238555   2.048   1.698  16.805 -0.3147  0.2332 -0.0609
 4787TIP3    H138556   2.019   1.684  16.715 -0.2518 -1.5416  0.1675
 4787TIP3    H238557   1.987   1.765  16.839 -2.0432 -0.9730 -0.6229
 4788TIP3   OH238558   3.239   2.554  17.380 -0.0098  0.0972 -0.0428
 4788TIP3    H138559   3.180   2.526  17.310  0.0522 -0.7589  0.2460
 4788TIP3    H238560   3.325   2.560  17.338  0.1146 -0.8743  0.0598
 4789TIP3   OH238561   3.716   1.802  15.639  0.5173 -0.5467  0.3262
 4789TIP3    H138562   3.655   1.862  15.682  0.4782 -0.7082  0.4977
 4789TIP3    H238563   3.684   1.715  15.662  0.5698 -0.6344  0.0721
 4790TIP3   OH238564   1.189   4.862  17.901 -0.1404 -0.1189 -0.2290
 4790TIP3    H138565   1.236   4.796  17.951  1.4088  0.7957 -0.4228
 4790TIP3    H238566   1.121   4.813  17.854  0.3501 -1.4197  0.3762
 4791TIP3   OH238567   5.921   3.084  14.907  0.3546  0.9321  0.0129
 4791TIP3    H138568   5.964   3.037  14.979  0.4714 -1.4961 -1.5288
 4791TIP3    H238569   5.994   3.115  14.852  0.4850 -3.6932 -2.9196
 4792TIP3   OH238570   6.691   5.726  16.259 -0.2140  1.0380  0.0075
 4792TIP3    H138571   6.778   5.751  16.228 -0.2614  3.2551  1.4490
 4792TIP3    H238572   6.705   5.692  16.348 -0.6492 -0.3670 -0.4249
 4793TIP3   OH238573   4.326   3.886  16.060 -0.1065 -0.0022  0.0119
 4793TIP3    H138574   4.352   3.873  16.152 -1.0544 -0.7122  0.1915
 4793TIP3    H238575   4.266   3.959  16.062 -0.1115 -0.0046 -0.0487
 4794TIP3   OH238576   4.100   0.489  17.206  0.1983 -0.0194 -0.2977
 4794TIP3    H138577   4.066   0.468  17.119 -0.9279 -0.4250  0.2235
 4794TIP3    H238578   4.040   0.557  17.239 -0.8911 -1.5723  1.1002
 4795TIP3   OH238579   3.831   3.347  15.815  0.1107  0.3660  0.1625
 4795TIP3    H138580   3.875   3.288  15.754  1.1051  1.6538 -0.3974
 4795TIP3    H238581   3.750   3.372  15.770 -0.2696 -0.4586  0.3602
 4796TIP3   OH238582   1.476   4.335  17.417  0.1909  0.1353  0.1091
 4796TIP3    H138583   1.518   4.380  17.489  0.6652  1.1564 -0.7787
 4796TIP3    H238584   1.548   4.303  17.363 -0.1121 -2.0848  0.9054
 4797TIP3   OH238585   5.721   4.433  17.464 -0.1884 -0.1943  0.0692
 4797TIP3    H138586   5.715   4.456  17.372 -2.0863  2.2427  0.7136
 4797TIP3    H238587   5.814   4.446  17.486  0.3205 -0.9915 -1.4809
 4798TIP3   OH238588   4.865   2.962  16.934 -0.2401 -0.2263  0.1086
 4798TIP3    H138589   4.812   2.893  16.975  0.2185 -0.4569  0.3213
 4798TIP3    H238590   4.869   2.937  16.842  0.4321 -0.8258  0.2903
 4799TIP3   OH238591   0.756   5.671  14.916 -0.1002 -0.2438  0.2936
 4799TIP3    H138592   0.828   5.621  14.878 -0.7794 -0.2917 -0.9840
 4799TIP3    H238593   0.786   5.762  14.912 -0.0188 -0.2822 -0.0413
 4800TIP3   OH238594   4.746   1.814  15.907  0.0394  0.1371 -0.3385
 4800TIP3    H138595   4.783   1.875  15.842  0.9161  0.7116  0.6661
 4800TIP3    H238596   4.696   1.870  15.967 -0.1166 -0.2852 -0.0744
 4801TIP3   OH238597   3.643   6.683  15.580 -0.6179  0.7297 -0.4206
 4801TIP3    H138598   3.690   6.640  15.652 -0.2326 -0.4796 -1.3663
 4801TIP3    H238599   3.552   6.655  15.593 -0.4142 -0.1740 -0.8703
 4802TIP3   OH238600   2.655   3.143  17.470  0.3795  0.2835  0.2438
 4802TIP3    H138601   2.677   3.072  17.530  0.8098 -0.3242 -0.6110
 4802TIP3    H238602   2.720   3.211  17.488  1.2262 -0.3604 -0.3106
 4803TIP3   OH238603   6.007   6.640  17.262 -0.5807  0.3579 -0.1553
 4803TIP3    H138604   6.097   6.608  17.266 -0.7613 -0.0276  1.5496
 4803TIP3    H238605   5.970   6.596  17.186 -0.7949 -3.6344  1.9817
 4804TIP3   OH238606   0.700   3.842  17.345 -0.4112  0.2734 -0.4939
 4804TIP3    H138607   0.714   3.770  17.407 -2.5947 -0.7472 -1.0937
 4804TIP3    H238608   0.740   3.918  17.387  0.0018 -0.8186  1.1818
 4805TIP3   OH238609   0.053   2.219  16.153 -0.7960 -0.3238  0.0871
 4805TIP3    H138610   0.104   2.223  16.072 -1.7398 -1.0826 -0.5703
 4805TIP3    H238611   0.109   2.261  16.219 -0.6817  1.7910 -1.2775
 4806TIP3   OH238612   5.254   0.803  15.669  0.2380  0.3168 -0.2357
 4806TIP3    H138613   5.240   0.708  15.661  1.3796 -0.0186  1.2741
 4806TIP3    H238614   5.187   0.842  15.612  1.0021 -1.4084 -2.4567
 4807TIP3   OH238615   5.744   5.004  15.523 -0.4955 -0.0327 -0.2996
 4807TIP3    H138616   5.753   4.928  15.580  0.8055 -0.8337 -1.5172
 4807TIP3    H238617   5.796   5.072  15.565  0.2540 -0.5403 -0.3928
 4808TIP3   OH238618   0.215   5.641  16.130  0.1532  0.0230  0.0281
 4808TIP3    H138619   0.271   5.701  16.180 -1.4021  0.1557  1.7132
 4808TIP3    H238620   0.260   5.556  16.138  1.3003  0.5402 -0.6365
 4809TIP3   OH238621   6.417   5.266  14.904  0.1130 -0.5725  0.1350
 4809TIP3    H138622   6.369   5.348  14.916  0.2035 -0.4815 -0.1137
 4809TIP3    H238623   6.452   5.246  14.991 -0.3261 -0.6108  0.3070
 4810TIP3   OH238624   3.675   2.495  17.097  0.1207  0.2455  0.3498
 4810TIP3    H138625   3.759   2.538  17.086  0.4768 -0.3792  0.5594
 4810TIP3    H238626   3.687   2.437  17.172 -0.6103  0.4197  0.6164
 4811TIP3   OH238627   0.051   3.058  17.872 -0.1974  0.0975 -0.1713
 4811TIP3    H138628   0.116   3.020  17.930 -1.2197 -1.9414 -0.2750
 4811TIP3    H238629   0.087   3.143  17.848  0.9609  0.3478  2.1923
 4812TIP3   OH238630   4.441   1.488  16.957 -1.1575  0.1875 -0.4222
 4812TIP3    H138631   4.421   1.523  17.044 -0.5164 -1.3737  0.3946
 4812TIP3    H238632   4.451   1.394  16.971  0.4765  0.0913 -1.9103
 4813TIP3   OH238633   4.759   1.828  17.330 -0.6411  0.5596 -0.2040
 4813TIP3    H138634   4.769   1.864  17.419 -0.6285  0.2054 -0.0622
 4813TIP3    H238635   4.792   1.739  17.337 -0.5308  0.5714 -0.5957
 4814TIP3   OH238636   4.753   1.001  18.042 -0.5080 -0.1736  0.4257
 4814TIP3    H138637   4.783   1.036  17.958  1.2805 -0.2712  0.9975
 4814TIP3    H238638   4.818   1.030  18.105 -2.5224  1.0869  2.0675
 4815TIP3   OH238639   3.576   5.328  17.128  0.0616 -0.9509 -0.1514
 4815TIP3    H138640   3.650   5.341  17.069  0.2854 -1.9932 -0.1017
 4815TIP3    H238641   3.512   5.280  17.076  0.2066 -1.7619  0.4064
 4816TIP3   OH238642   1.687   2.571  17.527  0.3939 -0.1903 -0.5679
 4816TIP3    H138643   1.683   2.664  17.504  1.2778  0.8753  2.9404
 4816TIP3    H238644   1.761   2.537  17.475  0.2874  1.1167 -1.6417
 4817TIP3   OH238645   3.343   3.570  16.220  0.1801  0.0340  0.1957
 4817TIP3    H138646   3.411   3.554  16.154  0.1606 -1.7554  0.5651
 4817TIP3    H238647   3.268   3.601  16.170  1.4095  2.7817 -0.1561
 4818TIP3   OH238648   2.351   3.075  14.759  0.1686 -0.7782 -0.3067
 4818TIP3    H138649   2.438   3.059  14.723  0.2709 -0.5406 -0.1713
 4818TIP3    H238650   2.321   2.988  14.788  1.5815 -0.5202  2.3527
 4819TIP3   OH238651   0.011   1.065  16.190  0.2904  0.0931 -0.1714
 4819TIP3    H138652  -0.082   1.045  16.186  0.0160  1.1913  0.4138
 4819TIP3    H238653   0.019   1.128  16.262  1.7926 -1.7113  1.3825
 4820TIP3   OH238654   3.313   1.159  14.184 -0.6633  0.4132  0.4237
 4820TIP3    H138655   3.304   1.090  14.118 -0.4597  1.3490 -0.6161
 4820TIP3    H238656   3.373   1.222  14.144 -0.6972  1.1091  1.4326
 4821TIP3   OH238657   4.453   4.506  17.442 -0.0707  0.4417  0.2974
 4821TIP3    H138658   4.397   4.561  17.498 -1.1747  0.4152 -0.7217
 4821TIP3    H238659   4.510   4.460  17.503  0.6651  2.4544  1.2244
 4822TIP3   OH238660   4.697   3.861  17.820  0.4482 -0.0128  0.0761
 4822TIP3    H138661   4.629   3.833  17.760  0.5197  0.4897 -0.2442
 4822TIP3    H238662   4.650   3.892  17.898  0.1895  2.0524 -0.8401
 4823TIP3   OH238663   0.401   3.949  17.519 -0.8156 -0.4994  0.7839
 4823TIP3    H138664   0.345   4.009  17.469  0.6928  0.2048 -0.1373
 4823TIP3    H238665   0.429   3.884  17.454 -1.8719 -1.8363  1.6137
 4824TIP3   OH238666   1.740   0.679  17.112  0.1775  0.5326  0.2167
 4824TIP3    H138667   1.711   0.611  17.051  1.1912  0.4217 -0.1678
 4824TIP3    H238668   1.749   0.634  17.196  0.7364  0.2084 -0.0129
 4825TIP3   OH238669   5.245   1.636  16.070  0.1407 -0.1948  0.2331
 4825TIP3    H138670   5.209   1.711  16.118  1.2071 -0.0410  0.8241
 4825TIP3    H238671   5.180   1.567  16.082 -0.1741  0.2043  0.9147
 4826TIP3   OH238672   1.313   4.874  15.761  0.0807 -0.0949  0.2762
 4826TIP3    H138673   1.288   4.927  15.837 -1.5721  0.5611 -0.6726
 4826TIP3    H238674   1.370   4.806  15.797 -0.0692  0.6286  1.9794
 4827TIP3   OH238675   6.495   4.227  16.210 -0.3480  0.0007  0.2077
 4827TIP3    H138676   6.460   4.169  16.279 -0.3649  0.8962  0.9693
 4827TIP3    H238677   6.584   4.246  16.239 -1.0127  2.0425  1.0992
 4828TIP3   OH238678   5.588   5.078  17.683  0.4799  0.0258  0.3199
 4828TIP3    H138679   5.673   5.043  17.708  0.5080  0.3625  0.7087
 4828TIP3    H238680   5.600   5.113  17.595  0.0161 -2.5013 -0.8466
 4829TIP3   OH238681   3.227   6.375  15.062 -0.4555 -0.4484  0.0052
 4829TIP3    H138682   3.284   6.435  15.015 -1.0085 -0.6212 -0.9174
 4829TIP3    H238683   3.189   6.319  14.994 -0.6972 -1.2043  0.7389
 4830TIP3   OH238684   4.662   4.386  16.984  0.9035 -0.4956 -0.0355
 4830TIP3    H138685   4.602   4.370  17.057  1.1264 -0.9045  0.0619
 4830TIP3    H238686   4.608   4.427  16.917  0.5186 -0.8413  0.0602
 4831TIP3   OH238687   2.209   1.394  17.736 -0.1386 -0.7881  0.9126
 4831TIP3    H138688   2.207   1.312  17.785  0.5167 -1.0788  0.4639
 4831TIP3    H238689   2.237   1.369  17.648  0.0899 -0.0805  0.7784
 4832TIP3   OH238690   1.266   5.167  15.231  0.5931 -0.0067 -0.4307
 4832TIP3    H138691   1.188   5.131  15.273 -0.8176  3.0236 -0.2373
 4832TIP3    H238692   1.259   5.138  15.140  0.0531 -0.9487 -0.1093
 4833TIP3   OH238693   1.916   2.310  16.768 -0.7892 -0.5668 -0.3596
 4833TIP3    H138694   2.005   2.315  16.734 -1.0413  0.5452 -0.9361
 4833TIP3    H238695   1.865   2.271  16.697 -1.3653  1.9972 -1.4681
 4834TIP3   OH238696   5.445   1.788  16.674  0.1630 -0.6884  0.6706
 4834TIP3    H138697   5.460   1.771  16.767 -0.8566 -1.2772  0.7413
 4834TIP3    H238698   5.356   1.824  16.670  0.8228  0.9851  0.0904
 4835TIP3   OH238699   4.332   3.681  15.896 -1.0152  0.2721  0.6847
 4835TIP3    H138700   4.325   3.744  15.966  0.0627 -0.4259  1.4516
 4835TIP3    H238701   4.365   3.601  15.938  0.5522  0.1049 -0.7283
 4836TIP3   OH238702   3.687   2.211  16.644  0.0351 -0.2829  0.0295
 4836TIP3    H138703   3.659   2.120  16.641 -2.3118  0.3916 -0.8797
 4836TIP3    H238704   3.696   2.231  16.737  2.0245 -1.7869  0.2177
 4837TIP3   OH238705   0.179   1.103  14.690  0.4075 -0.0687  0.4296
 4837TIP3    H138706   0.102   1.146  14.653 -0.2059 -1.5412 -0.0753
 4837TIP3    H238707   0.249   1.121  14.628 -0.1104 -0.7416 -0.3601
 4838TIP3   OH238708   4.752   0.566  16.780  0.6148  0.4138 -0.5160
 4838TIP3    H138709   4.822   0.582  16.717  1.4102 -1.8022 -0.2933
 4838TIP3    H238710   4.796   0.559  16.865 -0.1775  1.2455 -0.0118
 4839TIP3   OH238711   4.444   6.676  14.701 -0.4833 -0.1967 -0.0892
 4839TIP3    H138712   4.522   6.625  14.681 -1.2300 -0.1762 -3.6911
 4839TIP3    H238713   4.472   6.736  14.771  2.8794  0.0700 -1.4709
 4840TIP3   OH238714   4.913   6.258  16.747  0.0260  0.3263  0.2336
 4840TIP3    H138715   4.825   6.269  16.710 -0.7660  0.2023  1.9451
 4840TIP3    H238716   4.918   6.324  16.816 -0.7942 -2.7843  3.6241
 4841TIP3   OH238717   0.117   0.070  16.930  0.5545  0.5930 -0.7768
 4841TIP3    H138718   0.027   0.042  16.942  1.2139 -1.7126 -0.6183
 4841TIP3    H238719   0.122   0.155  16.973 -0.9259 -0.4019  1.5817
 4842TIP3   OH238720   3.178   6.335  17.222 -0.0172 -0.3816 -0.1309
 4842TIP3    H138721   3.086   6.322  17.199 -0.2009 -0.6578  0.7475
 4842TIP3    H238722   3.217   6.248  17.211  0.6095  0.1065 -2.4474
 4843TIP3   OH238723   2.495   1.284  15.217  0.0528 -0.5433 -0.9204
 4843TIP3    H138724   2.443   1.261  15.295 -0.2019  0.3776 -0.8039
 4843TIP3    H238725   2.558   1.213  15.209  0.3934 -0.4282  0.4120
 4844TIP3   OH238726   6.533   0.958  15.834 -0.6407  0.1316 -0.6240
 4844TIP3    H138727   6.490   0.977  15.917 -0.2076  0.2578 -0.4275
 4844TIP3    H238728   6.461   0.935  15.775 -1.0683  1.2024 -0.5363
 4845TIP3   OH238729   5.959   1.476  17.383 -0.1249 -0.6488 -0.0267
 4845TIP3    H138730   6.043   1.489  17.341  0.6663  3.1360  2.2342
 4845TIP3    H238731   5.980   1.464  17.476 -2.0559 -0.4747  0.4781
 4846TIP3   OH238732   2.978   1.486  15.090  0.0009 -0.6180 -0.5998
 4846TIP3    H138733   2.893   1.472  15.132 -0.2369 -0.1097 -0.8974
 4846TIP3    H238734   3.032   1.526  15.159 -0.7038  1.1913 -1.0189
 4847TIP3   OH238735   0.487   2.062  15.582  0.0747 -0.2652  0.0363
 4847TIP3    H138736   0.448   2.029  15.663  0.6125 -0.8438  0.0597
 4847TIP3    H238737   0.446   2.011  15.513  1.2912 -1.3721  0.1073
 4848TIP3   OH238738   3.966   4.075  15.479 -0.3267 -0.1551  0.5801
 4848TIP3    H138739   3.975   3.994  15.429 -0.8534 -0.4697  0.9814
 4848TIP3    H238740   3.871   4.088  15.487 -0.3196  1.8352 -1.5943
 4849TIP3   OH238741   4.569   1.924  16.103 -0.0882  0.3223 -0.1636
 4849TIP3    H138742   4.491   1.967  16.138 -0.1723  0.2163 -0.2195
 4849TIP3    H238743   4.562   1.833  16.132 -0.7100 -0.0356 -1.3321
 4850TIP3   OH238744   2.408   6.226  17.835 -0.1981  0.4356  0.2406
 4850TIP3    H138745   2.467   6.243  17.761  0.5516 -0.6966  0.5623
 4850TIP3    H238746   2.354   6.305  17.840 -0.8434  0.2229 -2.0463
 4851TIP3   OH238747   0.781   2.966  16.319 -0.0781 -0.3955  0.1028
 4851TIP3    H138748   0.705   3.022  16.332  0.6315  0.8837 -0.9916
 4851TIP3    H238749   0.839   2.985  16.393 -0.1990 -0.3108  0.1744
 4852TIP3   OH238750   5.677   5.218  15.306 -0.2546  0.4320  0.2511
 4852TIP3    H138751   5.651   5.187  15.219 -1.7601 -0.9178  1.1343
 4852TIP3    H238752   5.688   5.138  15.358 -0.9129  1.2507  1.7119
 4853TIP3   OH238753   3.194   0.978  17.212 -0.3008  0.1774  0.5202
 4853TIP3    H138754   3.223   0.892  17.242  2.1538  1.0742  0.9775
 4853TIP3    H238755   3.174   1.026  17.293  0.4563  0.7053  0.3995
 4854TIP3   OH238756   6.020   2.877  17.424  0.2733 -0.0575  0.1850
 4854TIP3    H138757   6.016   2.872  17.328  0.5532 -0.6615  0.1976
 4854TIP3    H238758   6.099   2.828  17.447  0.6931  0.8380  0.6702
 4855TIP3   OH238759   6.100   1.867  17.180 -0.5114  0.1896  0.3591
 4855TIP3    H138760   6.016   1.869  17.227 -0.5112 -1.0616  0.4535
 4855TIP3    H238761   6.115   1.958  17.155 -1.7077  0.5033  0.6786
 4856TIP3   OH238762   0.844   0.150  16.692 -0.0375  0.2839  0.4204
 4856TIP3    H138763   0.763   0.198  16.708 -0.0002  0.7725 -0.7640
 4856TIP3    H238764   0.827   0.062  16.725 -1.4484  0.0728 -0.7726
 4857TIP3   OH238765   1.674   0.255  15.856 -0.7407 -0.0751 -0.0483
 4857TIP3    H138766   1.663   0.333  15.909 -0.4985  0.2633 -0.4920
 4857TIP3    H238767   1.657   0.284  15.766 -0.8582 -0.5769 -0.1910
 4858TIP3   OH238768   4.115   1.758  17.106  0.6515 -0.5185  0.6625
 4858TIP3    H138769   4.153   1.822  17.166  2.4860 -2.1214  1.3134
 4858TIP3    H238770   4.092   1.684  17.162 -3.0601  0.0777  0.2082
 4859TIP3   OH238771   4.972   1.483  17.579 -0.6430  0.7062  0.1577
 4859TIP3    H138772   4.937   1.511  17.495 -1.1467  0.9607  0.4484
 4859TIP3    H238773   4.901   1.432  17.619 -0.9052  1.7052  0.9960
 4860TIP3   OH238774   1.096   5.287  17.104 -0.3021 -0.1194 -0.0294
 4860TIP3    H138775   1.182   5.327  17.096 -1.4871  2.7563  0.3690
 4860TIP3    H238776   1.071   5.266  17.013 -0.1475  1.3333 -0.4342
 4861TIP3   OH238777   4.871   3.228  17.364  0.1675  0.0992  0.3338
 4861TIP3    H138778   4.839   3.141  17.391  0.2407  0.1449  0.5670
 4861TIP3    H238779   4.931   3.210  17.292  0.9662 -0.1287  1.0392
 4862TIP3   OH238780   2.903   6.018  15.788  0.2714 -0.2095  0.1305
 4862TIP3    H138781   2.833   5.955  15.769 -0.9646  0.7585  1.3098
 4862TIP3    H238782   2.956   5.975  15.855 -0.2731 -0.2177  0.5640
 4863TIP3   OH238783   3.120   0.419  16.821 -0.0014  0.0378 -0.2074
 4863TIP3    H138784   3.040   0.431  16.871 -0.2344 -2.3149  0.0969
 4863TIP3    H238785   3.174   0.495  16.843 -1.4729  0.8135  0.8796
 4864TIP3   OH238786   6.304   1.364  15.690  0.1233 -0.2413 -0.1161
 4864TIP3    H138787   6.290   1.423  15.764  2.0708  1.1641 -0.7935
 4864TIP3    H238788   6.225   1.309  15.687 -0.8809  1.0320  1.7264
 4865TIP3   OH238789   3.592   2.879  17.038  0.4010  0.3770  0.6616
 4865TIP3    H138790   3.583   2.861  16.944  1.3012 -0.0359  0.6454
 4865TIP3    H238791   3.667   2.938  17.044  2.2045 -1.8156  1.3106
 4866TIP3   OH238792   6.000   5.185  16.123  0.8173  0.4496 -0.6892
 4866TIP3    H138793   6.071   5.157  16.180  0.8480 -0.4188 -1.1369
 4866TIP3    H238794   5.920   5.161  16.171  0.8452 -0.9348 -1.3068
 4867TIP3   OH238795   1.458   6.063  17.983  0.2976 -0.2747  0.4608
 4867TIP3    H138796   1.492   6.115  17.910 -1.6625  0.9304  0.3526
 4867TIP3    H238797   1.470   6.120  18.060 -1.9359  0.4455  0.3312
 4868TIP3   OH238798   5.827   5.878  16.058 -0.6020 -0.0415 -0.3630
 4868TIP3    H138799   5.912   5.853  16.095 -1.7120 -2.0486  1.0274
 4868TIP3    H238800   5.790   5.939  16.122 -0.8047 -0.3179 -0.2126
 4869TIP3   OH238801   3.287   4.949  16.923 -0.5432 -0.3585  0.2996
 4869TIP3    H138802   3.342   4.889  16.872 -0.9501  2.2379 -3.5541
 4869TIP3    H238803   3.350   5.005  16.969 -0.0500 -0.0809 -0.7030
 4870TIP3   OH238804   2.227   5.594  17.437 -0.3935 -0.0466  0.5670
 4870TIP3    H138805   2.155   5.531  17.440  0.1375 -0.8215 -1.4095
 4870TIP3    H238806   2.196   5.669  17.488 -2.3488 -0.6202  0.2789
 4871TIP3   OH238807   6.031   4.847  15.981  0.1657 -0.2987 -0.5018
 4871TIP3    H138808   6.024   4.928  15.930 -0.7812 -0.4846 -0.6905
 4871TIP3    H238809   5.969   4.859  16.053 -0.4283 -1.0914 -0.8686
 4872TIP3   OH238810   3.490   0.151  15.757  0.4062  0.0281 -0.4663
 4872TIP3    H138811   3.401   0.185  15.770  0.4806 -0.5070  1.8320
 4872TIP3    H238812   3.486   0.107  15.672 -0.8908  1.8896 -1.4581
 4873TIP3   OH238813   2.209   5.628  14.807  0.0783 -0.3369  0.2288
 4873TIP3    H138814   2.221   5.700  14.869 -0.8794 -0.2461  0.3236
 4873TIP3    H238815   2.178   5.671  14.727  3.4079 -0.1624 -1.1380
 4874TIP3   OH238816   4.057   2.020  17.086  0.0351  0.2231  0.4514
 4874TIP3    H138817   4.043   1.927  17.069  1.1048  0.1986 -0.3926
 4874TIP3    H238818   4.020   2.064  17.009  0.9998  0.3772  0.0563
 4875TIP3   OH238819   0.241   5.631  16.676 -0.4334 -0.5599 -0.0026
 4875TIP3    H138820   0.306   5.673  16.733  0.8665 -1.7874 -0.5385
 4875TIP3    H238821   0.223   5.547  16.718 -1.9981 -0.1044  0.3259
 4876TIP3   OH238822   0.990   1.580  16.478  0.1282  0.0768  0.0560
 4876TIP3    H138823   0.982   1.505  16.537 -0.2277 -0.3249 -0.4923
 4876TIP3    H238824   1.071   1.563  16.430 -0.7335 -0.7521 -1.1466
 4877TIP3   OH238825   3.527   0.226  17.754 -0.2316 -0.5886  0.2799
 4877TIP3    H138826   3.443   0.233  17.798 -0.5424  1.1553 -0.5120
 4877TIP3    H238827   3.510   0.175  17.675  0.0207 -2.4283  1.3617
 4878TIP3   OH238828   6.292   4.172  18.149 -0.7700 -0.2351 -0.9606
 4878TIP3    H138829   6.293   4.252  18.096 -0.1796  0.0240 -0.5708
 4878TIP3    H238830   6.229   4.191  18.219  0.4640  0.4851 -0.0003
 4879TIP3   OH238831   2.052   0.582  17.868  0.5004 -0.0927  0.4032
 4879TIP3    H138832   2.020   0.645  17.933  0.7140 -0.1818  0.5964
 4879TIP3    H238833   2.122   0.628  17.822  0.4030 -0.0576  0.2905
 4880TIP3   OH238834   0.748   6.340  14.774  0.1849 -0.1598 -0.3273
 4880TIP3    H138835   0.664   6.295  14.765 -0.7840  1.4140  0.3409
 4880TIP3    H238836   0.770   6.368  14.685 -0.5465  0.3006 -0.3756
 4881TIP3   OH238837   0.562   5.129  17.119  0.1495  0.5317 -0.1467
 4881TIP3    H138838   0.600   5.041  17.116 -0.0382  0.3121  2.0953
 4881TIP3    H238839   0.479   5.121  17.073  0.7545 -0.1136 -1.1530
 4882TIP3   OH238840   5.023   0.648  16.369  0.1513  0.0295  0.1201
 4882TIP3    H138841   5.093   0.585  16.385  0.9501  0.8777  0.1094
 4882TIP3    H238842   5.069   0.731  16.355 -0.8312  0.4925 -0.4938
 4883TIP3   OH238843   4.435   4.946  17.336  0.7200  0.6242 -0.2668
 4883TIP3    H138844   4.374   4.911  17.270  0.7520  0.2703 -0.1106
 4883TIP3    H238845   4.520   4.946  17.292  0.8825 -0.3473  0.0211
 4884TIP3   OH238846   4.446   0.506  16.880 -0.4583  0.4923  0.0764
 4884TIP3    H138847   4.487   0.583  16.841  0.8200 -0.1394  0.1311
 4884TIP3    H238848   4.463   0.515  16.973 -2.8288  1.5922  0.5056
 4885TIP3   OH238849   5.843   5.436  16.001 -0.0653 -0.1896  0.1134
 4885TIP3    H138850   5.863   5.350  16.038  0.1517 -0.1087  0.1806
 4885TIP3    H238851   5.914   5.453  15.940  0.5000  0.4448  0.9253
 4886TIP3   OH238852   6.126   1.617  15.524 -0.2387  0.1462  0.0032
 4886TIP3    H138853   6.146   1.642  15.615 -0.1080 -0.4137  0.1309
 4886TIP3    H238854   6.043   1.570  15.530  0.6518 -1.4703  0.0876
 4887TIP3   OH238855   1.326   1.125  16.312 -0.2633  0.1118 -1.0867
 4887TIP3    H138856   1.310   1.156  16.401  0.7548  0.0248 -0.8672
 4887TIP3    H238857   1.242   1.139  16.267 -1.2061 -1.0048  0.2063
 4888TIP3   OH238858   2.143   1.485  17.203  0.1168  0.0693 -0.3568
 4888TIP3    H138859   2.202   1.499  17.129 -0.8915  1.9154 -0.8995
 4888TIP3    H238860   2.062   1.455  17.163  0.2488 -1.1271  0.2455
 4889TIP3   OH238861   4.721   0.260  17.199  0.2076 -0.0488 -0.1089
 4889TIP3    H138862   4.647   0.287  17.254 -0.0080 -1.4263  0.3155
 4889TIP3    H238863   4.764   0.342  17.174 -1.0329  0.7286  0.2378
 4890TIP3   OH238864   2.438   4.917  14.448 -0.0339 -0.0192 -0.0079
 4890TIP3    H138865   2.498   4.855  14.406  0.3627  0.0376  0.4665
 4890TIP3    H238866   2.431   4.990  14.386  1.5001  0.6225  0.5258
 4891TIP3   OH238867   4.728   0.748  16.331  0.3135 -0.1652 -0.2774
 4891TIP3    H138868   4.796   0.696  16.374  0.5457  0.2494 -0.1297
 4891TIP3    H238869   4.669   0.684  16.293  0.5984 -0.5349 -0.1041
 4892TIP3   OH238870   4.375   2.620  17.624 -0.0140 -0.0745 -0.5527
 4892TIP3    H138871   4.391   2.592  17.534 -3.2918  0.5411 -1.4598
 4892TIP3    H238872   4.305   2.562  17.655  0.3172  0.4204  1.2444
 4893TIP3   OH238873   5.803   6.037  14.675 -0.5379  0.1949  0.6122
 4893TIP3    H138874   5.896   6.027  14.655 -0.7684 -2.2527  0.4829
 4893TIP3    H238875   5.758   6.014  14.594 -1.2818 -2.0348  1.5856
 4894TIP3   OH238876   5.875   5.457  16.718 -0.3235 -0.0481 -0.0646
 4894TIP3    H138877   5.947   5.490  16.772 -0.8569  0.0788  0.5675
 4894TIP3    H238878   5.879   5.511  16.639  0.0210  0.2285  0.1383
 4895TIP3   OH238879   3.170   5.613  16.295  0.0768  0.2070 -0.3739
 4895TIP3    H138880   3.253   5.620  16.248 -1.0118  0.0041 -2.4363
 4895TIP3    H238881   3.147   5.521  16.290 -1.3149  0.5881 -1.7972
 4896TIP3   OH238882   4.676   2.861  16.357 -0.0172 -0.1726 -0.6974
 4896TIP3    H138883   4.674   2.786  16.416 -0.8063 -0.2945 -0.8748
 4896TIP3    H238884   4.759   2.852  16.310  0.9158  0.2569  0.7860
 4897TIP3   OH238885   5.550   2.572  17.010  0.2449 -0.5698 -1.1737
 4897TIP3    H138886   5.567   2.663  17.033 -0.8592 -0.6460  0.0601
 4897TIP3    H238887   5.611   2.522  17.064 -1.7810 -0.7045  1.1849
 4898TIP3   OH238888   0.737   3.282  15.688 -0.5456  0.3796  0.3690
 4898TIP3    H138889   0.823   3.268  15.727 -0.5880  1.0711  0.7328
 4898TIP3    H238890   0.684   3.208  15.719  0.1964 -0.6699 -0.7708
 4899TIP3   OH238891   1.576   1.146  15.566 -0.0152  0.1955 -0.0677
 4899TIP3    H138892   1.599   1.054  15.557  2.2603  0.7011 -0.2678
 4899TIP3    H238893   1.631   1.177  15.639  0.3444  1.6717 -0.9226
 4900TIP3   OH238894   2.558   0.298  14.816 -0.6972 -0.1988 -0.4393
 4900TIP3    H138895   2.604   0.333  14.893 -1.1244 -0.8610  0.1211
 4900TIP3    H238896   2.539   0.376  14.763 -1.8351  0.4705  0.8890
 4901TIP3   OH238897   6.146   0.769  17.143  0.2290 -0.4882  0.3005
 4901TIP3    H138898   6.214   0.835  17.128  0.3562 -0.2658  1.6986
 4901TIP3    H238899   6.194   0.692  17.173 -0.1859  0.2565  3.1493
 4902TIP3   OH238900   5.113   2.792  18.022 -0.1991 -0.0854  0.0361
 4902TIP3    H138901   5.184   2.727  18.027 -0.3438 -0.3033 -0.6589
 4902TIP3    H238902   5.130   2.840  17.941  0.3994  1.3381  0.9773
 4903TIP3   OH238903   3.911   5.219  16.000  0.4398  0.6521 -0.5300
 4903TIP3    H138904   3.869   5.133  16.010  2.0437 -0.1429 -0.1828
 4903TIP3    H238905   3.850   5.270  15.948 -0.4844 -0.7728 -0.9025
 4904TIP3   OH238906   2.055   3.785  15.878 -0.5424 -0.0332 -0.2634
 4904TIP3    H138907   1.988   3.828  15.824  0.5365  0.8364 -0.9470
 4904TIP3    H238908   2.062   3.841  15.955  1.5531  1.6853 -1.5865
 4905TIP3   OH238909   2.028   2.961  15.559  0.3035 -0.2637  0.6170
 4905TIP3    H138910   2.011   2.995  15.647  0.8823  0.7228  0.3652
 4905TIP3    H238911   2.103   3.013  15.528  0.8631 -1.4136  0.0016
 4906TIP3   OH238912   0.947   1.430  17.038  0.0370  0.1902 -0.3827
 4906TIP3    H138913   0.971   1.496  16.974 -0.9959  1.8899  0.8634
 4906TIP3    H238914   0.936   1.480  17.120  1.1840 -1.8483  1.0934
 4907TIP3   OH238915   0.800   4.281  16.571 -0.2007 -0.1740  0.3703
 4907TIP3    H138916   0.863   4.326  16.515 -2.0622  0.0641 -1.6552
 4907TIP3    H238917   0.763   4.351  16.626 -1.0594  0.3309 -0.7997
 4908TIP3   OH238918   0.461   3.018  15.473  0.0334  0.6093 -0.3046
 4908TIP3    H138919   0.521   3.092  15.462  0.2117  1.0740  2.8852
 4908TIP3    H238920   0.381   3.058  15.507 -1.4482 -0.2575 -2.5405
 4909TIP3   OH238921   6.055   3.598  17.534  0.1463 -0.0404  0.0705
 4909TIP3    H138922   6.003   3.518  17.525  2.4396 -1.4940 -1.2678
 4909TIP3    H238923   6.035   3.630  17.622  0.0225 -2.7536  1.1257
 4910TIP3   OH238924   3.136   3.637  16.076  0.0328  0.2971  0.2593
 4910TIP3    H138925   3.100   3.667  15.992 -0.8829  0.4146  0.6907
 4910TIP3    H238926   3.064   3.644  16.138  0.2717 -1.2134  0.7464
 4911TIP3   OH238927   5.465   2.002  17.349  0.1205 -0.3730 -0.2079
 4911TIP3    H138928   5.521   2.077  17.371  0.6112 -1.1989  1.5636
 4911TIP3    H238929   5.394   2.039  17.296 -0.6219  1.7022  2.0562
 4912TIP3   OH238930   2.953   4.792  15.984  0.2043 -0.0124  0.0215
 4912TIP3    H138931   2.988   4.763  16.069  0.1716  0.1904  0.1038
 4912TIP3    H238932   2.908   4.715  15.950 -0.4416  0.1366  0.5364
 4913TIP3   OH238933   3.569   3.803  15.441 -0.0831 -0.0070  0.1760
 4913TIP3    H138934   3.620   3.726  15.414  0.4875  0.5412 -0.3201
 4913TIP3    H238935   3.620   3.841  15.513  1.6137  2.0097 -1.9645
 4914TIP3   OH238936   1.562   3.352  16.619 -0.3868 -0.3725 -0.1858
 4914TIP3    H138937   1.571   3.276  16.563 -1.4239 -1.6691  1.3225
 4914TIP3    H238938   1.475   3.343  16.659 -0.2181  1.1760  0.6441
 4915TIP3   OH238939   5.703   6.174  14.888  0.4569 -0.2066 -0.0583
 4915TIP3    H138940   5.608   6.162  14.889  0.5819 -1.3111  1.7161
 4915TIP3    H238941   5.731   6.140  14.803 -0.5792 -1.2504 -0.0039
 4916TIP3   OH238942   4.371   0.603  16.103 -0.1038 -0.5640  0.4859
 4916TIP3    H138943   4.327   0.676  16.148  1.0642 -0.9324  2.3554
 4916TIP3    H238944   4.303   0.563  16.049 -1.3235  0.5867  1.1057
 4917TIP3   OH238945   4.992   6.413  14.944  0.2122  0.2974  0.4833
 4917TIP3    H138946   5.040   6.486  14.983  1.8008  0.1893 -1.1605
 4917TIP3    H238947   5.042   6.336  14.970  0.1421  0.0569 -0.0824
 4918TIP3   OH238948   2.600   2.734  16.884  0.1947 -0.2543  0.0709
 4918TIP3    H138949   2.526   2.756  16.828 -0.1110  0.6155  0.7965
 4918TIP3    H238950   2.674   2.723  16.823 -0.3990 -0.6022 -0.6051
 4919TIP3   OH238951   2.617   5.329  18.101 -0.2394  0.6650 -0.4905
 4919TIP3    H138952   2.571   5.413  18.102  0.7016  1.2468  2.5144
 4919TIP3    H238953   2.709   5.351  18.088  0.0514  0.1435  0.5682
 4920TIP3   OH238954   2.924   6.052  16.252  0.0555 -0.2380 -0.2046
 4920TIP3    H138955   2.926   5.957  16.248 -1.8212 -0.2737 -1.7519
 4920TIP3    H238956   2.902   6.073  16.342  1.0182 -1.2322  0.2751
 4921TIP3   OH238957   5.766   4.643  14.946 -0.1165  0.3023 -0.2148
 4921TIP3    H138958   5.842   4.585  14.948  0.9907  1.6457 -1.1317
 4921TIP3    H238959   5.700   4.597  14.997  1.2106 -1.0447  0.3916
 4922TIP3   OH238960   0.072   1.178  16.829  0.3803  0.3211 -0.2703
 4922TIP3    H138961   0.065   1.255  16.773 -0.0699 -0.6169 -1.5490
 4922TIP3    H238962   0.111   1.111  16.773 -0.3506 -0.7257  0.4474
 4923TIP3   OH238963   1.141   3.732  17.688  0.2180  1.0918 -0.6906
 4923TIP3    H138964   1.112   3.701  17.602 -0.1148  2.2308 -1.0045
 4923TIP3    H238965   1.127   3.827  17.685 -0.2230  1.0843  0.7977
 4924TIP3   OH238966   2.139   4.669  15.720  0.4091  0.1920  0.3017
 4924TIP3    H138967   2.096   4.749  15.751 -1.0315 -0.5697  0.3228
 4924TIP3    H238968   2.070   4.619  15.677  0.9957 -1.5871  1.3345
 4925TIP3   OH238969   6.660   4.908  16.754 -0.1376 -0.5132 -0.5365
 4925TIP3    H138970   6.735   4.931  16.700  0.3024  1.5118  0.8116
 4925TIP3    H238971   6.596   4.873  16.693  0.8801  0.2875 -2.1329
 4926TIP3   OH238972   3.922   5.441  17.699  0.1521 -0.0288 -0.6552
 4926TIP3    H138973   4.002   5.493  17.706 -1.6641  3.1247 -1.5428
 4926TIP3    H238974   3.861   5.497  17.653 -2.6939 -2.2406  0.1374
 4927TIP3   OH238975   2.996   1.333  15.392 -0.0790 -0.3743  0.5602
 4927TIP3    H138976   2.922   1.360  15.446 -0.5849  1.0014 -0.7591
 4927TIP3    H238977   2.966   1.253  15.347 -0.3562 -0.4250  0.8333
 4928TIP3   OH238978   4.635   4.361  17.599 -0.3799  0.1199  0.1767
 4928TIP3    H138979   4.683   4.283  17.628  0.1266  0.4101  0.1362
 4928TIP3    H238980   4.701   4.431  17.600 -0.4146  0.1969 -1.4133
 4929TIP3   OH238981   3.686   3.952  17.177 -0.5844  0.5914 -0.4330
 4929TIP3    H138982   3.711   3.893  17.248  0.7683  1.1657 -0.4133
 4929TIP3    H238983   3.612   4.002  17.213 -0.3192  0.4417  0.3405
 4930TIP3   OH238984   3.644   2.067  17.535 -0.1352 -0.0876  0.7562
 4930TIP3    H138985   3.661   2.014  17.457  1.4246  1.0050  0.2956
 4930TIP3    H238986   3.633   2.156  17.502 -0.5037  0.2289  1.6929
 4931TIP3   OH238987   2.834   4.733  17.380  0.1568  0.8930  0.3029
 4931TIP3    H138988   2.792   4.662  17.331  0.2824 -0.1051  1.6052
 4931TIP3    H238989   2.874   4.691  17.456  1.0984  2.2242  0.5935
 4932TIP3   OH238990   3.674   1.482  15.321 -0.0253  0.5905  0.5751
 4932TIP3    H138991   3.681   1.529  15.239 -0.7437 -0.5008 -0.1391
 4932TIP3    H238992   3.738   1.411  15.314 -0.3902  0.2381  0.7682
 4933TIP3   OH238993   3.394   1.613  17.972  0.5741 -0.4833  0.6381
 4933TIP3    H138994   3.318   1.588  17.920  0.8801 -0.4460  0.1735
 4933TIP3    H238995   3.457   1.543  17.959  1.6361  0.7220 -1.0858
 4934TIP3   OH238996   6.003   0.615  15.336  0.1075  0.1463 -0.6110
 4934TIP3    H138997   5.930   0.677  15.334  0.7868  1.1146  1.4882
 4934TIP3    H238998   6.051   0.631  15.255 -1.6689 -0.1343 -1.7651
 4935TIP3   OH238999   0.274   5.427  16.451 -0.1492  0.4142 -0.1530
 4935TIP3    H139000   0.267   5.407  16.544  0.0392 -0.2008 -0.2615
 4935TIP3    H239001   0.187   5.456  16.425 -0.9460 -1.9496 -0.3463
 4936TIP3   OH239002   4.106   2.169  17.735 -0.4192 -0.9107 -0.7907
 4936TIP3    H139003   4.032   2.194  17.790 -0.4369 -1.2744 -0.6466
 4936TIP3    H239004   4.088   2.079  17.710  0.1715 -1.1434 -0.4182
 4937TIP3   OH239005   2.287   2.857  15.771  0.6369  0.2690  0.1372
 4937TIP3    H139006   2.252   2.830  15.687  2.0826 -0.5530 -0.2418
 4937TIP3    H239007   2.372   2.812  15.778  0.9162  0.9345  1.6737
 4938TIP3   OH239008   1.401   4.425  14.842 -0.5547  0.1269  0.0402
 4938TIP3    H139009   1.401   4.356  14.776 -1.6844 -0.3007  0.4668
 4938TIP3    H239010   1.460   4.492  14.807 -1.5873  0.1829 -1.6956
 4939TIP3   OH239011   6.674   3.933  17.821 -0.1914 -0.3523 -0.0650
 4939TIP3    H139012   6.650   3.968  17.906 -0.1614 -0.2399 -0.1036
 4939TIP3    H239013   6.678   4.009  17.763 -0.6823 -0.4793 -0.2762
 4940TIP3   OH239014   1.915   2.774  16.661  0.1330  1.0083 -0.2017
 4940TIP3    H139015   1.889   2.688  16.693  0.0622  0.4881 -1.5951
 4940TIP3    H239016   2.007   2.783  16.689  0.0592  0.6124  0.1841
 4941TIP3   OH239017   0.411   6.596  15.840 -0.0707 -0.0250 -0.0330
 4941TIP3    H139018   0.472   6.655  15.885 -0.5394 -0.6922  1.5105
 4941TIP3    H239019   0.397   6.524  15.901 -1.6778 -0.3554 -0.7396
 4942TIP3   OH239020   6.419   1.384  16.206 -0.7820  0.2972  0.0177
 4942TIP3    H139021   6.328   1.402  16.228 -1.1062  1.8412 -2.2558
 4942TIP3    H239022   6.415   1.346  16.118  0.6979 -1.1057  0.5065
 4943TIP3   OH239023   4.044   1.970  18.014 -0.2587 -0.1215  0.6406
 4943TIP3    H139024   3.958   2.003  17.989  0.4364  0.9155 -0.4133
 4943TIP3    H239025   4.090   2.046  18.050  0.5716 -0.4289  0.2576
 4944TIP3   OH239026   1.236   0.020  16.472 -0.1118  0.3623  0.0661
 4944TIP3    H139027   1.326  -0.007  16.487  0.2938  1.3094 -0.5984
 4944TIP3    H239028   1.241   0.114  16.456 -1.4774  0.9150  2.3180
 4945TIP3   OH239029   3.646   0.946  14.619 -0.6630 -0.4046 -0.2967
 4945TIP3    H139030   3.647   0.882  14.548 -2.0852 -1.1198  0.2829
 4945TIP3    H239031   3.568   1.000  14.602  0.2959  0.9555 -0.5591
 4946TIP3   OH239032   4.852   5.927  17.785  0.1279  0.3632  0.0481
 4946TIP3    H139033   4.926   5.875  17.754 -0.6633 -0.8647  0.1822
 4946TIP3    H239034   4.876   6.017  17.764  0.9951 -0.1522 -1.2973
 4947TIP3   OH239035   5.365   0.521  14.900 -0.0283  0.3633 -0.8569
 4947TIP3    H139036   5.412   0.600  14.928 -1.1002  0.3680  1.1346
 4947TIP3    H239037   5.294   0.553  14.845  0.0044  0.7267 -0.6919
 4948TIP3   OH239038   1.873   0.825  17.458  0.0787  0.0735 -0.2440
 4948TIP3    H139039   1.922   0.842  17.378  0.1547  2.0756  0.1690
 4948TIP3    H239040   1.795   0.880  17.451  1.0464  1.9123  1.8508
 4949TIP3   OH239041   2.552   1.931  17.810  0.7894  0.1521  0.1592
 4949TIP3    H139042   2.486   1.992  17.845 -0.5315 -0.0672 -1.8022
 4949TIP3    H239043   2.628   1.944  17.867  0.5894  3.6114 -0.1206
 4950TIP3   OH239044   5.223   4.019  17.647 -0.6118  0.3988  0.0545
 4950TIP3    H139045   5.296   4.004  17.707 -1.3443  1.1084  1.1552
 4950TIP3    H239046   5.145   3.992  17.695 -1.0388 -1.1769 -1.4194
 4951TIP3   OH239047   0.027   3.985  15.445 -0.0158  0.2498 -0.6671
 4951TIP3    H139048   0.053   3.985  15.353 -1.7409  0.7129 -1.2105
 4951TIP3    H239049   0.101   4.023  15.491  1.9707 -2.3413 -1.4709
 4952TIP3   OH239050   6.531   5.265  16.772 -0.1524 -0.1044  0.4396
 4952TIP3    H139051   6.512   5.223  16.855 -1.5824  0.1165  0.2403
 4952TIP3    H239052   6.451   5.254  16.720  1.1622 -1.5059 -1.4570
 4953TIP3   OH239053   5.591   0.077  14.942 -0.1684  0.0317 -0.1647
 4953TIP3    H139054   5.520   0.136  14.918  0.5192  0.5728 -0.9330
 4953TIP3    H239055   5.633   0.117  15.018 -0.0919  0.2062 -0.2998
 4954TIP3   OH239056   3.553   6.290  17.730  0.3260  0.8325  0.1739
 4954TIP3    H139057   3.581   6.210  17.775 -0.3764 -0.5269 -1.6882
 4954TIP3    H239058   3.632   6.343  17.722  1.1837 -0.4574 -0.0745
 4955TIP3   OH239059   6.079   5.689  16.403 -0.7010 -0.0109  0.0277
 4955TIP3    H139060   6.129   5.641  16.338  0.2156 -0.2436  0.8844
 4955TIP3    H239061   6.134   5.690  16.481 -0.7964  2.1643  0.1471
 4956TIP3   OH239062   4.946   0.826  17.824 -0.1278 -0.0133 -0.0920
 4956TIP3    H139063   4.964   0.906  17.774  0.2805 -0.3220 -0.4529
 4956TIP3    H239064   5.033   0.795  17.850 -0.3639  0.4228  1.2691
 4957TIP3   OH239065   1.912   1.290  14.423 -0.0676  0.2338 -0.5116
 4957TIP3    H139066   1.962   1.209  14.417  1.4784  1.1400 -0.4989
 4957TIP3    H239067   1.959   1.351  14.366 -0.6827  1.3643  0.1590
 4958TIP3   OH239068   3.918   3.660  17.677 -0.3547  0.6400  0.3379
 4958TIP3    H139069   3.913   3.628  17.587  1.4611  1.3359 -0.0430
 4958TIP3    H239070   3.848   3.613  17.723 -1.2521  0.1917 -1.3948
 4959TIP3   OH239071   3.534   1.697  17.558 -0.0349  1.3606  0.1497
 4959TIP3    H139072   3.568   1.709  17.470  0.7898 -0.6201  0.1437
 4959TIP3    H239073   3.611   1.678  17.612 -0.6707  1.1225  1.0047
 4960TIP3   OH239074   0.721   2.369  15.210 -0.1033 -0.3741  0.1925
 4960TIP3    H139075   0.746   2.300  15.148 -2.1548 -1.2314  0.2395
 4960TIP3    H239076   0.647   2.414  15.168 -0.1181  0.4619  1.0673
 4961TIP3   OH239077   5.140   3.251  17.667 -0.1894  0.3570 -0.6177
 4961TIP3    H139078   5.059   3.287  17.631 -1.5830 -1.8122  0.2078
 4961TIP3    H239079   5.121   3.234  17.759  0.9093 -0.9407 -0.5904
 4962TIP3   OH239080   3.190   6.247  16.184  0.5428 -0.0097 -0.1618
 4962TIP3    H139081   3.121   6.186  16.212  1.1193 -0.7180 -0.2472
 4962TIP3    H239082   3.186   6.245  16.088  1.2385 -0.7250 -0.1871
 4963TIP3   OH239083   0.999   5.629  17.399  0.0251 -0.0286  0.2790
 4963TIP3    H139084   1.013   5.541  17.432 -0.5346 -0.1470  0.2165
 4963TIP3    H239085   1.035   5.628  17.310  0.4313 -0.0588  0.4428
 4964TIP3   OH239086   2.209   1.188  17.071 -0.5055 -0.1136 -0.1893
 4964TIP3    H139087   2.221   1.127  17.144 -1.5433 -3.5454 -2.6226
 4964TIP3    H239088   2.138   1.245  17.099  0.1451 -0.3180  2.0431
 4965TIP3   OH239089   4.018   2.498  18.069 -0.3309 -0.0043  0.4656
 4965TIP3    H139090   4.108   2.515  18.040  0.5408 -1.1791  2.2901
 4965TIP3    H239091   3.994   2.417  18.025 -0.0642 -0.2893  0.8395
 4966TIP3   OH239092   5.791   4.437  16.381  0.8146  0.2131 -0.2026
 4966TIP3    H139093   5.787   4.363  16.441  2.1933  0.6437  0.4768
 4966TIP3    H239094   5.723   4.497  16.412 -2.5743 -1.9995 -2.6599
 4967TIP3   OH239095   5.890   1.871  15.878 -0.1754  0.1051 -0.2167
 4967TIP3    H139096   5.947   1.881  15.954 -1.7241  1.8343  0.7939
 4967TIP3    H239097   5.890   1.957  15.836  1.5127 -1.0619 -2.9199
 4968TIP3   OH239098   3.754   2.914  16.350 -0.5738  0.0672  0.1034
 4968TIP3    H139099   3.752   2.821  16.332  2.2089 -0.0320 -0.2254
 4968TIP3    H239100   3.842   2.929  16.387 -0.5962  2.6583 -0.6949
 4969TIP3   OH239101   1.589   3.202  16.082 -0.5347 -0.0487 -0.1042
 4969TIP3    H139102   1.589   3.107  16.089 -0.9006 -0.1225 -1.0065
 4969TIP3    H239103   1.544   3.221  16.000  0.1923  0.8794 -0.3141
 4970TIP3   OH239104   4.813   4.952  16.866 -0.0849 -0.3006 -0.2188
 4970TIP3    H139105   4.726   4.921  16.842 -0.3943  0.0259  0.4438
 4970TIP3    H239106   4.817   5.041  16.829 -0.9829  0.6360  1.7649
 4971TIP3   OH239107   2.917   4.209  17.455  0.4747 -0.4701 -0.2294
 4971TIP3    H139108   2.956   4.145  17.396  0.7452  1.1261 -1.8667
 4971TIP3    H239109   2.968   4.289  17.441  0.8040 -0.1096  2.4983
 4972TIP3   OH239110   0.624   0.787  17.104  0.5351 -0.3254 -0.3012
 4972TIP3    H139111   0.634   0.699  17.140  0.4377 -0.4904 -0.6769
 4972TIP3    H239112   0.712   0.812  17.077  0.5481 -0.3409 -0.2728
 4973TIP3   OH239113   5.596   6.688  17.682  0.7392 -0.7896  0.0468
 4973TIP3    H139114   5.585   6.781  17.661 -1.7043 -1.1664 -0.6958
 4973TIP3    H239115   5.687   6.680  17.708  1.5063  1.4796 -1.5978
 4974TIP3   OH239116   4.087   4.113  14.864 -0.0852  0.0107  0.2187
 4974TIP3    H139117   4.134   4.137  14.944  0.5658  0.2302 -0.2162
 4974TIP3    H239118   4.066   4.021  14.875  0.9666 -0.2484  0.1901
 4975TIP3   OH239119   1.594   5.413  15.736  0.0302  0.5471 -0.4106
 4975TIP3    H139120   1.603   5.415  15.641 -0.5399  0.9864 -0.4561
 4975TIP3    H239121   1.683   5.402  15.768  0.0416 -2.0629 -1.0633
 4976TIP3   OH239122   2.457   6.079  17.474  0.0675  0.6279  0.0527
 4976TIP3    H139123   2.390   6.139  17.442 -1.3750 -0.0596  1.6348
 4976TIP3    H239124   2.466   6.014  17.405 -0.3876  1.1198 -0.4784
 4977TIP3   OH239125   0.133   0.606  16.231 -0.2273  0.0048 -0.5428
 4977TIP3    H139126   0.183   0.671  16.279  1.4111 -0.5531 -1.4222
 4977TIP3    H239127   0.065   0.656  16.186 -0.3284  0.8145  0.4787
 4978TIP3   OH239128   0.775   6.556  15.751 -0.5807  0.4139 -0.3962
 4978TIP3    H139129   0.779   6.634  15.697 -3.1273  1.8492  1.2614
 4978TIP3    H239130   0.810   6.583  15.836  0.8669 -1.0305 -0.4711
 4979TIP3   OH239131   2.066   3.745  16.611  0.4602 -0.1290 -0.4477
 4979TIP3    H139132   2.082   3.694  16.532  2.3320  2.0328 -1.5718
 4979TIP3    H239133   2.111   3.697  16.681 -0.4643 -1.5932 -0.8156
 4980TIP3   OH239134   4.203   2.850  15.417  0.0322  0.2360 -0.1787
 4980TIP3    H139135   4.184   2.943  15.406 -0.6675  0.1972  0.6268
 4980TIP3    H239136   4.199   2.835  15.512 -0.2541 -0.6989 -0.3277
 4981TIP3   OH239137   5.670   5.463  14.254  0.3526 -0.3513  0.0703
 4981TIP3    H139138   5.636   5.502  14.173 -1.4611 -1.6189  0.1868
 4981TIP3    H239139   5.691   5.539  14.309  1.2353  0.5287 -1.3803
 4982TIP3   OH239140   4.373   3.207  16.280  0.4760 -0.5715 -0.1308
 4982TIP3    H139141   4.299   3.246  16.327  1.6224  0.0629  1.2465
 4982TIP3    H239142   4.370   3.114  16.304  0.3928 -0.4586  0.3113
 4983TIP3   OH239143   5.374   0.044  14.367  0.4101 -0.0872 -0.8321
 4983TIP3    H139144   5.435   0.117  14.362  1.0616 -0.6653 -1.7353
 4983TIP3    H239145   5.354   0.023  14.275 -1.6062  0.4565 -0.5659
 4984TIP3   OH239146   0.036   5.358  16.251  0.4572 -0.7239  0.6451
 4984TIP3    H139147  -0.048   5.358  16.204  1.0509 -1.9517 -0.4838
 4984TIP3    H239148   0.029   5.431  16.312 -1.7286 -1.2240  1.1047
 4985TIP3   OH239149   5.867   6.413  16.276 -0.7084  0.1935  0.1499
 4985TIP3    H139150   5.837   6.497  16.310 -0.1138  0.3450  0.3059
 4985TIP3    H239151   5.912   6.435  16.194  2.7864  0.5333  1.9773
 4986TIP3   OH239152   1.980   1.726  15.057 -0.0837  0.3149  0.3686
 4986TIP3    H139153   1.998   1.774  15.138 -0.6501 -2.0375  2.0169
 4986TIP3    H239154   1.889   1.749  15.035 -0.1214  0.5370  0.7479
 4987TIP3   OH239155   2.265   3.650  14.695 -0.1958 -0.5113  0.2430
 4987TIP3    H139156   2.298   3.724  14.747 -1.6837 -0.7167  1.5229
 4987TIP3    H239157   2.342   3.619  14.647  0.7489  1.0286  0.6893
 4988TIP3   OH239158   0.358   5.090  15.801  0.8092 -0.3811 -0.4029
 4988TIP3    H139159   0.399   5.177  15.796 -2.1244  1.0593 -3.7507
 4988TIP3    H239160   0.297   5.095  15.874  1.5310 -0.1256  0.1989
 4989TIP3   OH239161   4.265   3.949  16.739  0.2050  0.3763  0.2304
 4989TIP3    H139162   4.187   3.917  16.784  0.4627 -0.3302  0.1899
 4989TIP3    H239163   4.238   3.959  16.648  0.2985 -0.3608  0.1187
 4990TIP3   OH239164   3.296   2.745  16.759  0.1904 -0.0160 -0.1053
 4990TIP3    H139165   3.296   2.772  16.851 -1.9747 -1.2156  0.3152
 4990TIP3    H239166   3.248   2.815  16.713 -0.9063 -0.5925  0.1261
 4991TIP3   OH239167   4.594   3.109  17.044 -0.1418 -0.1510  0.1323
 4991TIP3    H139168   4.599   3.101  17.139  0.1987  0.0067  0.1308
 4991TIP3    H239169   4.553   3.028  17.015  1.1404 -0.8993  0.3019
 4992TIP3   OH239170   4.472   0.414  17.695  0.3495 -0.4796 -0.2380
 4992TIP3    H139171   4.537   0.429  17.763  1.4627 -0.0594 -1.3469
 4992TIP3    H239172   4.474   0.320  17.679 -0.6441 -0.7300  0.9732
 4993TIP3   OH239173   3.661   1.783  16.627  0.4710  0.2299  0.1177
 4993TIP3    H139174   3.641   1.847  16.559  0.3130 -0.9439 -0.9814
 4993TIP3    H239175   3.577   1.762  16.667  0.6841  1.6614  1.4067
 4994TIP3   OH239176   5.385   6.435  15.805  0.4860  0.1825  0.2307
 4994TIP3    H139177   5.455   6.371  15.798  1.6057  1.5067 -1.5341
 4994TIP3    H239178   5.379   6.474  15.717 -1.2776  1.3201  0.7961
 4995TIP3   OH239179   2.025   1.405  15.088 -0.2017 -0.3733  0.6343
 4995TIP3    H139180   2.099   1.459  15.116  0.1659 -0.5975  0.1199
 4995TIP3    H239181   1.950   1.465  15.091  0.1528  0.0990  0.3318
 4996TIP3   OH239182   6.675   0.747  15.926  0.7984 -0.0221  0.2905
 4996TIP3    H139183   6.661   0.830  15.881 -0.1088 -0.4886 -0.3149
 4996TIP3    H239184   6.605   0.743  15.992  0.3838 -0.6074 -0.1612
 4997TIP3   OH239185   3.696   5.709  17.145  0.0500  0.0871 -0.3764
 4997TIP3    H139186   3.755   5.688  17.073  1.0298  0.9011  0.1644
 4997TIP3    H239187   3.691   5.628  17.196  0.3397 -0.1229 -0.6804
 4998TIP3   OH239188   3.796   2.604  16.799  0.2002 -0.6745  0.4457
 4998TIP3    H139189   3.841   2.613  16.883  1.0250  2.0360 -0.1969
 4998TIP3    H239190   3.715   2.654  16.810 -1.3877 -3.1029  0.6280
 4999TIP3   OH239191   3.347   5.719  17.266  0.3688 -0.1821 -0.4029
 4999TIP3    H139192   3.320   5.628  17.254  2.6954 -0.8601 -1.0427
 4999TIP3    H239193   3.429   5.727  17.217  0.9530  1.8865  0.7664
 5000TIP3   OH239194   3.916   6.360  17.664  0.1509 -0.5770  0.2639
 5000TIP3    H139195   3.985   6.395  17.607  0.6732 -1.3934  0.3825
 5000TIP3    H239196   3.844   6.422  17.654  1.4377  1.1993  1.3316
 5001TIP3   OH239197   2.957   6.162  17.960  0.2361 -0.1216  0.3845
 5001TIP3    H139198   3.012   6.087  17.982 -0.0293 -0.1797  0.8704
 5001TIP3    H239199   2.887   6.125  17.906  0.3022 -0.1684  0.3329
 5002TIP3   OH239200   2.946   0.421  14.784 -0.2799 -0.0913 -0.4075
 5002TIP3    H139201   3.016   0.467  14.738 -1.7307  0.9023 -1.7137
 5002TIP3    H239202   2.886   0.490  14.812 -1.0461 -0.9600  0.1707
 5003TIP3   OH239203   3.554   4.945  16.231 -0.2968 -0.4204 -0.3364
 5003TIP3    H139204   3.540   4.934  16.325 -1.9816  0.1825 -0.4899
 5003TIP3    H239205   3.519   4.865  16.192  0.6637 -0.7979 -0.4534
 5004TIP3   OH239206   1.957   4.290  14.935  0.2560 -0.6523  0.1529
 5004TIP3    H139207   2.029   4.263  14.993  2.2233  1.9127 -0.8870
 5004TIP3    H239208   1.933   4.378  14.966 -1.8588 -1.0820 -0.1099
 5005TIP3   OH239209   1.881   2.028  17.289 -0.4832 -0.4131  0.6452
 5005TIP3    H139210   1.881   2.120  17.263  2.0399 -0.9679 -1.6677
 5005TIP3    H239211   1.972   2.009  17.311 -1.0614 -2.2550  1.6875
 5006TIP3   OH239212   0.105   2.350  17.959 -0.3181 -0.5806 -0.1345
 5006TIP3    H139213   0.116   2.431  18.010 -0.0114 -1.0080  0.4993
 5006TIP3    H239214   0.193   2.311  17.957 -0.0424  0.0277 -2.0709
 5007TIP3   OH239215   2.772   0.610  15.951  0.1243 -0.0197 -0.0843
 5007TIP3    H139216   2.790   0.549  16.022  0.8073  2.7482  2.3322
 5007TIP3    H239217   2.677   0.621  15.952  0.1997  0.7228  1.1325
 5008TIP3   OH239218   0.446   1.965  17.132 -0.3229 -0.3259  0.0331
 5008TIP3    H139219   0.429   1.886  17.184 -0.4781 -0.0542  0.4040
 5008TIP3    H239220   0.359   2.004  17.119 -0.1014  0.6270  1.2235
 5009TIP3   OH239221   6.199   5.959  17.320  0.1497  0.1542 -0.4629
 5009TIP3    H139222   6.252   5.880  17.308 -0.6254 -0.6702  1.2615
 5009TIP3    H239223   6.242   6.006  17.390  0.5707  1.2743 -1.4435
 5010TIP3   OH239224   6.114   0.601  17.795 -0.0902  0.4938  0.0442
 5010TIP3    H139225   6.197   0.630  17.757 -0.0766  0.8314  0.3271
 5010TIP3    H239226   6.139   0.535  17.860  0.0920  1.6408  1.1864
 5011TIP3   OH239227   1.090   4.015  17.413  0.5527  0.0959 -0.1320
 5011TIP3    H139228   1.158   4.081  17.403  1.0090 -0.1853  1.0152
 5011TIP3    H239229   1.097   3.986  17.504 -0.5270 -0.5661 -0.2419
 5012TIP3   OH239230   0.638   2.393  17.659 -0.0321 -0.1166  0.0502
 5012TIP3    H139231   0.669   2.411  17.748 -0.0784  1.9842 -0.2873
 5012TIP3    H239232   0.567   2.330  17.670  0.1000 -0.0523  1.4760
 5013TIP3   OH239233   5.701   1.655  15.876  0.5841  0.0253 -0.1998
 5013TIP3    H139234   5.729   1.745  15.860  3.0853 -0.8275 -1.1552
 5013TIP3    H239235   5.625   1.663  15.934  0.3667  2.7390 -0.7382
 5014TIP3   OH239236   1.446   5.840  16.526  0.1635  0.3826 -0.0319
 5014TIP3    H139237   1.450   5.897  16.603  0.0071  0.8132 -0.3402
 5014TIP3    H239238   1.498   5.885  16.460 -0.0645  0.2284 -0.3176
 5015TIP3   OH239239   0.770   0.530  14.650  0.7572  0.0510  0.4466
 5015TIP3    H139240   0.758   0.441  14.616 -0.6280  0.1715  0.5440
 5015TIP3    H239241   0.803   0.580  14.576 -0.4026 -0.1141 -0.2075
 5016TIP3   OH239242   5.776   0.957  15.215  0.1027 -0.4537 -0.1597
 5016TIP3    H139243   5.689   0.997  15.222 -0.0911 -0.7953 -0.5489
 5016TIP3    H239244   5.760   0.863  15.226 -0.2715 -1.1181 -4.3891
 5017TIP3   OH239245   0.504   4.422  16.062  0.3524  0.4533  0.5715
 5017TIP3    H139246   0.433   4.466  16.109  0.2907 -0.0135  0.9204
 5017TIP3    H239247   0.469   4.336  16.039  0.6688  0.3690  0.3991
 5018TIP3   OH239248   3.545   6.414  17.015  0.2857  0.2309 -0.1130
 5018TIP3    H139249   3.475   6.470  17.048  0.4295  0.2998  0.0740
 5018TIP3    H239250   3.572   6.362  17.091  2.1749  1.9828  0.5013
 5019TIP3   OH239251   1.112   6.419  16.764  0.5121  0.3174  0.0934
 5019TIP3    H139252   1.178   6.351  16.757  0.5204  0.2127  1.0474
 5019TIP3    H239253   1.161   6.497  16.791  0.2766  0.2613  0.7146
 5020TIP3   OH239254   3.439   0.701  14.525 -0.5460  0.6774  0.0156
 5020TIP3    H139255   3.377   0.716  14.454 -0.4754 -1.2868 -0.5014
 5020TIP3    H239256   3.525   0.712  14.485 -0.5089  2.0545  0.4195
 5021TIP3   OH239257   5.895   5.354  17.659  0.0364  0.5460 -0.1295
 5021TIP3    H139258   5.808   5.328  17.628  0.4749 -0.1921 -0.7793
 5021TIP3    H239259   5.955   5.315  17.596  0.8708  0.5668  0.6411
 5022TIP3   OH239260   1.713   3.114  16.518 -0.0296 -0.0629 -0.4678
 5022TIP3    H139261   1.776   3.156  16.576  1.0624 -1.8117 -0.3321
 5022TIP3    H239262   1.710   3.023  16.547 -3.9592  0.2413  0.7118
 5023TIP3   OH239263   6.579   3.593  16.206  0.2740 -0.4636  0.6213
 5023TIP3    H139264   6.658   3.640  16.232 -0.0263 -0.8811  2.4874
 5023TIP3    H239265   6.599   3.501  16.222 -0.3879 -0.6192  0.6067
 5024TIP3   OH239266   1.247   4.195  17.039 -0.4061  0.0090 -0.3060
 5024TIP3    H139267   1.171   4.247  17.012  0.7178  1.7743 -0.2743
 5024TIP3    H239268   1.322   4.253  17.025  0.7919 -1.0847  1.1687
 5025TIP3   OH239269   5.343   2.640  17.961 -0.4506 -0.3727 -0.4104
 5025TIP3    H139270   5.286   2.590  17.902 -0.7343 -0.8894  0.2975
 5025TIP3    H239271   5.419   2.663  17.907 -1.2142  0.1287 -1.2988
 5026TIP3   OH239272   3.139   0.567  15.854  0.8277  0.1231 -0.3636
 5026TIP3    H139273   3.088   0.536  15.778 -0.6874 -0.2624  0.7541
 5026TIP3    H239274   3.122   0.661  15.857  1.5863  0.2962 -0.9697
 5027TIP3   OH239275   6.552   6.013  14.246 -0.2894  0.5358 -0.0301
 5027TIP3    H139276   6.509   6.075  14.305 -2.1474  0.3245 -1.0804
 5027TIP3    H239277   6.489   5.941  14.236  0.2974  0.1893 -1.6167
 5028TIP3   OH239278   4.495   4.371  16.208  0.1683  0.2959  0.2715
 5028TIP3    H139279   4.461   4.415  16.130  1.2312  3.5299  1.4947
 5028TIP3    H239280   4.454   4.284  16.206 -0.5178  0.5591 -3.3567
 5029TIP3   OH239281   3.914   2.371  16.675 -0.3958  0.5293 -0.0411
 5029TIP3    H139282   3.869   2.451  16.701  0.0225  0.8021 -0.1407
 5029TIP3    H239283   3.858   2.332  16.608 -0.9648  0.3523  0.5343
 5030TIP3   OH239284   6.553   0.252  17.891  0.4375 -0.2870  0.3261
 5030TIP3    H139285   6.623   0.286  17.835  0.4312 -2.0616 -0.8430
 5030TIP3    H239286   6.523   0.173  17.846 -3.1035  0.9926  0.2005
 5031TIP3   OH239287   1.974   2.337  16.080  0.1300 -0.5767  0.1649
 5031TIP3    H139288   1.894   2.294  16.110 -1.7791  0.6068 -2.8145
 5031TIP3    H239289   1.953   2.371  15.994  3.8806 -0.1106 -0.7596
 5032TIP3   OH239290   1.387   0.740  17.682  0.1598 -1.0432 -0.3428
 5032TIP3    H139291   1.314   0.794  17.713  1.1875  1.1598 -1.5179
 5032TIP3    H239292   1.465   0.790  17.706  1.1627 -1.9868 -1.5285
 5033TIP3   OH239293   0.795   2.366  17.261  0.1608  0.6571  0.6332
 5033TIP3    H139294   0.831   2.346  17.348 -0.2445  0.5902  0.7875
 5033TIP3    H239295   0.802   2.461  17.254  2.2534  0.5011 -0.1753
 5034TIP3   OH239296   2.035   1.897  16.084  0.0073 -0.0495  0.2575
 5034TIP3    H139297   2.053   1.961  16.153  1.5642 -1.6540  1.4228
 5034TIP3    H239298   2.032   1.813  16.129  0.4410 -1.0899 -1.5350
 5035TIP3   OH239299   2.360   0.224  15.801 -0.2011  0.3227  0.0233
 5035TIP3    H139300   2.454   0.210  15.790 -0.0973  1.2854 -0.4997
 5035TIP3    H239301   2.353   0.318  15.821 -0.9468 -0.0225  1.4614
 5036TIP3   OH239302   3.035   3.790  15.869 -1.1468 -0.0892 -0.3944
 5036TIP3    H139303   3.118   3.801  15.822 -0.8090 -0.0486  0.2125
 5036TIP3    H239304   3.012   3.877  15.899 -1.0658 -0.2108  0.0219
 5037TIP3   OH239305   1.798   0.569  17.373 -0.5479 -0.2085 -0.7900
 5037TIP3    H139306   1.789   0.504  17.442 -0.3990 -0.7561 -1.2730
 5037TIP3    H239307   1.833   0.646  17.417  0.2316 -0.7844 -0.3716
 5038TIP3   OH239308   5.970   1.837  15.133 -0.0710  0.1163  0.1966
 5038TIP3    H139309   5.893   1.781  15.141 -1.1614  1.3057 -1.3786
 5038TIP3    H239310   6.015   1.806  15.055 -0.2975  0.9633 -0.2787
 5039TIP3   OH239311   3.348   5.448  17.283  0.5416 -0.0528 -0.1946
 5039TIP3    H139312   3.388   5.402  17.210  2.0281  0.6867  0.1115
 5039TIP3    H239313   3.357   5.388  17.357  0.5452 -0.1266 -0.2552
 5040TIP3   OH239314   4.333   0.030  15.687 -0.0553 -0.6781  0.2808
 5040TIP3    H139315   4.398   0.035  15.757  0.8305  0.6787 -0.5820
 5040TIP3    H239316   4.385   0.016  15.608 -0.9989 -1.5985 -0.2031
 5041TIP3   OH239317   6.335   2.789  17.203  0.0298 -1.0627 -0.3541
 5041TIP3    H139318   6.417   2.838  17.194 -0.9416  0.5559 -0.8359
 5041TIP3    H239319   6.344   2.741  17.286  1.7494 -1.5179 -0.7854
 5042TIP3   OH239320   2.957   4.247  14.672 -0.1734  0.8703 -0.2393
 5042TIP3    H139321   3.018   4.260  14.745  1.3492  1.2897 -1.5491
 5042TIP3    H239322   2.921   4.334  14.655 -2.5866  0.3635  1.6609
 5043TIP3   OH239323   4.761   2.397  17.505 -0.1076  0.3230  0.3229
 5043TIP3    H139324   4.671   2.391  17.474 -0.1938 -1.2793  0.8433
 5043TIP3    H239325   4.813   2.361  17.433 -0.1472 -1.5281  1.1826
 5044TIP3   OH239326   0.766   5.615  17.941  0.4363 -0.0599  0.7661
 5044TIP3    H139327   0.790   5.697  17.984 -2.0964  1.0235  0.2719
 5044TIP3    H239328   0.727   5.562  18.011 -1.3845  0.7097  0.3842
 5045TIP3   OH239329   4.245   1.764  16.577 -0.4622 -0.7447 -0.2751
 5045TIP3    H139330   4.260   1.682  16.530  0.8176 -1.6437  1.5744
 5045TIP3    H239331   4.157   1.755  16.615  0.4647 -2.2976  1.7147
 5046TIP3   OH239332   0.121   1.662  15.869 -0.1121 -0.0273 -0.3041
 5046TIP3    H139333   0.166   1.721  15.929  0.4451 -0.9538  0.2117
 5046TIP3    H239334   0.123   1.707  15.784 -0.2316  0.9499  0.1962
 5047TIP3   OH239335   1.603   6.298  14.283  0.3555  0.2253 -0.4699
 5047TIP3    H139336   1.638   6.217  14.318  0.6801  1.0483  1.1894
 5047TIP3    H239337   1.520   6.310  14.329 -0.9480 -0.3843 -2.5003
 5048TIP3   OH239338   6.295   4.082  16.703  0.0067 -0.3534  0.2367
 5048TIP3    H139339   6.204   4.110  16.707  0.3716  0.8509  0.6638
 5048TIP3    H239340   6.293   3.987  16.716 -1.1853 -0.3520  0.1030
 5049TIP3   OH239341   2.406   0.631  14.899 -0.1648  0.4030  0.1947
 5049TIP3    H139342   2.441   0.561  14.845  0.5191  1.4277 -0.7380
 5049TIP3    H239343   2.482   0.685  14.920 -0.5253  0.3821  1.6691
 5050TIP3   OH239344   3.695   5.345  18.152 -0.1231  0.5209  0.1542
 5050TIP3    H139345   3.641   5.419  18.126 -1.2209  0.2420  1.5662
 5050TIP3    H239346   3.652   5.269  18.114  1.2279  0.5828 -1.6460
 5051TIP3   OH239347   0.848   1.778  15.441  0.2502  0.1107 -0.6917
 5051TIP3    H139348   0.765   1.820  15.419 -0.7362 -1.3551  0.0437
 5051TIP3    H239349   0.857   1.791  15.535  0.5972 -0.1822 -0.6839
 5052TIP3   OH239350   3.622   3.313  16.131 -0.4698  0.3089  0.1977
 5052TIP3    H139351   3.609   3.235  16.185 -0.0030  0.5011  0.5980
 5052TIP3    H239352   3.540   3.324  16.084 -1.0651  0.4053  1.2279
 5053TIP3   OH239353   3.377   6.700  16.621 -0.3325 -0.6523 -0.3534
 5053TIP3    H139354   3.411   6.720  16.534 -0.2801 -1.2651 -0.4768
 5053TIP3    H239355   3.283   6.715  16.615 -0.3714 -0.9999 -0.6036
 5054TIP3   OH239356   2.231   0.256  16.158 -0.2754 -0.0229  0.0057
 5054TIP3    H139357   2.269   0.241  16.245  0.1714 -0.5037 -0.2654
 5054TIP3    H239358   2.173   0.181  16.144 -0.2806  0.0098 -0.1474
 5055TIP3   OH239359   4.028   1.966  17.385 -0.3187  0.3412 -0.0702
 5055TIP3    H139360   4.074   1.966  17.301 -2.1725 -0.3204 -1.1506
 5055TIP3    H239361   3.936   1.961  17.361 -0.8475 -2.9960  2.0061
 5056TIP3   OH239362   6.489   3.059  17.245 -0.0933  0.1176  0.0215
 5056TIP3    H139363   6.441   3.077  17.326  0.8759 -1.5273  1.0192
 5056TIP3    H239364   6.560   3.000  17.271  0.5330 -0.0953 -1.9577
 5057TIP3   OH239365   5.120   2.925  16.040  0.0182 -0.1889 -0.9371
 5057TIP3    H139366   5.060   2.998  16.024  2.1865  1.8319 -0.4289
 5057TIP3    H239367   5.099   2.896  16.129 -1.3154 -0.6900 -1.3920
 5058TIP3   OH239368   0.357   5.123  16.917 -0.1683 -0.0325 -0.5435
 5058TIP3    H139369   0.307   5.054  16.873 -0.2333 -0.9058  0.8512
 5058TIP3    H239370   0.431   5.140  16.858  0.6953 -2.3736 -0.2459
 5059TIP3   OH239371   5.360   5.229  15.539 -0.0400 -0.2928 -0.0527
 5059TIP3    H139372   5.369   5.170  15.614 -1.3589  1.1456  1.3419
 5059TIP3    H239373   5.437   5.285  15.544  0.4208 -0.8804 -0.4403
 5060TIP3   OH239374   3.550   0.928  16.104  0.0121  0.1971  0.2038
 5060TIP3    H139375   3.564   0.927  16.010 -2.1381  2.2330 -0.2296
 5060TIP3    H239376   3.618   0.987  16.138  0.4925 -0.1727 -0.0895
 5061TIP3   OH239377   6.630   1.591  15.574 -0.5315 -0.1801 -0.3259
 5061TIP3    H139378   6.679   1.655  15.521  0.3157 -1.0717 -0.6547
 5061TIP3    H239379   6.660   1.506  15.542 -1.2225 -0.7462  0.4942
 5062TIP3   OH239380   2.177   4.504  18.028  0.2089  0.4165  0.4006
 5062TIP3    H139381   2.251   4.565  18.021  0.5524 -0.0614 -0.3010
 5062TIP3    H239382   2.101   4.557  18.003  0.6602  0.2864 -1.3718
 5063TIP3   OH239383   1.801   5.235  17.909 -0.1594  0.1678  0.0280
 5063TIP3    H139384   1.847   5.309  17.950  0.4625  0.6018 -1.3762
 5063TIP3    H239385   1.863   5.203  17.843 -1.2350 -0.2984 -0.7785
 5064TIP3   OH239386   5.744   0.168  15.146  0.0061  0.1483 -0.1946
 5064TIP3    H139387   5.769   0.089  15.193  1.4038  0.6501 -0.0218
 5064TIP3    H239388   5.815   0.230  15.165 -0.4158  1.0217 -1.3422
 5065TIP3   OH239389   3.079   0.780  16.880 -0.2329  1.1109  0.0740
 5065TIP3    H139390   2.985   0.774  16.866  0.0122  0.2855 -1.6309
 5065TIP3    H239391   3.096   0.872  16.897 -1.4468  1.1105  1.4027
 5066TIP3   OH239392   3.260   0.814  17.777 -0.4505 -0.2785 -0.6255
 5066TIP3    H139393   3.299   0.888  17.731  0.9698  0.4846  1.6459
 5066TIP3    H239394   3.309   0.738  17.746  1.3932  0.3876  0.5068
 5067TIP3   OH239395   0.939   5.112  17.696  0.0485  0.1464  0.7356
 5067TIP3    H139396   1.003   5.114  17.767  0.1828  0.2449  0.6117
 5067TIP3    H239397   0.940   5.200  17.660  2.2199 -0.6252 -1.3856
 5068TIP3   OH239398   4.081   2.906  17.343 -0.4887 -0.0273 -0.4271
 5068TIP3    H139399   4.088   2.901  17.439  0.8960 -0.4091 -0.5272
 5068TIP3    H239400   4.127   2.986  17.320  0.6803 -0.7998 -0.8807
 5069TIP3   OH239401   3.527   1.093  16.756  0.2784 -0.2931  0.2465
 5069TIP3    H139402   3.610   1.134  16.780  0.6194 -1.0841  0.4704
 5069TIP3    H239403   3.535   1.003  16.789 -1.1751 -0.0376  1.4043
 5070TIP3   OH239404   3.111   1.441  16.732  0.3341 -0.2650 -0.5046
 5070TIP3    H139405   3.145   1.516  16.781  0.9803  0.2532 -1.7152
 5070TIP3    H239406   3.016   1.449  16.739  0.3885 -0.6401  1.2868
 5071TIP3   OH239407   6.641   5.753  17.740  0.4608  0.0510 -0.5521
 5071TIP3    H139408   6.725   5.794  17.720  0.2167 -0.4022 -2.8266
 5071TIP3    H239409   6.656   5.706  17.822  2.5736 -0.4007 -1.1342
 5072TIP3   OH239410   4.501   4.764  17.632  0.2830 -0.0762 -0.4527
 5072TIP3    H139411   4.543   4.723  17.708 -1.4081  0.9293  1.1088
 5072TIP3    H239412   4.540   4.850  17.626 -0.8567  0.5409  0.4793
 5073TIP3   OH239413   2.904   4.313  16.665  0.0979  0.2656  0.3068
 5073TIP3    H139414   2.809   4.318  16.657  0.0731  0.1546  0.5362
 5073TIP3    H239415   2.922   4.220  16.680  0.1677  0.4278  1.2470
 5074TIP3   OH239416   6.413   2.034  17.273 -0.2153 -0.4104 -0.0602
 5074TIP3    H139417   6.355   2.110  17.264  1.1952  1.0912  2.4364
 5074TIP3    H239418   6.493   2.059  17.227  0.0255 -0.6615  0.2201
 5075TIP3   OH239419   0.361   0.761  17.210  0.2589  0.0122 -0.1782
 5075TIP3    H139420   0.318   0.842  17.183  0.7405  0.7527  1.1672
 5075TIP3    H239421   0.452   0.772  17.181  0.2463 -0.1939 -0.2935
 5076TIP3   OH239422   2.581   3.811  17.155  0.1116  0.2108 -0.5044
 5076TIP3    H139423   2.642   3.743  17.127  0.6785  1.0541 -1.3757
 5076TIP3    H239424   2.557   3.856  17.074  2.1293  3.0129  0.3156
 5077TIP3   OH239425   0.637   5.752  14.118 -0.1357  0.4074 -0.1718
 5077TIP3    H139426   0.644   5.845  14.097  0.5589  0.7052  1.2650
 5077TIP3    H239427   0.727   5.722  14.129 -0.3715 -0.3212 -0.1391
 5078TIP3   OH239428   1.734   5.567  16.819 -0.1578  0.1119 -0.5751
 5078TIP3    H139429   1.668   5.519  16.770 -0.5328 -1.0061  0.9742
 5078TIP3    H239430   1.751   5.645  16.765 -1.1788 -0.6151 -2.0243
 5079TIP3   OH239431   5.458   6.637  14.119  0.6141 -0.2347  0.2241
 5079TIP3    H139432   5.395   6.692  14.072  0.7109 -1.5176 -1.4945
 5079TIP3    H239433   5.453   6.552  14.076  3.2253 -0.4968  0.2760
 5080TIP3   OH239434   0.716   0.249  15.401 -0.0929 -0.5309  0.0424
 5080TIP3    H139435   0.622   0.263  15.403  0.1020  1.3865 -1.2741
 5080TIP3    H239436   0.743   0.278  15.314  2.4447  4.9406  2.1758
 5081TIP3   OH239437   5.760   0.425  15.706  0.2155  0.0034  0.1853
 5081TIP3    H139438   5.705   0.464  15.774 -0.3079 -0.8649  0.2810
 5081TIP3    H239439   5.849   0.438  15.737  0.0404  0.8280  0.3634
 5082TIP3   OH239440   0.463   2.268  15.340 -0.0951  0.2169  0.1412
 5082TIP3    H139441   0.463   2.349  15.288 -1.5586  0.4011  0.3924
 5082TIP3    H239442   0.510   2.205  15.285 -0.6117  0.7185 -0.9132
 5083TIP3   OH239443   2.456   2.395  16.875  0.3699 -0.4580  0.2648
 5083TIP3    H139444   2.450   2.305  16.842 -3.2685  0.8900 -3.5902
 5083TIP3    H239445   2.534   2.430  16.834 -1.8408 -0.0836 -4.1438
 5084TIP3   OH239446   2.309   6.436  15.787 -0.7561  0.2194  0.1638
 5084TIP3    H139447   2.315   6.526  15.754 -1.7899  0.2346 -0.0480
 5084TIP3    H239448   2.393   6.420  15.829  0.3485  0.4788 -1.8188
 5085TIP3   OH239449   3.590   1.959  16.018 -0.2158 -0.5571 -0.0289
 5085TIP3    H139450   3.532   1.940  16.091  1.7048 -1.1513  1.4051
 5085TIP3    H239451   3.645   1.881  16.009 -0.5991 -0.6363 -2.3523
 5086TIP3   OH239452   1.528   4.062  17.329 -0.2118 -0.3431  0.2755
 5086TIP3    H139453   1.465   4.016  17.273  0.6828  0.0823 -1.1532
 5086TIP3    H239454   1.612   4.053  17.282  0.4280  0.6941  1.1754
 5087TIP3   OH239455   6.336   0.766  16.910 -0.6379  0.0808 -0.1548
 5087TIP3    H139456   6.366   0.748  16.999  0.7566  1.2893 -0.3373
 5087TIP3    H239457   6.404   0.730  16.853 -1.8082 -1.2189 -0.7937
 5088TIP3   OH239458   0.305   0.110  14.466 -0.2099 -0.0155 -0.0287
 5088TIP3    H139459   0.258   0.027  14.469  0.5454 -0.4506  0.2540
 5088TIP3    H239460   0.342   0.114  14.378 -0.4285  0.1215 -0.1136
 5089TIP3   OH239461   3.885   2.892  17.136 -0.0144 -0.0979  0.4690
 5089TIP3    H139462   3.961   2.924  17.186 -0.9379 -1.0539  2.6337
 5089TIP3    H239463   3.871   2.958  17.069  2.9579 -0.0904 -0.2716
 5090TIP3   OH239464   2.758   6.631  14.711  0.4541  0.6294 -0.0524
 5090TIP3    H139465   2.777   6.585  14.630  0.2046 -0.0913  0.2916
 5090TIP3    H239466   2.842   6.671  14.735  1.3908 -1.7409  0.9452
 5091TIP3   OH239467   0.953   2.657  16.572 -0.0155  0.2850 -0.4126
 5091TIP3    H139468   0.863   2.687  16.562 -0.8831 -2.3407 -1.3725
 5091TIP3    H239469   0.952   2.602  16.651  1.0828  1.2391  0.3056
 5092TIP3   OH239470   3.499   3.062  15.864  0.1292  0.2695 -0.3428
 5092TIP3    H139471   3.472   3.123  15.933 -0.1853 -0.0114 -0.2147
 5092TIP3    H239472   3.489   3.112  15.782 -0.3748  0.3043 -0.2603
 5093TIP3   OH239473   4.847   0.099  16.668  0.7625  0.4017 -0.2649
 5093TIP3    H139474   4.797   0.040  16.612 -1.9200  0.6264  1.6570
 5093TIP3    H239475   4.906   0.042  16.717 -1.4736 -0.7875  1.2485
 5094TIP3   OH239476   4.668   2.418  16.686  0.2014  0.0457 -0.0605
 5094TIP3    H139477   4.575   2.393  16.689 -0.1597  1.3109 -0.0621
 5094TIP3    H239478   4.710   2.365  16.753 -0.5142 -0.5946 -0.1072
 5095TIP3   OH239479   4.433   3.956  15.711 -0.3060  0.8539 -0.4873
 5095TIP3    H139480   4.341   3.929  15.702 -0.1480 -0.4114  1.0882
 5095TIP3    H239481   4.430   4.052  15.715 -1.6844  0.8078  0.4320
 5096TIP3   OH239482   1.509   3.207  17.647  0.2505  0.0171 -1.0154
 5096TIP3    H139483   1.580   3.144  17.645  0.4234  0.2388 -1.9543
 5096TIP3    H239484   1.543   3.279  17.701 -0.8954 -1.7561  2.3543
 5097TIP3   OH239485   1.699   0.992  15.094  0.0171 -0.0961 -0.4939
 5097TIP3    H139486   1.617   1.014  15.049  0.5269  0.2726 -1.2495
 5097TIP3    H239487   1.693   1.040  15.177 -0.1735  0.5786 -0.8910
 5098TIP3   OH239488   4.473   6.388  15.813 -0.4069 -0.2479 -0.5198
 5098TIP3    H139489   4.514   6.302  15.818 -0.4369 -0.2757 -0.7073
 5098TIP3    H239490   4.399   6.375  15.752  0.0685  0.0961 -1.1880
 5099TIP3   OH239491   5.836   6.702  15.328  0.0376  0.1854 -0.2033
 5099TIP3    H139492   5.835   6.741  15.415 -1.4177  1.0520 -0.5809
 5099TIP3    H239493   5.922   6.725  15.293 -0.6085  2.8505 -0.2770
 5100TIP3   OH239494   4.372   2.002  16.655 -0.2998 -0.3567 -0.1700
 5100TIP3    H139495   4.339   1.933  16.597  3.0344 -1.6534 -0.7379
 5100TIP3    H239496   4.355   1.969  16.743 -0.8433 -0.8104 -0.4366
 5101TIP3   OH239497   6.451   3.989  14.938  0.0499  0.8150  0.2142
 5101TIP3    H139498   6.529   3.983  14.883  1.3199  0.7458  1.9446
 5101TIP3    H239499   6.389   3.928  14.899  2.4564 -2.6241  1.2354
 5102TIP3   OH239500   5.249   0.784  17.664  0.0262  0.1856  0.2591
 5102TIP3    H139501   5.188   0.854  17.641  0.3465  0.5525  0.5279
 5102TIP3    H239502   5.309   0.823  17.726  0.3178 -0.2799  0.2776
 5103TIP3   OH239503   5.546   1.386  17.438  0.1362 -0.1451 -0.4784
 5103TIP3    H139504   5.634   1.363  17.467  0.1707  1.0639  0.4751
 5103TIP3    H239505   5.488   1.330  17.489  0.2593  1.0254  1.0245
 5104TIP3   OH239506   2.232   2.680  15.483  0.0319  0.6276  0.2970
 5104TIP3    H139507   2.278   2.763  15.473 -0.6017  0.7367 -2.8415
 5104TIP3    H239508   2.140   2.701  15.463  0.3156 -1.1930 -4.1426
 5105TIP3   OH239509   1.367   0.748  14.850  0.2477  0.3990  0.3722
 5105TIP3    H139510   1.371   0.672  14.793 -0.2758  0.3049  0.4568
 5105TIP3    H239511   1.402   0.718  14.934  0.9506  0.5180  0.1277
 5106TIP3   OH239512   0.779   0.201  14.675 -0.0585  0.5227  0.3901
 5106TIP3    H139513   0.691   0.172  14.695  0.2901  0.1416  1.4190
 5106TIP3    H239514   0.808   0.144  14.604 -0.1505 -0.2673  0.9719
 5107TIP3   OH239515   1.705   5.465  17.679 -0.2699  0.0948 -0.4087
 5107TIP3    H139516   1.667   5.378  17.683  1.4748 -0.6850  0.4568
 5107TIP3    H239517   1.719   5.490  17.770 -0.3665  1.1135 -0.6576
 5108TIP3   OH239518   2.970   4.829  15.686 -0.1644  0.3770  0.2978
 5108TIP3    H139519   2.986   4.830  15.781  0.5342 -0.3679  0.2023
 5108TIP3    H239520   3.011   4.748  15.656 -1.1958  0.1255 -0.5086
 5109TIP3   OH239521   2.134   4.395  15.889 -0.5614  0.1376  0.0932
 5109TIP3    H139522   2.042   4.394  15.917  0.0506  0.8450  2.3235
 5109TIP3    H239523   2.141   4.471  15.833 -1.5433 -0.5151 -0.9680
 5110TIP3   OH239524   2.329   0.201  16.407  0.1237 -0.4142 -0.2157
 5110TIP3    H139525   2.318   0.285  16.452  2.0549 -0.9931  1.4966
 5110TIP3    H239526   2.418   0.204  16.372 -1.0921 -0.2588 -3.6030
 5111TIP3   OH239527   0.525   0.939  15.526  0.5061 -0.5159  0.3795
 5111TIP3    H139528   0.430   0.941  15.540  0.2805  0.4475 -1.1073
 5111TIP3    H239529   0.558   1.014  15.576  0.3327 -0.1392 -0.0671
 5112TIP3   OH239530   3.145   4.595  14.981 -0.3772 -0.0600 -0.8022
 5112TIP3    H139531   3.223   4.629  14.937 -1.1081 -0.0546 -2.1316
 5112TIP3    H239532   3.102   4.541  14.915 -0.6199 -1.4494  0.4561
 5113TIP3   OH239533   3.967   1.346  17.248 -0.0764 -0.0293 -0.4583
 5113TIP3    H139534   4.016   1.269  17.221  2.1288  1.2590 -0.3405
 5113TIP3    H239535   3.876   1.315  17.256  0.7864 -2.6854  0.0269
 5114TIP3   OH239536   2.800   0.672  14.420  0.5567  0.1799 -0.3554
 5114TIP3    H139537   2.832   0.624  14.344  0.7152 -2.4446  1.2383
 5114TIP3    H239538   2.706   0.679  14.407  0.8476  2.0911 -1.9444
 5115TIP3   OH239539   5.791   6.241  15.147  0.1938 -0.1084  0.5763
 5115TIP3    H139540   5.780   6.222  15.054 -2.4282  0.4914  0.6962
 5115TIP3    H239541   5.803   6.155  15.188 -0.8314 -0.5891 -0.0894
 5116TIP3   OH239542   4.945   2.268  16.228  0.3201 -0.3110 -0.4250
 5116TIP3    H139543   4.893   2.266  16.148 -1.6589  0.0655  0.7663
 5116TIP3    H239544   4.886   2.306  16.294  1.9178 -0.4509  1.1767
 5117TIP3   OH239545   0.269   0.457  16.060 -0.0853  0.5065 -0.8760
 5117TIP3    H139546   0.203   0.518  16.093  0.8623  1.5951 -0.9724
 5117TIP3    H239547   0.352   0.500  16.075  0.8653 -1.8287  1.4291
 5118TIP3   OH239548   0.315   3.441  17.266  0.4607 -0.3628  0.1999
 5118TIP3    H139549   0.276   3.420  17.181 -0.0515 -2.7791  0.9733
 5118TIP3    H239550   0.408   3.455  17.246  0.1334  0.3488 -0.9163
 5119TIP3   OH239551   1.659   0.270  17.060 -1.1150  0.1015  0.2656
 5119TIP3    H139552   1.586   0.330  17.069 -1.8831 -0.5293 -1.3579
 5119TIP3    H239553   1.634   0.193  17.112 -0.8317  0.5467  1.0743
 5120TIP3   OH239554   0.178   1.992  14.592  0.3831  0.1967  0.2180
 5120TIP3    H139555   0.157   2.034  14.676 -0.8973  1.8626 -0.8590
 5120TIP3    H239556   0.200   2.065  14.534 -1.5357 -0.5965 -1.6498
 5121TIP3   OH239557   2.944   3.750  16.249  0.7366 -0.1763  0.7991
 5121TIP3    H139558   2.886   3.768  16.323 -2.0291  1.1597 -1.4944
 5121TIP3    H239559   2.988   3.834  16.232 -0.9864  0.4411 -0.8766
 5122TIP3   OH239560   5.253   4.471  17.131  0.4083 -0.6076 -0.4403
 5122TIP3    H139561   5.241   4.522  17.051 -1.6902 -1.6766 -0.8979
 5122TIP3    H239562   5.313   4.523  17.185  1.0230  0.6468 -2.2594
 5123TIP3   OH239563   1.068   4.934  17.251  0.0554 -0.0331  0.2297
 5123TIP3    H139564   1.121   4.982  17.186  0.4366 -0.5846  0.1304
 5123TIP3    H239565   1.020   5.003  17.298 -0.5687  0.3590 -0.9309
 5124TIP3   OH239566   0.876   5.968  15.294 -0.4121  0.7521 -1.0070
 5124TIP3    H139567   0.964   5.931  15.284  0.6572  2.6035  0.7014
 5124TIP3    H239568   0.844   5.932  15.376 -0.7057  1.1031 -0.9673
 5125TIP3   OH239569   0.618   4.991  18.303  0.1913 -0.4131  0.1637
 5125TIP3    H139570   0.619   4.899  18.278  1.4460 -0.3611 -0.0416
 5125TIP3    H239571   0.641   4.991  18.396  0.0309 -0.3170  0.2039
 5126TIP3   OH239572   2.229   3.006  17.241  0.1037 -0.0187 -0.0516
 5126TIP3    H139573   2.207   3.099  17.235 -1.6452 -0.4791 -1.5359
 5126TIP3    H239574   2.303   2.995  17.181 -0.3308  0.2373 -0.6380
 5127TIP3   OH239575   4.775   0.936  17.101 -0.1362  0.3568  0.5166
 5127TIP3    H139576   4.819   1.000  17.157 -0.6173  0.6123  0.6136
 5127TIP3    H239577   4.691   0.920  17.145  0.3986 -1.1448  1.0776
 5128TIP3   OH239578   2.529   0.100  14.994 -0.0550 -0.2034  0.1037
 5128TIP3    H139579   2.477   0.150  15.057 -0.3757 -0.4015 -0.0004
 5128TIP3    H239580   2.548   0.161  14.923  1.3178  0.3837  0.9202
 5129TIP3   OH239581   4.660   3.781  16.877 -0.0580  0.0639 -0.4912
 5129TIP3    H139582   4.700   3.761  16.792 -0.4108  1.1451 -0.9343
 5129TIP3    H239583   4.597   3.851  16.858  1.5841  2.0792  1.0509
 5130TIP3   OH239584   5.669   5.297  17.226 -0.5327 -0.2891  0.6915
 5130TIP3    H139585   5.742   5.309  17.165 -0.0606 -2.6897  0.6836
 5130TIP3    H239586   5.598   5.348  17.189  0.3970  0.0805 -0.6701
 5131TIP3   OH239587   2.341   3.066  16.991 -0.0143  0.0172 -0.3086
 5131TIP3    H139588   2.357   3.016  16.911 -0.2871  2.5247 -2.0472
 5131TIP3    H239589   2.339   3.157  16.962 -2.0320  0.9089  2.2743
 5132TIP3   OH239590   3.928   6.231  14.603  0.2722  0.1203 -0.4048
 5132TIP3    H139591   3.939   6.234  14.508  2.3552 -0.8720 -0.2300
 5132TIP3    H239592   3.906   6.322  14.627 -3.7248 -0.1677 -2.0934
 5133TIP3   OH239593   1.591   0.520  16.924  0.1023 -0.0700  0.3016
 5133TIP3    H139594   1.553   0.453  16.867 -0.1018  0.6031 -0.3924
 5133TIP3    H239595   1.635   0.580  16.863 -0.4069  0.8549  0.8165
 5134TIP3   OH239596   1.397   2.621  17.188 -0.3854  0.8651 -0.3950
 5134TIP3    H139597   1.429   2.629  17.278  1.0994  0.5455 -0.8659
 5134TIP3    H239598   1.302   2.631  17.195 -0.2578  1.1928  1.1574
 5135TIP3   OH239599   5.852   4.254  16.172 -0.0165 -0.4140 -0.4681
 5135TIP3    H139600   5.832   4.321  16.236  0.6300 -0.4727 -0.2077
 5135TIP3    H239601   5.872   4.176  16.223 -0.2570 -0.6713 -0.7580
 5136TIP3   OH239602   3.112   3.887  15.135 -0.2825 -0.3828  0.0054
 5136TIP3    H139603   3.087   3.858  15.047 -0.5916 -0.9142  0.2610
 5136TIP3    H239604   3.154   3.811  15.174  0.6351  0.1265  0.0187
 5137TIP3   OH239605   5.450   5.587  14.494  0.0929  0.3155  0.4441
 5137TIP3    H139606   5.375   5.628  14.451 -0.6709  0.3897  1.7720
 5137TIP3    H239607   5.526   5.617  14.444 -0.6751  1.1213 -0.2789
 5138TIP3   OH239608   1.309   0.484  16.677 -0.2394 -0.5444  0.1644
 5138TIP3    H139609   1.271   0.480  16.765  1.0064  1.3144  0.8515
 5138TIP3    H239610   1.253   0.546  16.630 -1.2681 -2.0002 -0.5851
 5139TIP3   OH239611   0.901   5.470  16.311 -0.2162  0.3324 -0.3317
 5139TIP3    H139612   0.989   5.488  16.278 -0.3485  0.8233 -0.4298
 5139TIP3    H239613   0.895   5.523  16.391  0.6214 -1.9038  1.3313
 5140TIP3   OH239614   2.942   6.431  17.995  0.0190  0.0354 -0.0547
 5140TIP3    H139615   2.950   6.335  17.992  0.6491  0.1035 -0.8693
 5140TIP3    H239616   2.880   6.451  17.925 -2.1038  0.0569  1.7148
 5141TIP3   OH239617   1.327   1.521  15.703  0.2202 -0.2560 -0.3226
 5141TIP3    H139618   1.265   1.453  15.730 -0.1933  0.0207 -0.5715
 5141TIP3    H239619   1.380   1.480  15.636 -0.2287 -0.2416 -0.6899
 5142TIP3   OH239620   3.252   2.448  14.360 -0.2395 -0.1837 -0.3980
 5142TIP3    H139621   3.294   2.402  14.433 -1.3161  0.2061  0.4960
 5142TIP3    H239622   3.213   2.525  14.400  0.2396  0.7198 -1.6300
 5143TIP3   OH239623   0.580   5.819  15.135 -0.3523 -0.4005  0.1914
 5143TIP3    H139624   0.609   5.910  15.142  0.3019 -0.6025  0.1855
 5143TIP3    H239625   0.656   5.773  15.098  1.0037 -1.7688  4.1757
 5144TIP3   OH239626   0.009   6.436  15.656 -0.1451  0.4020  0.1676
 5144TIP3    H139627   0.073   6.501  15.629  2.8373 -2.4213 -0.1048
 5144TIP3    H239628   0.043   6.399  15.737 -0.9181 -1.7684 -0.4079
 5145TIP3   OH239629   2.056   4.329  17.214 -0.5615  0.0888  0.6020
 5145TIP3    H139630   2.059   4.357  17.305  0.6777 -1.2949  1.0115
 5145TIP3    H239631   2.018   4.241  17.217 -2.0218  0.6484 -0.3989
 5146TIP3   OH239632   4.178   5.078  17.241 -0.4317 -0.2674  0.3983
 5146TIP3    H139633   4.179   4.986  17.215  1.9582  0.1335 -1.2219
 5146TIP3    H239634   4.095   5.089  17.287 -0.5718 -3.3150  1.0357
 5147TIP3   OH239635   4.544   2.543  16.987  0.2207  0.5231  0.2132
 5147TIP3    H139636   4.466   2.561  16.935 -0.0905  0.8241  0.7743
 5147TIP3    H239637   4.541   2.449  17.004  0.4836  0.3662 -0.5511
 5148TIP3   OH239638   4.921   4.809  16.612  0.3310  0.2722  0.0272
 5148TIP3    H139639   4.910   4.777  16.702  0.5209 -0.7730 -0.3018
 5148TIP3    H239640   4.913   4.730  16.558 -1.6558  1.1236 -1.0215
 5149TIP3   OH239641   4.635   6.154  15.914 -0.0209  0.1229  0.4729
 5149TIP3    H139642   4.688   6.117  15.984 -0.7026  0.5752  1.2366
 5149TIP3    H239643   4.685   6.229  15.883  0.0314  0.2339  0.8287
 5150TIP3   OH239644   6.128   1.602  17.100 -0.2720  0.5836 -0.7922
 5150TIP3    H139645   6.140   1.697  17.102 -0.9892  0.6698 -0.6857
 5150TIP3    H239646   6.185   1.570  17.169 -0.5711  0.9943 -0.3492
 5151TIP3   OH239647   5.100   3.164  17.924  0.5639  0.0628 -0.3982
 5151TIP3    H139648   5.050   3.096  17.878 -0.4648 -0.2753  1.1396
 5151TIP3    H239649   5.165   3.115  17.975 -1.2342 -0.0109  2.0203
 5152TIP3   OH239650   3.511   1.991  16.503  0.0148 -0.2719  0.1068
 5152TIP3    H139651   3.419   2.011  16.483 -0.1165 -0.2213  0.7456
 5152TIP3    H239652   3.559   2.019  16.425 -0.6129 -1.1560 -0.6230
 5153TIP3   OH239653   1.878   2.294  17.834  0.2552  0.4535 -0.2256
 5153TIP3    H139654   1.855   2.262  17.747 -0.6059  1.1739 -0.2790
 5153TIP3    H239655   1.867   2.389  17.828  1.5005  0.6500  0.2908
 5154TIP3   OH239656   1.144   3.559  16.820 -0.0755 -0.2141 -0.0259
 5154TIP3    H139657   1.190   3.485  16.858  0.5694 -0.5236 -1.3314
 5154TIP3    H239658   1.143   3.625  16.889  4.4524  0.7334 -0.5553
 5155TIP3   OH239659   0.570   4.492  18.124 -0.1209 -0.3562  0.3190
 5155TIP3    H139660   0.651   4.453  18.090 -0.2080 -2.3825  2.2300
 5155TIP3    H239661   0.525   4.524  18.046  1.3667 -1.4543 -1.0636
 5156TIP3   OH239662   6.718   4.129  17.592 -0.0275  0.0973 -0.2472
 5156TIP3    H139663   6.752   4.132  17.502  1.0032 -3.7641 -0.1798
 5156TIP3    H239664   6.791   4.160  17.646 -0.6055  2.3105 -0.6334
 5157TIP3   OH239665   0.962   6.673  17.010 -0.2334  0.2883  0.2951
 5157TIP3    H139666   0.975   6.768  17.016  0.1728  0.2688 -0.2137
 5157TIP3    H239667   0.870   6.660  17.036  0.1558  0.6410  1.9375
 5158TIP3   OH239668   4.720   3.433  15.800 -0.4658 -0.0315 -0.2364
 5158TIP3    H139669   4.801   3.439  15.750 -0.3982 -0.5026 -0.1917
 5158TIP3    H239670   4.707   3.339  15.814 -0.2435  0.1020  1.0109
 5159TIP3   OH239671   3.717   4.044  20.756 -0.1360  0.3463  0.1402
 5159TIP3    H139672   3.650   4.018  20.820 -0.8291  1.9876  0.1203
 5159TIP3    H239673   3.701   3.987  20.680 -0.3440 -0.5042  0.8038
 5160TIP3   OH239674   0.776   3.743  15.803 -0.4154 -0.0903  0.1106
 5160TIP3    H139675   0.704   3.803  15.780 -0.6065 -0.1570  0.5213
 5160TIP3    H239676   0.838   3.798  15.851  0.7429  0.4271 -1.8689
 5161TIP3   OH239677   3.203   2.767  15.631  0.8917  0.0597  0.5043
 5161TIP3    H139678   3.172   2.843  15.681 -2.6114 -0.3359 -0.7918
 5161TIP3    H239679   3.163   2.692  15.673 -0.0581 -0.5188 -1.3335
 5162TIP3   OH239680   2.444   5.535  15.003 -0.8666 -0.0622 -0.0326
 5162TIP3    H139681   2.355   5.564  14.985 -1.2059  0.8159  2.5845
 5162TIP3    H239682   2.488   5.613  15.039  0.5145 -0.8605  0.0976
 5163TIP3   OH239683   6.063   2.556  17.420 -0.4385  0.0600 -0.3662
 5163TIP3    H139684   6.003   2.536  17.492 -0.8076  1.7812 -0.1619
 5163TIP3    H239685   6.129   2.613  17.460 -0.6169  0.9920 -1.3791
 5164TIP3   OH239686   6.584   4.723  16.437  0.2604  0.4368  0.6101
 5164TIP3    H139687   6.665   4.757  16.476 -0.6211  1.4907  1.5560
 5164TIP3    H239688   6.533   4.692  16.511 -0.6623  0.7731  0.1196
 5165TIP3   OH239689   2.418   0.953  15.020 -0.1171 -0.6443  0.0765
 5165TIP3    H139690   2.487   0.921  15.079  0.9827 -0.6186 -1.1281
 5165TIP3    H239691   2.456   0.943  14.932 -1.5891 -0.4306 -0.6186
 5166TIP3   OH239692   0.693   2.454  17.931 -0.0914  0.1900  0.1875
 5166TIP3    H139693   0.735   2.369  17.913 -1.2170 -0.2479 -0.4688
 5166TIP3    H239694   0.703   2.466  18.025 -2.3199 -2.0418  0.8227
 5167TIP3   OH239695   4.590   3.247  17.698  0.1462  0.2675  0.4032
 5167TIP3    H139696   4.620   3.322  17.748 -1.3390 -0.5333  2.6567
 5167TIP3    H239697   4.545   3.286  17.622 -1.6466  1.7881  2.1176
 5168TIP3   OH239698   0.653   5.679  16.279 -0.7290 -0.0492  0.3239
 5168TIP3    H139699   0.572   5.638  16.249 -0.7653  1.0989 -1.2786
 5168TIP3    H239700   0.682   5.624  16.352 -1.0444 -2.5956 -1.3471
 5169TIP3   OH239701   5.643   4.195  17.576 -0.0750  0.3799  0.3511
 5169TIP3    H139702   5.708   4.142  17.529  1.0695  0.2632  1.9831
 5169TIP3    H239703   5.667   4.286  17.556  0.2625  0.3295  0.5247
 5170TIP3   OH239704   0.093   4.564  17.321  0.7622 -0.3213 -0.1883
 5170TIP3    H139705   0.130   4.493  17.374  0.4212 -1.0164 -0.8668
 5170TIP3    H239706   0.087   4.527  17.233 -0.9952 -0.0190 -0.2169
 5171TIP3   OH239707   4.710   3.466  17.298  0.3095 -0.4592 -0.5689
 5171TIP3    H139708   4.779   3.524  17.265  1.2033  0.4526  2.5617
 5171TIP3    H239709   4.757   3.391  17.334 -0.6847 -1.9167 -2.1216
 5172TIP3   OH239710   4.949   5.252  17.722 -0.0385 -0.1946  0.4060
 5172TIP3    H139711   4.978   5.167  17.690 -1.3218  0.1462 -1.8335
 5172TIP3    H239712   5.021   5.312  17.704  1.6724 -1.0090  3.6953
 5173TIP3   OH239713   5.521   0.770  14.917 -0.5014  0.0293  0.0151
 5173TIP3    H139714   5.502   0.825  14.994 -1.5621  0.9615 -0.8854
 5173TIP3    H239715   5.518   0.831  14.843  0.1072 -0.9373 -0.8242
 5174TIP3   OH239716   5.060   1.443  16.132  0.3371  0.4039  0.4126
 5174TIP3    H139717   4.964   1.444  16.127  0.3514 -0.5423 -0.2620
 5174TIP3    H239718   5.079   1.456  16.225 -0.4987 -0.9331  0.7909
 5175TIP3   OH239719   2.745   3.191  16.387 -0.2015  0.5047  0.0652
 5175TIP3    H139720   2.687   3.116  16.378  1.7154 -1.2279  1.2241
 5175TIP3    H239721   2.687   3.267  16.386 -2.3584 -1.0601  0.2935
 5176TIP3   OH239722   6.040   3.399  18.170 -0.0641  0.3267  0.2130
 5176TIP3    H139723   6.051   3.494  18.164 -1.2230  0.5053  0.7689
 5176TIP3    H239724   6.114   3.364  18.120  1.1096  1.4945  1.0490
 5177TIP3   OH239725   2.039   5.276  15.582 -0.1586  0.2749 -0.0426
 5177TIP3    H139726   2.089   5.266  15.501  0.4834 -3.8242  0.6138
 5177TIP3    H239727   1.959   5.226  15.566  0.5740 -1.7967  2.1511
 5178TIP3   OH239728   1.247   1.042  15.475 -0.2566  0.7532 -0.1934
 5178TIP3    H139729   1.334   1.077  15.459  0.7971 -0.8441  1.6062
 5178TIP3    H239730   1.247   1.018  15.567 -1.3695 -2.4125 -0.8788
 5179TIP3   OH239731   0.824   4.127  15.005 -0.0673 -0.0817  0.1497
 5179TIP3    H139732   0.904   4.076  15.013 -0.1401 -0.3746 -0.8203
 5179TIP3    H239733   0.764   4.070  14.956 -0.9656  0.0273  1.0833
 5180TIP3   OH239734   1.543   6.124  15.870  0.0933 -0.3938 -0.8542
 5180TIP3    H139735   1.481   6.131  15.942 -0.9757  0.2907 -1.8035
 5180TIP3    H239736   1.627   6.149  15.908 -0.5925  0.7128 -0.0086
 5181TIP3   OH239737   3.883   4.357  16.614 -0.3612 -0.2602  0.3389
 5181TIP3    H139738   3.974   4.380  16.630 -0.2589 -0.3784 -0.0505
 5181TIP3    H239739   3.838   4.375  16.696  0.2000 -1.1891  0.8631
 5182TIP3   OH239740   2.711   6.405  17.826 -0.2321 -0.1878 -0.0516
 5182TIP3    H139741   2.630   6.368  17.792 -0.0068 -0.3322 -0.4381
 5182TIP3    H239742   2.748   6.454  17.753  1.3397 -2.2620 -0.7178
 5183TIP3   OH239743   3.305   4.301  17.888  0.4716 -0.6338 -0.4014
 5183TIP3    H139744   3.211   4.287  17.900  0.6274 -0.8996  0.5853
 5183TIP3    H239745   3.333   4.349  17.966  0.8441  1.0376 -1.5002
 5184TIP3   OH239746   2.424   3.644  15.796 -0.0676  0.2471 -0.4619
 5184TIP3    H139747   2.389   3.730  15.818  1.1964  0.8074 -0.5527
 5184TIP3    H239748   2.407   3.633  15.703  0.0313  0.5165 -0.5101
 5185TIP3   OH239749   5.134   3.290  16.474  0.0295  0.0942  0.2248
 5185TIP3    H139750   5.046   3.327  16.483 -0.5304 -1.4395  1.2786
 5185TIP3    H239751   5.192   3.364  16.492 -1.0308  0.9848  0.1270
 5186TIP3   OH239752   3.832   3.816  15.528 -0.0729  0.2785  0.0614
 5186TIP3    H139753   3.838   3.830  15.434 -1.1953  0.2634 -0.0319
 5186TIP3    H239754   3.810   3.723  15.537 -0.5146  0.4033  0.3095
 5187TIP3   OH239755   4.705   5.684  17.897  0.0605 -0.4684  0.0417
 5187TIP3    H139756   4.730   5.774  17.919 -0.4372 -0.0724 -0.9373
 5187TIP3    H239757   4.786   5.644  17.865 -0.0248  0.1090 -0.9482
 5188TIP3   OH239758   5.389   5.833  15.088 -0.0784  0.2488 -0.4771
 5188TIP3    H139759   5.481   5.824  15.064  0.2324 -0.3446  0.8741
 5188TIP3    H239760   5.359   5.743  15.102 -0.8885  0.4316 -0.9818
 5189TIP3   OH239761   3.711   3.465  17.753  0.0847  0.0314  0.4295
 5189TIP3    H139762   3.664   3.386  17.728 -0.3304 -0.0767  1.4936
 5189TIP3    H239763   3.649   3.536  17.738  0.6332  0.2508 -1.0318
 5190TIP3   OH239764   3.779   6.124  16.495  0.2012 -0.3699  0.1421
 5190TIP3    H139765   3.774   6.092  16.405  2.7256 -0.2943 -0.0827
 5190TIP3    H239766   3.726   6.204  16.495  0.9672  0.1734 -1.5472
 5191TIP3   OH239767   6.666   3.046  16.436 -0.4001 -0.2654  0.0375
 5191TIP3    H139768   6.634   2.965  16.396  0.0681 -0.9081  0.9308
 5191TIP3    H239769   6.591   3.081  16.484 -0.5890 -0.1846 -0.3113
 5192TIP3   OH239770   0.774   3.674  17.540  0.2393  0.6644  0.1101
 5192TIP3    H139771   0.853   3.713  17.501  1.8277 -0.8831  1.6462
 5192TIP3    H239772   0.785   3.687  17.634 -1.4952  0.6338  0.3462
 5193TIP3   OH239773   4.501   5.856  16.602  0.4895  0.9372 -0.1097
 5193TIP3    H139774   4.412   5.891  16.603  0.1935  0.1931  0.0906
 5193TIP3    H239775   4.551   5.921  16.553 -0.4510  0.7099 -1.4505
 5194TIP3   OH239776   3.763   5.000  16.031  0.1097  0.4332 -0.4840
 5194TIP3    H139777   3.715   4.975  16.111  1.5414 -2.7444 -0.4493
 5194TIP3    H239778   3.722   4.948  15.962  1.3101  0.2284 -1.0624
 5195TIP3   OH239779   4.735   4.136  17.684 -0.9476 -0.1968  0.4295
 5195TIP3    H139780   4.752   4.052  17.728 -1.4998 -0.1794  0.6837
 5195TIP3    H239781   4.739   4.115  17.591  0.4872 -0.1797  0.4746
 5196TIP3   OH239782   3.334   5.245  16.892  0.3124 -0.0603 -0.4425
 5196TIP3    H139783   3.391   5.240  16.815  0.9128 -0.1716  0.0121
 5196TIP3    H239784   3.283   5.165  16.889 -0.4480  0.4360 -1.3340
 5197TIP3   OH239785   4.891   2.822  17.270  0.6015  0.3150  0.0642
 5197TIP3    H139786   4.843   2.778  17.201  0.6822 -0.5761  0.5623
 5197TIP3    H239787   4.825   2.876  17.315  0.5148  0.7538 -0.5718
 5198TIP3   OH239788   5.634   6.253  15.489 -0.1727 -0.1195  0.1709
 5198TIP3    H139789   5.621   6.255  15.584 -2.6199  0.8962 -0.1057
 5198TIP3    H239790   5.711   6.307  15.474  0.1441 -0.1482  1.5466
 5199TIP3   OH239791   4.976   0.167  17.583  0.0018  0.2578  0.4965
 5199TIP3    H139792   5.003   0.133  17.668  0.1785  0.7190  0.6261
 5199TIP3    H239793   4.907   0.107  17.555  1.6033 -1.3728 -0.1618
 5200TIP3   OH239794   5.810   0.054  15.604  0.3845  0.3188 -0.2034
 5200TIP3    H139795   5.832   0.134  15.652  0.0739 -0.6756  1.6571
 5200TIP3    H239796   5.768  -0.002  15.668  0.1257 -1.1676 -1.6097
 5201TIP3   OH239797   3.087   4.166  16.508  0.0527 -0.1751 -0.2079
 5201TIP3    H139798   3.135   4.232  16.558 -0.6351  0.3438 -0.2349
 5201TIP3    H239799   3.154   4.101  16.485  0.7162  0.4649 -0.1190
 5202TIP3   OH239800   1.708   2.177  15.688  0.5744  0.3764 -0.0489
 5202TIP3    H139801   1.619   2.203  15.664  0.4421 -0.0532 -0.0374
 5202TIP3    H239802   1.696   2.106  15.750  0.9278  0.4815  0.1390
 5203TIP3   OH239803   0.949   0.913  15.838  0.0594 -0.5676 -0.0694
 5203TIP3    H139804   0.903   0.888  15.918 -0.8710 -0.3075 -0.5089
 5203TIP3    H239805   0.911   0.858  15.770 -0.9492  0.9418 -0.7816
 5204TIP3   OH239806   6.009   3.596  15.842  0.0230  0.0988 -0.2597
 5204TIP3    H139807   6.022   3.519  15.788 -1.4661 -0.5377  0.2410
 5204TIP3    H239808   5.925   3.581  15.886 -0.3928  2.0730 -0.2868
 5205TIP3   OH239809   4.491   5.073  16.280  0.1755 -0.7441 -0.4972
 5205TIP3    H139810   4.415   5.045  16.230 -0.6905  0.2998  0.1843
 5205TIP3    H239811   4.509   5.001  16.340 -2.2672  0.1736  1.5207
 5206TIP3   OH239812   0.911   4.862  17.578  0.0031 -1.1460 -0.2856
 5206TIP3    H139813   0.842   4.875  17.513 -0.1640 -2.4812 -0.4010
 5206TIP3    H239814   0.942   4.950  17.597 -1.0393 -0.6019 -0.9826
 5207TIP3   OH239815   2.493   1.944  16.049 -0.2080 -1.1181  0.3841
 5207TIP3    H139816   2.443   1.897  16.116  3.1324 -2.5119  2.1162
 5207TIP3    H239817   2.546   2.006  16.098  0.5744 -0.4589 -1.2381
 5208TIP3   OH239818   2.937   1.305  16.479  0.1837 -0.0854 -0.2524
 5208TIP3    H139819   3.009   1.365  16.458 -0.3188  0.3764 -0.7005
 5208TIP3    H239820   2.886   1.352  16.545  0.1328 -0.2905 -0.1450
 5209TIP3   OH239821   2.260   2.534  17.846 -0.6372 -0.1317  0.0950
 5209TIP3    H139822   2.220   2.539  17.760 -0.8181  0.1730  0.1950
 5209TIP3    H239823   2.222   2.607  17.895  0.3992  0.4528  0.0458
 5210TIP3   OH239824   2.277   3.792  15.389 -0.3804  0.0645  0.5693
 5210TIP3    H139825   2.229   3.710  15.377 -0.6191  0.1304  1.0565
 5210TIP3    H239826   2.361   3.765  15.427  0.1181 -0.0812 -0.5716
 5211TIP3   OH239827   4.372   5.301  17.209  0.2816  0.4805 -0.1259
 5211TIP3    H139828   4.418   5.305  17.293 -0.4159  1.9898  0.2146
 5211TIP3    H239829   4.311   5.228  17.219  0.6378  0.2592  0.4566
 5212TIP3   OH239830   6.254   6.542  15.469 -0.0953 -0.3104 -0.3191
 5212TIP3    H139831   6.344   6.535  15.499 -0.1918  0.4108  0.1918
 5212TIP3    H239832   6.204   6.561  15.549 -0.4280  1.1791 -0.8449
 5213TIP3   OH239833   4.874   5.545  17.667  0.1044  0.5504  0.3805
 5213TIP3    H139834   4.813   5.479  17.634 -0.5962  0.2486  2.1656
 5213TIP3    H239835   4.959   5.501  17.669 -0.1295  0.0995  0.4056
 5214TIP3   OH239836   1.420   1.415  16.481  0.1168 -0.4633  0.1098
 5214TIP3    H139837   1.352   1.445  16.420 -0.5721  2.3490  2.0807
 5214TIP3    H239838   1.375   1.354  16.539 -0.5971  0.8373  0.9595
 5215TIP3   OH239839   4.790   2.663  17.026  0.3070  0.2769  0.0095
 5215TIP3    H139840   4.701   2.631  17.008  0.0580  0.3758  1.0077
 5215TIP3    H239841   4.845   2.585  17.016  0.0399  0.1070 -0.1554
 5216TIP3   OH239842   5.085   1.800  17.458 -0.5829  0.2660 -0.1045
 5216TIP3    H139843   5.044   1.764  17.537  0.4220  0.4784  0.5242
 5216TIP3    H239844   5.170   1.756  17.453 -1.0524 -0.5368 -1.6658
 5217TIP3   OH239845   1.735   0.212  16.548 -0.0083 -0.2847  0.1921
 5217TIP3    H139846   1.745   0.151  16.620 -1.0887 -1.4531 -0.6040
 5217TIP3    H239847   1.655   0.261  16.568 -0.8095 -1.2242 -0.6076
 5218TIP3   OH239848   5.023   0.392  17.707  0.1156 -0.3431 -0.0126
 5218TIP3    H139849   4.995   0.452  17.638 -2.6299  1.3989  2.3551
 5218TIP3    H239850   4.991   0.307  17.680 -0.0090  0.1090 -1.3341
 5219TIP3   OH239851   6.035   3.210  16.098  0.3150  0.2060  0.3462
 5219TIP3    H139852   6.085   3.157  16.160  2.1493  0.7572 -0.6020
 5219TIP3    H239853   5.998   3.147  16.037  3.9608 -0.0693 -1.8704
 5220TIP3   OH239854   4.906   2.780  17.672  0.1542 -0.0724 -0.5533
 5220TIP3    H139855   4.958   2.816  17.600  1.6609  1.4185  1.1844
 5220TIP3    H239856   4.852   2.853  17.701 -0.4475 -0.6633 -0.1569
 5221TIP3   OH239857   0.400   1.068  16.814 -0.2084 -0.6093  0.4562
 5221TIP3    H139858   0.337   1.066  16.742 -1.1212 -0.8089  1.2445
 5221TIP3    H239859   0.372   1.142  16.869  1.7731  0.9599 -0.4936
 5222TIP3   OH239860   3.208   6.127  15.926  0.7251  0.5590 -0.0685
 5222TIP3    H139861   3.159   6.157  15.850  2.0186  0.7159 -0.8744
 5222TIP3    H239862   3.161   6.049  15.956  0.0354  0.6657 -0.8401
 5223TIP3   OH239863   5.247   0.968  17.410  0.2202  0.4505 -0.1501
 5223TIP3    H139864   5.194   0.889  17.419  2.5538 -1.0468  1.4317
 5223TIP3    H239865   5.208   1.029  17.473 -0.7385  0.0897 -0.3661
 5224TIP3   OH239866   5.336   3.780  17.553  0.2338  0.0185  0.1457
 5224TIP3    H139867   5.278   3.708  17.529 -0.5987  0.9885 -0.8335
 5224TIP3    H239868   5.283   3.859  17.541  0.8149  0.7696  2.1295
 5225TIP3   OH239869   3.448   6.321  17.471 -0.0326  1.1707  0.0319
 5225TIP3    H139870   3.473   6.341  17.562 -0.7067  0.9261  0.2732
 5225TIP3    H239871   3.497   6.241  17.450  1.4005  2.1211 -0.3822
 5226TIP3   OH239872   6.626   2.944  18.188 -0.6255  0.3631  0.4220
 5226TIP3    H139873   6.627   3.010  18.256 -2.7064  0.8741  0.0208
 5226TIP3    H239874   6.708   2.957  18.140 -0.6215  2.0978  0.8569
 5227TIP3   OH239875   4.641   6.343  16.327 -0.0601  0.4096 -0.2856
 5227TIP3    H139876   4.712   6.279  16.320  0.2405  0.4387  1.8757
 5227TIP3    H239877   4.644   6.373  16.418 -2.6890  0.5995 -0.1751
 5228TIP3   OH239878   6.268   4.756  17.629  0.1492  0.3897  0.5389
 5228TIP3    H139879   6.238   4.839  17.666 -0.5696 -0.3762  1.7094
 5228TIP3    H239880   6.238   4.689  17.690 -0.0225 -0.8279 -0.8127
 5229TIP3   OH239881   3.301   4.041  16.369  0.0924  0.4001 -0.2240
 5229TIP3    H139882   3.284   4.041  16.274  1.6419 -1.4015 -0.5582
 5229TIP3    H239883   3.326   3.951  16.389 -1.8766  0.3171  2.2682
 5230TIP3   OH239884   4.789   5.007  17.614  0.0182  0.2233  0.0674
 5230TIP3    H139885   4.733   5.063  17.667 -0.4581  0.1275 -0.3176
 5230TIP3    H239886   4.827   5.067  17.549  0.4548  0.3090  0.4034
 5231TIP3   OH239887   1.336   0.313  16.044  0.4351  0.2043  0.7759
 5231TIP3    H139888   1.343   0.234  15.990 -1.0299  0.8870 -0.5078
 5231TIP3    H239889   1.420   0.357  16.033  0.0659  0.5001 -1.3182
 5232TIP3   OH239890   0.187   5.016  17.129 -0.6496 -0.1124 -0.2072
 5232TIP3    H139891   0.173   5.057  17.214  1.2879 -0.4323  0.2973
 5232TIP3    H239892   0.234   5.083  17.078  0.5806 -0.8753 -0.1037
 5233TIP3   OH239893   0.637   2.346  16.414 -0.0588  0.3156 -0.3696
 5233TIP3    H139894   0.720   2.390  16.397 -0.4879  1.0205 -0.7483
 5233TIP3    H239895   0.596   2.337  16.328 -0.4399  0.1216 -0.1744
 5234TIP3   OH239896   4.059   1.591  17.320 -0.1224  0.2951 -0.2488
 5234TIP3    H139897   4.111   1.582  17.401 -2.1638 -0.2293  1.0848
 5234TIP3    H239898   4.063   1.504  17.280  0.7378  0.5017 -0.6305
 5235TIP3   OH239899   3.275   1.270  17.849  0.0333  0.0957  0.0183
 5235TIP3    H139900   3.236   1.357  17.850  1.0240  0.5901  1.7097
 5235TIP3    H239901   3.356   1.281  17.799  0.6292  0.4345  1.0015
 5236TIP3   OH239902   3.447   0.394  14.532  0.0245 -0.5436  0.1061
 5236TIP3    H139903   3.362   0.353  14.550  0.2263 -0.9807  0.0711
 5236TIP3    H239904   3.440   0.481  14.571  0.0183 -1.0367  1.2436
 5237TIP3   OH239905   2.193   2.000  16.355  0.8784 -0.5835  0.1785
 5237TIP3    H139906   2.252   1.929  16.331  2.3434 -0.0337  1.8910
 5237TIP3    H239907   2.206   2.066  16.288  0.3278 -1.4513 -0.8134
 5238TIP3   OH239908   1.457   1.423  17.110 -0.3649 -0.1927 -0.5835
 5238TIP3    H139909   1.392   1.464  17.053  1.5558 -0.2822 -3.0304
 5238TIP3    H239910   1.524   1.490  17.121 -1.4876  0.5022  3.2840
 5239TIP3   OH239911   3.965   6.430  14.849 -0.1973 -0.0304 -0.0009
 5239TIP3    H139912   3.913   6.459  14.773  0.8364  0.9467 -0.3539
 5239TIP3    H239913   4.050   6.472  14.838  0.2370 -0.5182  1.2962
 5240TIP3   OH239914   1.657   6.063  15.329  0.2847 -0.0721  0.2196
 5240TIP3    H139915   1.735   6.065  15.272  0.9296  0.9516  1.0945
 5240TIP3    H239916   1.617   6.149  15.316  0.9813  0.5712  1.9984
 5241TIP3   OH239917   6.393   3.036  15.897  0.2505  0.1795 -0.0648
 5241TIP3    H139918   6.418   2.953  15.858  0.0157 -0.1678  0.5144
 5241TIP3    H239919   6.418   3.028  15.989 -1.4233  0.0331  0.4185
 5242TIP3   OH239920   2.387   1.684  17.136  0.3792  0.1698 -0.2565
 5242TIP3    H139921   2.434   1.619  17.188  0.3996 -0.8387 -1.4811
 5242TIP3    H239922   2.339   1.633  17.072  0.4482  1.3719 -1.3114
 5243TIP3   OH239923   5.080   5.039  17.628  0.7830 -0.4782  0.1805
 5243TIP3    H139924   5.066   4.948  17.601 -1.8825 -0.0457 -0.2228
 5243TIP3    H239925   5.134   5.076  17.559 -0.5739 -1.0476 -1.2527
 5244TIP3   OH239926   4.716   3.005  17.704  0.6997 -0.3471  0.0018
 5244TIP3    H139927   4.693   3.098  17.704 -0.6496 -0.5741 -2.4940
 5244TIP3    H239928   4.673   2.970  17.782 -1.8812  0.5425 -0.8963
 5245TIP3   OH239929   5.181   0.815  14.797 -0.4367 -0.3355 -0.0781
 5245TIP3    H139930   5.101   0.863  14.773 -0.5169 -0.9368 -1.0468
 5245TIP3    H239931   5.156   0.723  14.792  0.7893 -0.6192 -2.2452
 5246TIP3   OH239932   3.843   0.512  15.326 -0.5967 -0.0522 -0.1104
 5246TIP3    H139933   3.796   0.465  15.258 -0.0146 -1.1777  0.2366
 5246TIP3    H239934   3.935   0.492  15.310 -0.5483 -2.4399  2.4311
 5247TIP3   OH239935   2.593   4.264  16.833 -0.2316 -0.8950 -0.2288
 5247TIP3    H139936   2.534   4.190  16.826 -0.1782 -0.8941 -0.6971
 5247TIP3    H239937   2.592   4.305  16.747  0.7923 -1.1579 -0.3876
 5248TIP3   OH239938   4.698   1.046  16.186  0.3965  0.6555 -0.7316
 5248TIP3    H139939   4.723   0.972  16.130 -0.5917 -1.2577  1.2024
 5248TIP3    H239940   4.764   1.112  16.169  0.8047 -0.2718 -3.2457
 5249TIP3   OH239941   0.979   4.816  15.799 -0.2357 -0.0969 -0.5532
 5249TIP3    H139942   1.020   4.892  15.757 -0.3386  1.0413  1.2898
 5249TIP3    H239943   1.053   4.768  15.836 -0.2578 -0.2936 -0.7641
 5250TIP3   OH239944   6.529   3.786  16.396  0.3346  0.0968  0.1275
 5250TIP3    H139945   6.549   3.874  16.428 -0.7820  0.3493  0.1639
 5250TIP3    H239946   6.495   3.800  16.307  0.9154 -0.3757 -0.1793
 5251TIP3   OH239947   3.233   0.375  17.176  0.1648  0.3715  0.1226
 5251TIP3    H139948   3.220   0.464  17.145 -0.8887  0.2716  0.2349
 5251TIP3    H239949   3.146   0.336  17.174  0.3855 -0.2429  1.3346
 5252TIP3   OH239950   1.389   3.245  16.438 -0.0837 -0.4556 -0.1407
 5252TIP3    H139951   1.348   3.274  16.519 -0.2106 -1.5869  0.2135
 5252TIP3    H239952   1.336   3.171  16.409 -1.4947  1.3475 -2.5359
 5253TIP3   OH239953   4.650   2.197  16.075 -0.5426  0.0368  0.5195
 5253TIP3    H139954   4.585   2.203  16.145 -1.1165 -1.2224  0.1296
 5253TIP3    H239955   4.651   2.105  16.051 -1.5357  0.6322 -2.2110
 5254TIP3   OH239956   2.785   6.333  17.428  0.0525 -0.4043  0.2385
 5254TIP3    H139957   2.870   6.319  17.386 -0.3308  1.0201 -1.1135
 5254TIP3    H239958   2.801   6.399  17.495 -0.2188  0.9934 -1.0231
 5255TIP3   OH239959   4.578   1.274  17.444  0.1679  0.8086  0.1081
 5255TIP3    H139960   4.492   1.312  17.427 -0.0923  0.1502 -0.0936
 5255TIP3    H239961   4.622   1.275  17.359 -1.1849 -2.6122 -0.8094
 5256TIP3   OH239962   0.663   5.154  15.223  0.6551  0.4431 -0.6480
 5256TIP3    H139963   0.683   5.121  15.311 -3.2467 -1.4096 -0.2127
 5256TIP3    H239964   0.667   5.076  15.167 -0.6979  0.7720 -1.2561
 5257TIP3   OH239965   0.433   1.429  16.766 -0.0785  0.3372 -0.7573
 5257TIP3    H139966   0.414   1.405  16.857 -1.6239  0.4920 -1.0070
 5257TIP3    H239967   0.524   1.401  16.752 -0.4327 -1.5080  0.2462
 5258TIP3   OH239968   3.058   5.289  16.286  0.0593  0.4902 -0.1953
 5258TIP3    H139969   3.102   5.206  16.305 -1.9003 -0.1964  1.8477
 5258TIP3    H239970   3.060   5.296  16.191  3.1176 -0.2165 -0.2834
 5259TIP3   OH239971   3.630   1.460  16.015 -0.5867  0.1492 -0.2032
 5259TIP3    H139972   3.543   1.427  15.993  0.0551 -1.1548 -0.8575
 5259TIP3    H239973   3.690   1.389  15.992  0.4772  0.0711  2.4545
 5260TIP3   OH239974   3.930   2.265  17.953 -0.8741 -0.1223  0.0459
 5260TIP3    H139975   3.880   2.256  18.034 -1.3624  1.6193 -0.0186
 5260TIP3    H239976   3.866   2.291  17.888 -0.2074  0.2255 -0.4870
 5261TIP3   OH239977   4.735   6.494  16.124 -0.6296  0.7161  0.4047
 5261TIP3    H139978   4.692   6.425  16.175 -0.7551 -1.8616 -2.8464
 5261TIP3    H239979   4.663   6.535  16.075 -0.1081  0.1087 -0.9265
 5262TIP3   OH239980   5.069   3.530  16.956 -0.1745 -0.1752 -0.3532
 5262TIP3    H139981   5.038   3.613  16.919  0.2513  0.2446  0.2107
 5262TIP3    H239982   4.994   3.471  16.948 -0.4582  0.2424 -0.8274
 5263TIP3   OH239983   2.405   2.980  18.033  0.2812  0.3019 -0.1220
 5263TIP3    H139984   2.317   3.017  18.038 -0.0213 -0.1689 -1.5671
 5263TIP3    H239985   2.462   3.053  18.059 -0.3296  1.7748 -2.5232
 5264TIP3   OH239986   3.061   3.911  16.979  0.1560  0.0647 -0.4855
 5264TIP3    H139987   3.119   3.979  16.946 -0.6833  1.1303  0.1705
 5264TIP3    H239988   3.017   3.877  16.901  1.3903 -0.5335 -0.9499
 5265TIP3   OH239989   3.587   3.000  14.946  0.2498  0.1601  0.0165
 5265TIP3    H139990   3.543   2.915  14.951 -0.0651  0.2585 -0.9146
 5265TIP3    H239991   3.663   2.991  15.003  0.0286 -0.6296  0.2031
 5266TIP3   OH239992   2.773   5.061  14.447 -0.1973 -0.0797  0.0863
 5266TIP3    H139993   2.869   5.055  14.446 -0.0268  1.6192 -1.9756
 5266TIP3    H239994   2.748   5.049  14.355 -2.1981 -2.5181  0.8411
 5267TIP3   OH239995   2.353   5.595  17.808  0.1302  0.0999  0.0217
 5267TIP3    H139996   2.391   5.535  17.744 -2.1154 -2.1303  0.5955
 5267TIP3    H239997   2.406   5.675  17.801  3.1359 -1.7990 -0.9958
 5268TIP3   OH239998   0.342   4.630  16.495  0.3850  0.3295  0.1528
 5268TIP3    H139999   0.406   4.562  16.516  0.2873  0.0759 -0.3551
 5268TIP3    H240000   0.282   4.631  16.570  1.6538  1.3985  1.1998
 5269TIP3   OH240001   2.114   3.086  18.011  0.3138  0.4828  0.0651
 5269TIP3    H140002   2.165   3.153  17.965  1.0713 -0.8640 -1.1472
 5269TIP3    H240003   2.060   3.045  17.943 -0.5386  0.2023  0.8805
 5270TIP3   OH240004   3.664   6.416  15.370  0.1815 -0.0867 -0.4510
 5270TIP3    H140005   3.708   6.470  15.435 -0.0078 -0.2413 -0.1912
 5270TIP3    H240006   3.612   6.478  15.318 -1.9979 -0.2289  1.3851
 5271TIP3   OH240007   1.700   4.148  16.591 -0.1487  0.0491  0.1686
 5271TIP3    H140008   1.775   4.120  16.644 -1.4959  1.9613  3.4184
 5271TIP3    H240009   1.728   4.229  16.550  0.0732 -0.0860  0.0537
 5272TIP3   OH240010   2.642   5.393  15.871 -0.3613 -0.2811  0.5274
 5272TIP3    H140011   2.663   5.321  15.811 -0.6029 -0.3232  0.4960
 5272TIP3    H240012   2.563   5.432  15.835 -0.9572 -0.7983  1.2578
 5273TIP3   OH240013   1.571   2.408  16.223 -0.0385  0.2553 -1.0007
 5273TIP3    H140014   1.496   2.466  16.206 -0.1063  0.5764  0.2869
 5273TIP3    H240015   1.572   2.398  16.318  0.9596 -0.5559 -1.0856
 5274TIP3   OH240016   2.285   6.683  15.222 -0.4307 -0.2414 -0.3007
 5274TIP3    H140017   2.374   6.665  15.253 -0.3789 -0.1774 -0.4107
 5274TIP3    H240018   2.273   6.624  15.148 -0.5948 -0.4714 -0.0902
 5275TIP3   OH240019   3.742   0.295  15.482  0.2938 -0.6867  0.1512
 5275TIP3    H140020   3.792   0.361  15.436 -0.2737  0.4795  1.1568
 5275TIP3    H240021   3.653   0.330  15.486  0.0787 -1.2929  1.0773
 5276TIP3   OH240022   3.699   5.477  17.327  0.1207 -0.7268  0.0444
 5276TIP3    H140023   3.784   5.432  17.324  0.3219 -0.4597  1.0939
 5276TIP3    H240024   3.638   5.418  17.284  0.6736 -1.3421  0.0994
 5277TIP3   OH240025   5.480   5.153  16.159  0.2293  0.6453  0.0115
 5277TIP3    H140026   5.406   5.115  16.113  0.6561  0.6046 -0.6591
 5277TIP3    H240027   5.497   5.236  16.113  1.7752 -0.2243 -1.0680
 5278TIP3   OH240028   0.626   4.292  14.761  0.1657  0.0764 -0.3152
 5278TIP3    H140029   0.658   4.238  14.689 -0.0083 -0.8544  0.2925
 5278TIP3    H240030   0.555   4.241  14.800 -1.2201  1.5247 -0.8249
 5279TIP3   OH240031   5.940   0.033  16.216 -0.4091  0.2263  0.5211
 5279TIP3    H140032   6.011   0.089  16.247  0.8598 -1.0578  0.0725
 5279TIP3    H240033   5.944  -0.044  16.272  0.3748 -1.0609 -1.1796
 5280TIP3   OH240034   3.602   4.051  16.186  0.4768  0.1829  0.2054
 5280TIP3    H140035   3.574   3.971  16.142  1.8832 -0.5328  0.5425
 5280TIP3    H240036   3.522   4.091  16.218 -0.1088 -2.2450  2.0066
 5281TIP3   OH240037   4.584   0.797  16.054  0.1712 -0.1030 -0.1494
 5281TIP3    H140038   4.569   0.840  16.138  1.0703 -0.9393  0.4690
 5281TIP3    H240039   4.509   0.739  16.042 -0.2025  0.3802 -0.1696
 5282TIP3   OH240040   1.770   3.646  16.925  0.0915  0.0720  0.2226
 5282TIP3    H140041   1.741   3.729  16.964 -0.1049  0.4075 -0.6207
 5282TIP3    H240042   1.723   3.641  16.842  0.9539 -0.3437 -0.2513
 5283TIP3   OH240043   5.159   1.272  15.945 -0.3543 -0.0192 -0.4629
 5283TIP3    H140044   5.102   1.296  15.872  1.3708  1.5064 -1.3699
 5283TIP3    H240045   5.126   1.322  16.019 -0.0244  1.1263 -1.0680
 5284TIP3   OH240046   2.135   5.319  13.855  0.2491  0.4369  0.3523
 5284TIP3    H140047   2.112   5.406  13.889  1.6498  0.7620  0.5402
 5284TIP3    H240048   2.057   5.267  13.868 -1.3228  2.1385 -1.4931
 5285TIP3   OH240049   5.990   5.558  14.839  0.2461  0.3938 -0.6179
 5285TIP3    H140050   5.898   5.539  14.856  0.7905 -1.3030  0.7547
 5285TIP3    H240051   6.031   5.561  14.926  1.7917 -0.7115 -1.2586
 5286TIP3   OH240052   0.494   5.169  16.705  0.1064 -0.1049 -0.1180
 5286TIP3    H140053   0.583   5.189  16.676 -0.4891  2.7806 -0.1976
 5286TIP3    H240054   0.447   5.146  16.625  0.7667 -1.7558 -0.0610
 5287TIP3   OH240055   3.078   3.131  17.579  0.0596  0.7033 -0.8423
 5287TIP3    H140056   3.171   3.115  17.561 -0.1847 -0.7426 -0.9625
 5287TIP3    H240057   3.061   3.217  17.542  1.4245  1.1405 -0.5364
 5288TIP3   OH240058   2.421   5.888  16.929  0.0091  0.1013  0.1921
 5288TIP3    H140059   2.499   5.835  16.946  0.3691  0.3863 -0.5177
 5288TIP3    H240060   2.453   5.978  16.929  0.1394  0.1180 -2.3004
 5289TIP3   OH240061   2.685   4.819  16.266 -0.3983  0.3343  0.2158
 5289TIP3    H140062   2.691   4.864  16.182  2.0188 -0.3579 -0.0659
 5289TIP3    H240063   2.687   4.726  16.243  0.0021  0.1379  1.0196
 5290TIP3   OH240064   3.320   0.368  14.951  0.1550  0.1388 -0.7880
 5290TIP3    H140065   3.289   0.431  15.016  2.0544  0.9561 -0.6099
 5290TIP3    H240066   3.382   0.417  14.897  0.8638 -1.2882 -1.3321
 5291TIP3   OH240067   5.932   2.723  15.236  0.0466 -0.2282 -0.4799
 5291TIP3    H140068   5.908   2.678  15.317  0.2559 -2.0543 -1.3693
 5291TIP3    H240069   5.859   2.706  15.177 -0.3338  1.5100 -0.5394
 5292TIP3   OH240070   4.134   3.114  17.155  0.3948  0.5353 -0.0990
 5292TIP3    H140071   4.046   3.149  17.143 -0.3838 -1.7881 -1.9356
 5292TIP3    H240072   4.185   3.151  17.083  0.2669 -0.0019 -0.4713
 5293TIP3   OH240073   1.435   4.548  16.367  0.1747 -0.1840  0.4929
 5293TIP3    H140074   1.377   4.504  16.305  1.1266 -1.1756  0.2810
 5293TIP3    H240075   1.391   4.540  16.451 -0.3238 -0.3170  0.2210
 5294TIP3   OH240076   5.481   3.243  14.811 -0.0522 -0.2550  0.0171
 5294TIP3    H140077   5.477   3.159  14.857 -1.1465 -1.0065 -1.3373
 5294TIP3    H240078   5.395   3.283  14.827  0.4084  0.5366  0.5263
 5295TIP3   OH240079   4.509   4.011  16.870 -0.0635  0.1049  0.1557
 5295TIP3    H140080   4.417   3.999  16.846 -0.8365 -0.5027  3.0557
 5295TIP3    H240081   4.507   4.039  16.962  2.6510  0.5858  0.1578
 5296TIP3   OH240082   6.239   3.274  18.024  0.4090 -0.6167 -0.2516
 5296TIP3    H140083   6.294   3.222  18.081  2.0563  0.3226 -0.9156
 5296TIP3    H240084   6.283   3.273  17.939  0.7142  2.0527 -0.2178
 5297TIP3   OH240085   5.190   4.844  17.243  1.1092 -0.5855  0.1652
 5297TIP3    H140086   5.270   4.804  17.209  0.9081 -1.0245  0.2115
 5297TIP3    H240087   5.143   4.876  17.166  0.9295 -1.0681  0.0740
 5298TIP3   OH240088   6.702   5.120  15.562 -0.5081  0.5846  0.4393
 5298TIP3    H140089   6.660   5.184  15.619 -2.2873  0.0573 -0.2028
 5298TIP3    H240090   6.631   5.087  15.506  0.9991  0.4835 -1.5345
 5299TIP3   OH240091   0.783   4.035  15.680  0.2018 -0.0026  0.1167
 5299TIP3    H140092   0.791   4.062  15.588  2.6622  0.9888  0.5520
 5299TIP3    H240093   0.872   4.039  15.714 -0.0575 -3.6223  1.7051
 5300TIP3   OH240094   3.921   1.305  17.836 -0.4675 -0.1278  0.0033
 5300TIP3    H140095   4.002   1.313  17.888  0.2163 -0.9149 -0.9086
 5300TIP3    H240096   3.899   1.395  17.812  0.0261  0.1142  0.4346
 5301TIP3   OH240097   1.770   2.027  18.008 -0.1627  0.2929 -0.3003
 5301TIP3    H140098   1.765   2.117  18.042 -0.2314  0.3540 -0.4692
 5301TIP3    H240099   1.708   2.026  17.934 -2.1689 -0.6171  1.2971
 5302TIP3   OH240100   0.013   3.361  16.347  0.3759  0.1555  0.4223
 5302TIP3    H140101  -0.046   3.421  16.394  0.4444 -0.2550  1.0416
 5302TIP3    H240102   0.002   3.277  16.391 -2.2701 -1.2332 -2.4922
 5303TIP3   OH240103   1.686   5.251  15.088 -0.5169 -0.7021 -0.2009
 5303TIP3    H140104   1.705   5.170  15.040 -0.5237  0.8970 -3.1235
 5303TIP3    H240105   1.759   5.260  15.149  1.0286 -1.4538 -1.8505
 5304TIP3   OH240106   1.581   0.439  17.584  0.3165 -0.4707  0.4756
 5304TIP3    H140107   1.662   0.445  17.633  2.2702 -0.2286 -2.5050
 5304TIP3    H240108   1.567   0.345  17.572  0.4669 -0.5026  0.5466
 5305TIP3   OH240109   3.625   5.988  15.671 -0.0567 -0.2915  0.7941
 5305TIP3    H140110   3.654   6.074  15.641 -1.9483  0.3031  0.4861
 5305TIP3    H240111   3.606   6.000  15.764 -0.5259 -0.2961  0.7039
 5306TIP3   OH240112   1.435   0.291  14.566  0.2983  0.3053  0.0122
 5306TIP3    H140113   1.522   0.295  14.525  0.4570  0.0873  0.3293
 5306TIP3    H240114   1.390   0.220  14.519 -0.1316  1.1978 -0.9630
 5307TIP3   OH240115   0.542   3.789  18.114  0.1600  0.1496 -0.2253
 5307TIP3    H140116   0.470   3.852  18.110  0.2968  0.2923 -0.3971
 5307TIP3    H240117   0.564   3.784  18.207 -0.3518 -0.2086 -0.1132
 5308TIP3   OH240118   4.158   5.240  18.068 -0.2837 -0.1690  0.2956
 5308TIP3    H140119   4.089   5.184  18.031 -0.1227 -1.0295  1.2307
 5308TIP3    H240120   4.111   5.317  18.100 -0.3919  0.7372 -1.8771
 5309TIP3   OH240121   0.827   6.002  17.725 -0.0016  0.3025 -0.2081
 5309TIP3    H140122   0.871   6.066  17.670  0.2751  0.8507  0.6433
 5309TIP3    H240123   0.735   6.005  17.697  0.1215  0.6499 -0.5670
 5310TIP3   OH240124   4.829   6.247  14.790  0.0568  0.1771  0.0593
 5310TIP3    H140125   4.842   6.276  14.699  0.9259 -1.7262 -0.4723
 5310TIP3    H240126   4.885   6.306  14.841  1.7859 -0.4745 -0.9749
 5311TIP3   OH240127   2.276   4.736  15.413 -0.0131  0.3335  0.5734
 5311TIP3    H140128   2.270   4.710  15.505 -0.6957 -0.7031  0.2497
 5311TIP3    H240129   2.369   4.738  15.394  0.1403  0.7599  1.3389
 5312TIP3   OH240130   3.673   0.460  15.117  0.5296  0.0274 -0.0410
 5312TIP3    H140131   3.677   0.426  15.028 -1.6805 -1.3560  0.3030
 5312TIP3    H240132   3.701   0.551  15.110 -0.9342  0.3742 -2.4334
 5313TIP3   OH240133   1.640   0.842  16.171 -0.4598  0.2404  0.1267
 5313TIP3    H140134   1.623   0.749  16.179  1.8961 -0.2102  0.4885
 5313TIP3    H240135   1.684   0.866  16.252  0.8055  1.1955 -0.8021
 5314TIP3   OH240136   1.128   6.537  16.182 -0.0889 -0.1209 -0.5523
 5314TIP3    H140137   1.045   6.525  16.230 -0.7635 -1.5464 -1.9915
 5314TIP3    H240138   1.192   6.559  16.250 -1.4588  0.1248  0.7067
 5315TIP3   OH240139   4.077   0.448  13.933  0.0876  0.2583 -0.3360
 5315TIP3    H140140   4.172   0.437  13.934 -0.0796 -1.3116  0.0695
 5315TIP3    H240141   4.062   0.522  13.992  0.8962 -1.2018  1.8659
 5316TIP3   OH240142   2.861   5.368  17.937  0.0081  0.3133  0.3356
 5316TIP3    H140143   2.883   5.461  17.943 -0.3738  0.3421  1.4549
 5316TIP3    H240144   2.818   5.359  17.852  0.5598  1.0437 -0.0332
 5317TIP3   OH240145   1.506   6.013  14.822  0.3756 -0.0376  0.0019
 5317TIP3    H140146   1.498   6.027  14.728  0.0663  1.3180  0.2087
 5317TIP3    H240147   1.597   6.031  14.842  0.2169  0.6676  0.1069
 5318TIP3   OH240148   4.445   3.657  17.377 -0.4087  0.2043 -0.3114
 5318TIP3    H140149   4.461   3.747  17.349 -1.3686  0.0902 -1.2581
 5318TIP3    H240150   4.508   3.605  17.326  2.2259  0.5292  2.3067
 5319TIP3   OH240151   4.104   4.977  16.560 -0.4469  0.3705 -0.3654
 5319TIP3    H140152   4.154   5.029  16.624 -0.6959  0.2716 -0.0862
 5319TIP3    H240153   4.018   5.020  16.557 -0.7992 -0.2723  0.1857
 5320TIP3   OH240154   1.678   1.600  17.759  0.0804 -0.5142 -0.5660
 5320TIP3    H140155   1.649   1.659  17.829 -1.7769  1.7771 -3.0263
 5320TIP3    H240156   1.771   1.621  17.747 -0.1942  0.9499 -0.4211
 5321TIP3   OH240157   1.269   0.241  15.502 -0.0199  0.3981 -0.4496
 5321TIP3    H140158   1.235   0.272  15.586  0.1304 -2.3673  0.7429
 5321TIP3    H240159   1.191   0.208  15.456  0.3874 -3.2152  1.0622
 5322TIP3   OH240160   6.581   6.076  16.879  0.3756 -0.1549  0.1234
 5322TIP3    H140161   6.662   6.036  16.850  0.3822  1.0388 -1.6225
 5322TIP3    H240162   6.512   6.021  16.841  0.3786  1.5820 -2.6661
 5323TIP3   OH240163   3.388   6.084  14.677 -0.1792 -0.0825 -0.1448
 5323TIP3    H140164   3.464   6.101  14.621  0.1107 -0.6250  0.0812
 5323TIP3    H240165   3.320   6.052  14.616  0.6535 -2.2800 -0.0011
 5324TIP3   OH240166   3.211   6.443  16.512 -0.3075  0.2998 -0.1293
 5324TIP3    H140167   3.154   6.520  16.518 -0.5517  0.4249 -2.7673
 5324TIP3    H240168   3.150   6.369  16.509 -0.2412  0.2712 -0.8616
 5325TIP3   OH240169   4.414   4.416  16.840 -0.2842  0.0375  0.0961
 5325TIP3    H140170   4.452   4.378  16.761  0.2292 -1.7278  1.1363
 5325TIP3    H240171   4.379   4.340  16.888 -3.1720  1.3249  0.2433
 5326TIP3   OH240172   2.812   0.840  17.840 -0.1636 -0.0923 -0.0323
 5326TIP3    H140173   2.771   0.837  17.926  0.6338 -0.9467  0.3376
 5326TIP3    H240174   2.886   0.900  17.851  1.0105 -1.5696  0.3898
 5327TIP3   OH240175   1.718   1.366  16.261 -0.0961  0.4665 -0.0978
 5327TIP3    H140176   1.686   1.316  16.336  1.4797 -0.6293 -0.0888
 5327TIP3    H240177   1.756   1.445  16.298 -0.2110  0.4036  0.1513
 5328TIP3   OH240178   0.502   3.498  18.122  0.2921 -0.4984 -0.0889
 5328TIP3    H140179   0.512   3.593  18.126 -0.1972 -0.3945 -0.9876
 5328TIP3    H240180   0.408   3.484  18.130  0.0554 -0.7101 -2.5586
 5329TIP3   OH240181   5.625   0.178  16.480  0.1186 -0.2139 -0.3839
 5329TIP3    H140182   5.611   0.269  16.454  0.0955 -0.3547 -0.8727
 5329TIP3    H240183   5.554   0.130  16.439 -0.3395 -0.3455  0.5338
 5330TIP3   OH240184   3.368   2.354  17.164  0.2436 -0.5195 -1.0676
 5330TIP3    H140185   3.379   2.290  17.234 -0.3961 -0.8109 -1.2268
 5330TIP3    H240186   3.416   2.431  17.194 -1.2215 -0.1101  0.3525
 5331TIP3   OH240187   4.491   4.336  17.221 -0.0260 -0.9132 -0.1811
 5331TIP3    H140188   4.481   4.389  17.301  0.2948 -0.6278 -0.3271
 5331TIP3    H240189   4.402   4.328  17.187 -0.2579 -1.6478  0.5922
 5332TIP3   OH240190   3.533   2.391  15.058  0.5373 -0.2772 -0.1853
 5332TIP3    H140191   3.580   2.308  15.065 -0.1467 -0.6122  0.5492
 5332TIP3    H240192   3.538   2.429  15.146 -0.3923 -0.2262 -0.1517
 5333TIP3   OH240193   5.905   5.620  17.733  0.0033  0.3776 -0.3999
 5333TIP3    H140194   5.860   5.652  17.655 -0.8582  0.3275  0.0568
 5333TIP3    H240195   5.905   5.524  17.723 -0.5003  0.3461 -0.1393
 5334TIP3   OH240196   2.128   0.988  14.597  0.7649 -0.4098 -0.4799
 5334TIP3    H140197   2.174   0.925  14.653  1.8220  2.1902  1.7945
 5334TIP3    H240198   2.190   1.006  14.526 -0.1418 -2.8977 -2.0362
 5335TIP3   OH240199   2.392   1.587  17.739 -0.0768 -0.3463 -0.8392
 5335TIP3    H140200   2.348   1.661  17.781  0.4157  0.8880 -2.3850
 5335TIP3    H240201   2.331   1.514  17.748 -0.7363  0.3237  0.4079
 5336TIP3   OH240202   1.772   5.442  16.326 -0.2450  0.2455  0.0343
 5336TIP3    H140203   1.715   5.433  16.403  0.0165 -0.5526  0.1348
 5336TIP3    H240204   1.798   5.534  16.328 -3.3992  1.3276 -1.3423
 5337TIP3   OH240205   2.068   2.420  17.195 -0.1474  0.3268  0.4042
 5337TIP3    H140206   2.018   2.362  17.137 -0.1014 -0.1060  0.7975
 5337TIP3    H240207   2.124   2.470  17.135 -0.0430 -0.1727  0.0805
 5338TIP3   OH240208   0.083   5.779  15.922  0.5711  0.0936  0.5606
 5338TIP3    H140209   0.117   5.718  15.988  0.5568 -0.6238 -0.0784
 5338TIP3    H240210  -0.010   5.787  15.943  0.3234 -1.0452 -0.0602
 5339TIP3   OH240211   3.916   3.313  17.145 -0.7078  0.2351  0.2121
 5339TIP3    H140212   3.965   3.333  17.225 -1.4655  2.2947  0.2201
 5339TIP3    H240213   3.829   3.290  17.176 -0.8241  0.4132  0.0176
 5340TIP3   OH240214   1.697   1.148  17.664  0.3704  0.0192 -0.1662
 5340TIP3    H140215   1.760   1.200  17.614  1.2928 -1.2191 -0.3467
 5340TIP3    H240216   1.707   1.178  17.754  1.2716 -0.1838 -0.1886
 5341TIP3   OH240217   3.338   4.678  15.938 -0.1823 -0.1013  0.5929
 5341TIP3    H140218   3.325   4.711  15.849  0.6128  0.2866  0.6133
 5341TIP3    H240219   3.319   4.585  15.931  2.4052 -0.6388 -0.6029
 5342TIP3   OH240220   4.483   1.273  15.780  0.1846 -0.0649 -0.0387
 5342TIP3    H140221   4.573   1.304  15.766 -0.4551  1.9861 -0.0318
 5342TIP3    H240222   4.466   1.214  15.707  2.0148 -1.7577  0.8028
 5343TIP3   OH240223   1.048   2.430  15.905  0.2008 -0.0839 -0.1135
 5343TIP3    H140224   0.958   2.441  15.875  0.8331  0.5891 -1.9355
 5343TIP3    H240225   1.074   2.344  15.873  0.7802  0.5053 -1.2962
 5344TIP3   OH240226   3.251   0.901  18.302  0.8160  0.3129  0.0635
 5344TIP3    H140227   3.336   0.914  18.342  0.8038  1.3271 -0.2117
 5344TIP3    H240228   3.245   0.969  18.235  0.2370 -0.4207 -0.6564
 5345TIP3   OH240229   3.974   3.151  15.563 -0.0237 -0.0134 -0.2991
 5345TIP3    H140230   4.037   3.209  15.606 -0.0868  0.0273 -0.2608
 5345TIP3    H240231   3.940   3.096  15.634  0.6457 -0.6624 -0.4699
 5346TIP3   OH240232   4.317   2.105  17.976  0.2890 -1.1229 -0.0185
 5346TIP3    H140233   4.401   2.117  17.931  0.2122 -0.6046 -0.0348
 5346TIP3    H240234   4.263   2.057  17.913  0.1174 -0.2328 -0.5709
 5347TIP3   OH240235   1.207   5.734  17.008  0.2315  0.4643 -0.0821
 5347TIP3    H140236   1.228   5.811  17.060  2.4273 -0.1565  0.0216
 5347TIP3    H240237   1.282   5.722  16.950 -0.5386 -0.9724 -0.8496
 5348TIP3   OH240238   1.123   5.636  16.253 -0.4238  0.0623 -0.0718
 5348TIP3    H140239   1.101   5.649  16.161 -1.3128 -0.2655  0.0880
 5348TIP3    H240240   1.094   5.716  16.297 -1.4074 -0.4009  0.1499
 5349TIP3   OH240241   0.776   2.589  15.727 -0.0084  0.3034  0.0216
 5349TIP3    H140242   0.782   2.495  15.711 -0.5466  0.4711 -1.3319
 5349TIP3    H240243   0.713   2.620  15.661 -1.5587  1.2748  1.8432
 5350TIP3   OH240244   1.050   1.217  15.186 -0.0586 -0.5153  0.6103
 5350TIP3    H140245   1.030   1.299  15.143 -3.1600 -1.4281  0.0709
 5350TIP3    H240246   1.045   1.237  15.280  2.2613  0.4673  0.6143
 5351TIP3   OH240247   5.537   5.946  17.748 -0.3963 -0.1984 -0.4275
 5351TIP3    H140248   5.443   5.954  17.734 -0.7720 -1.1358  1.2648
 5351TIP3    H240249   5.545   5.886  17.822  1.5215  0.2244 -0.2377
 5352TIP3   OH240250   5.499   4.836  17.812  0.1363  0.2447 -0.1432
 5352TIP3    H140251   5.562   4.894  17.769  0.5923  1.0152  1.5104
 5352TIP3    H240252   5.502   4.860  17.904 -1.8761 -0.3757  0.1363
 5353TIP3   OH240253   4.479   1.077  14.313  0.1299  0.5341  0.0867
 5353TIP3    H140254   4.397   1.079  14.363  0.3157  0.7562  0.3823
 5353TIP3    H240255   4.467   1.004  14.252  0.1249 -0.1093  0.8298
 5354TIP3   OH240256   1.843   1.558  14.435  0.5830  0.0731  0.3551
 5354TIP3    H140257   1.829   1.464  14.419  0.4904  0.4524 -2.4319
 5354TIP3    H240258   1.864   1.593  14.348 -1.1684  2.9270  0.9657
 5355TIP3   OH240259   0.569   2.677  16.693  0.0222 -0.3262 -0.1732
 5355TIP3    H140260   0.598   2.587  16.710 -2.3210 -1.2218 -0.5250
 5355TIP3    H240261   0.599   2.695  16.604 -0.0680 -1.0375 -0.3561
 5356TIP3   OH240262   0.012   2.025  14.876 -0.2665 -0.0657  0.4260
 5356TIP3    H140263   0.055   2.108  14.898 -0.8083  0.5003 -0.5840
 5356TIP3    H240264  -0.072   2.051  14.838 -0.6032 -1.0987  0.4372
 5357TIP3   OH240265   2.431   4.952  17.854 -0.4918  0.5882  0.0573
 5357TIP3    H140266   2.345   4.943  17.811 -0.6731  0.5028  0.4356
 5357TIP3    H240267   2.436   5.045  17.877 -0.0444  0.8077 -0.8675
 5358TIP3   OH240268   1.151   6.082  16.917 -0.3088 -0.0451  0.2221
 5358TIP3    H140269   1.120   6.121  16.999 -1.7883 -1.5507  0.4292
 5358TIP3    H240270   1.216   6.017  16.945 -2.3486 -2.1160  0.5013
 5359TIP3   OH240271   2.173   2.736  17.017 -0.1317  0.1597 -0.5668
 5359TIP3    H140272   2.147   2.712  17.106 -1.1577 -0.7269 -1.0776
 5359TIP3    H240273   2.173   2.654  16.969  3.0604  0.2091 -0.8155
 5360TIP3   OH240274   6.128   1.667  17.639  0.4041 -0.8904  0.3011
 5360TIP3    H140275   6.212   1.696  17.603  1.9543 -0.9430  3.4805
 5360TIP3    H240276   6.074   1.746  17.641  1.2537 -0.2955  0.3654
 5361TIP3   OH240277   0.225   1.161  17.639  0.4524 -0.2850 -0.5312
 5361TIP3    H140278   0.271   1.086  17.678  0.3253  1.3119  3.0602
 5361TIP3    H240279   0.132   1.142  17.652  0.4382  1.0889  1.9137
 5362TIP3   OH240280   1.423   1.129  17.019  0.7491 -0.6347 -0.5607
 5362TIP3    H140281   1.450   1.220  17.037 -1.7245  0.2177 -0.7513
 5362TIP3    H240282   1.466   1.078  17.088  1.8665  0.7171 -0.1947
 5363TIP3   OH240283   2.906   2.288  15.637  0.2184  0.0662  0.1225
 5363TIP3    H140284   2.883   2.274  15.545  0.8420  0.9120 -0.1719
 5363TIP3    H240285   2.831   2.253  15.686 -0.4278  0.2240 -0.7274
 5364TIP3   OH240286   4.501   5.299  15.547 -0.2607  0.4676  0.2281
 5364TIP3    H140287   4.519   5.284  15.640 -0.4184 -1.9596 -0.0744
 5364TIP3    H240288   4.579   5.345  15.515  2.5101 -3.4956  0.4961
 5365TIP3   OH240289   6.113   0.996  17.355 -0.2653  0.5916 -0.3073
 5365TIP3    H140290   6.163   0.954  17.425  0.5979  1.6518 -0.2600
 5365TIP3    H240291   6.125   0.938  17.279  1.7976  1.2071 -0.5389
 5366TIP3   OH240292   2.029   3.267  15.132  0.2231 -0.2604 -0.2079
 5366TIP3    H140293   2.089   3.217  15.077  0.7206  1.3743 -1.2276
 5366TIP3    H240294   1.963   3.204  15.159  0.4213 -1.3213 -2.0301
 5367TIP3   OH240295   4.265   3.962  15.369  0.0910 -0.2115  0.2218
 5367TIP3    H140296   4.210   3.950  15.292 -0.3022 -2.1396  0.7527
 5367TIP3    H240297   4.342   3.907  15.352 -0.3190 -1.2287  1.4509
 5368TIP3   OH240298   0.381   3.534  15.631  0.4653 -0.2475 -0.0460
 5368TIP3    H140299   0.292   3.527  15.665  0.4538 -0.0387 -0.0271
 5368TIP3    H240300   0.437   3.535  15.710  0.5027 -0.6259 -0.0672
 5369TIP3   OH240301   0.697   1.213  17.572 -0.6488  0.5217  0.1764
 5369TIP3    H140302   0.710   1.153  17.645  0.3255  1.6089  0.9327
 5369TIP3    H240303   0.733   1.296  17.602 -0.6365  1.1237 -1.3786
 5370TIP3   OH240304   5.637   2.952  17.572 -0.3959 -0.2721  0.9390
 5370TIP3    H140305   5.569   2.987  17.630 -1.0663  0.1336 -0.0746
 5370TIP3    H240306   5.592   2.935  17.489  0.7269 -0.0305  0.2578
 5371TIP3   OH240307   2.062   1.627  17.738 -0.2666 -0.0250  0.2894
 5371TIP3    H140308   2.119   1.559  17.701  0.2249 -0.2180  1.3511
 5371TIP3    H240309   2.110   1.708  17.725 -0.0840 -0.0963  0.5013
 5372TIP3   OH240310   4.231   6.144  14.940  0.3638 -0.1475  0.3983
 5372TIP3    H140311   4.251   6.088  14.865  0.6793  0.3472  0.1109
 5372TIP3    H240312   4.135   6.141  14.947  0.1455  1.3148 -1.2291
 5373TIP3   OH240313   0.681   4.397  16.786 -0.3200  0.3091 -0.4278
 5373TIP3    H140314   0.595   4.422  16.820  0.0400  0.4086  0.4214
 5373TIP3    H240315   0.743   4.453  16.833  0.1823  0.5698 -1.3678
 5374TIP3   OH240316   5.095   5.146  15.435 -0.3998  0.0460 -0.2779
 5374TIP3    H140317   5.066   5.222  15.385  0.3454  0.8783  0.5057
 5374TIP3    H240318   5.182   5.171  15.467  0.0742 -1.3491 -0.4323
 5375TIP3   OH240319   3.882   5.492  17.976  0.2429 -0.4601  0.3588
 5375TIP3    H140320   3.796   5.462  18.006 -1.2509  0.9185 -2.2011
 5375TIP3    H240321   3.896   5.445  17.894  0.6831  1.1920 -0.5652
 5376TIP3   OH240322   2.370   5.539  15.315 -0.0257  0.0256  0.0444
 5376TIP3    H140323   2.442   5.592  15.280  0.1345  1.2038  1.9887
 5376TIP3    H240324   2.413   5.462  15.351  0.4783  1.2396  2.1954
 5377TIP3   OH240325   1.485   4.677  15.058 -0.5033 -0.0002  0.0084
 5377TIP3    H140326   1.523   4.645  14.976  0.3560  0.4612  0.2138
 5377TIP3    H240327   1.511   4.612  15.123  2.1586  1.5623  0.6315
 5378TIP3   OH240328   3.146   3.390  15.510  0.0410  0.0368  0.1278
 5378TIP3    H140329   3.083   3.441  15.459 -0.0241  0.5530  0.7085
 5378TIP3    H240330   3.152   3.307  15.464 -2.5914 -0.8134  1.0968
 5379TIP3   OH240331   1.908   1.598  15.313  0.0586 -0.2067 -0.2661
 5379TIP3    H140332   1.981   1.661  15.316  0.2575 -0.3297 -1.6346
 5379TIP3    H240333   1.939   1.523  15.363  0.4699  0.1414  0.0120
 5380TIP3   OH240334   0.420   1.867  14.936  0.1473 -0.3875  0.3503
 5380TIP3    H140335   0.406   1.962  14.940  1.2208 -0.0768 -1.7417
 5380TIP3    H240336   0.365   1.838  14.864  1.7665 -0.8783 -0.7580
 5381TIP3   OH240337   6.456   4.332  16.689  0.2676 -0.1209  0.0794
 5381TIP3    H140338   6.527   4.269  16.703  1.7450  0.9213 -2.1694
 5381TIP3    H240339   6.377   4.279  16.678  1.0731 -1.4297  0.5214
 5382TIP3   OH240340   0.199   0.703  15.462  0.3297 -0.1621 -0.0279
 5382TIP3    H140341   0.217   0.790  15.496  0.5546 -0.7907  1.5483
 5382TIP3    H240342   0.126   0.671  15.515  0.6789 -1.1731 -0.1270
 5383TIP3   OH240343   0.089   2.286  17.691  0.0198 -0.2163  0.3989
 5383TIP3    H140344   0.005   2.240  17.684 -0.2869  0.2518  0.9019
 5383TIP3    H240345   0.104   2.293  17.785  0.0688  0.6863  0.3289
 5384TIP3   OH240346   4.915   2.588  18.057  0.1486 -0.3193  0.0702
 5384TIP3    H140347   4.994   2.637  18.080 -0.5884  0.7617  0.4259
 5384TIP3    H240348   4.909   2.595  17.962 -0.6320  1.4730  0.2005
 5385TIP3   OH240349   1.081   3.257  17.940 -0.1642 -0.1365 -0.1224
 5385TIP3    H140350   1.160   3.302  17.970 -1.9247  0.4340  4.6149
 5385TIP3    H240351   1.110   3.168  17.921  1.9823  0.7302 -1.2631
 5386TIP3   OH240352   5.819   4.580  16.140  0.1227 -0.3204 -0.0954
 5386TIP3    H140353   5.783   4.524  16.209 -2.9243 -2.3737 -3.0485
 5386TIP3    H240354   5.778   4.665  16.154 -0.8595 -0.8510  0.3169
 5387TIP3   OH240355   5.488   0.126  15.410 -0.2134 -0.6281 -0.5660
 5387TIP3    H140356   5.541   0.061  15.364  0.6673 -0.0842 -0.3597
 5387TIP3    H240357   5.471   0.193  15.344  0.2699 -0.2925 -0.3595
 5388TIP3   OH240358   6.709   3.133  16.918  0.2005  0.1342  0.2140
 5388TIP3    H140359   6.789   3.080  16.926 -0.2452 -0.4683  0.8460
 5388TIP3    H240360   6.641   3.069  16.897  0.0356  0.7659 -1.3031
 5389TIP3   OH240361   1.781   4.450  15.780 -0.3785 -0.2140  0.0089
 5389TIP3    H140362   1.706   4.508  15.767  0.3680  0.5161 -1.2060
 5389TIP3    H240363   1.808   4.465  15.870 -2.0815 -0.9823  0.6907
 5390TIP3   OH240364   5.481   2.961  15.580  0.4564  0.1202 -1.0006
 5390TIP3    H140365   5.386   2.951  15.571  0.1854  1.2690  0.2991
 5390TIP3    H240366   5.513   2.873  15.600 -0.6942  0.1500  1.2345
 5391TIP3   OH240367   6.552   4.801   7.762  0.0947  0.1717  0.0131
 5391TIP3    H140368   6.602   4.797   7.843  0.3630  1.1305 -0.1022
 5391TIP3    H240369   6.522   4.711   7.749 -0.6080  0.1450  1.5809
 5392TIP3   OH240370   2.120   4.954   6.644 -0.1449  0.5575 -0.1792
 5392TIP3    H140371   2.039   4.918   6.608  0.2312  1.6073 -2.2221
 5392TIP3    H240372   2.190   4.909   6.596  0.4927  0.3110  0.9263
 5393TIP3   OH240373   3.524   1.803   6.481 -0.4242  0.1302 -0.1097
 5393TIP3    H140374   3.520   1.898   6.489 -1.2619 -0.0423  2.8960
 5393TIP3    H240375   3.474   1.770   6.556  2.7729 -2.6695  1.0798
 5394TIP3   OH240376   3.044   4.768   6.523 -0.6396  0.1019 -0.8439
 5394TIP3    H140377   2.960   4.722   6.524  0.1843 -1.5214  1.2744
 5394TIP3    H240378   3.021   4.859   6.542 -1.8505 -0.6468  1.7454
 5395TIP3   OH240379   3.327   4.291   8.797  0.5053  0.0081 -0.5333
 5395TIP3    H140380   3.288   4.209   8.767 -0.3642 -1.4576  3.9038
 5395TIP3    H240381   3.259   4.357   8.783 -1.7209 -1.5086  2.1837
 5396TIP3   OH240382   5.159   6.008   8.119 -1.0137  0.2302 -0.3487
 5396TIP3    H140383   5.176   6.088   8.168  1.0505 -1.1689  1.4404
 5396TIP3    H240384   5.239   5.995   8.067 -0.1371 -1.9210  1.3755
 5397TIP3   OH240385   4.970   3.352   7.025  0.1178  0.2363 -0.0899
 5397TIP3    H140386   4.933   3.320   7.107  0.2726  0.3551  0.0243
 5397TIP3    H240387   5.007   3.437   7.046 -0.5754  0.6418 -0.4658
 5398TIP3   OH240388   0.994   1.218   6.822  0.3018  0.0638  0.0236
 5398TIP3    H140389   1.045   1.147   6.783 -0.0328  0.0576 -0.4062
 5398TIP3    H240390   1.059   1.286   6.843  1.0236 -1.3055  2.7221
 5399TIP3   OH240391   4.116   4.437   8.429  0.2179  0.0092  0.4861
 5399TIP3    H140392   4.084   4.347   8.421  0.7675 -0.0904 -0.7350
 5399TIP3    H240393   4.048   4.490   8.388 -1.0933  0.4145  2.9476
 5400TIP3   OH240394   3.780   0.513   7.681 -0.0660 -0.1412 -0.5303
 5400TIP3    H140395   3.733   0.546   7.604 -0.8663  3.9567  1.4196
 5400TIP3    H240396   3.711   0.477   7.737 -0.2501  1.1995  0.1587
 5401TIP3   OH240397   1.427   6.298   6.436 -0.3251 -0.1434 -0.5990
 5401TIP3    H140398   1.381   6.309   6.519  0.2409  1.2751 -0.4500
 5401TIP3    H240399   1.421   6.384   6.394 -0.3755 -0.7701 -1.9134
 5402TIP3   OH240400   5.318   2.299   7.097 -0.1671  0.1642 -0.0419
 5402TIP3    H140401   5.248   2.260   7.045  0.1246  0.7644 -0.9190
 5402TIP3    H240402   5.396   2.290   7.042  0.3205  0.0861  0.6473
 5403TIP3   OH240403   2.231   2.808   9.189 -0.4271 -0.7348  0.2031
 5403TIP3    H140404   2.137   2.827   9.189 -0.0830  1.2716 -1.6595
 5403TIP3    H240405   2.273   2.893   9.195  1.2829 -1.5109 -0.2133
 5404TIP3   OH240406   4.700   3.654   7.832 -0.5045  0.5450  0.0701
 5404TIP3    H140407   4.609   3.679   7.848 -0.2022  2.5045 -0.9457
 5404TIP3    H240408   4.695   3.564   7.800 -2.1320  0.7504 -0.3615
 5405TIP3   OH240409   0.699   2.642   8.503  0.5155  0.7700 -0.2854
 5405TIP3    H140410   0.683   2.662   8.410  1.5645 -2.8240 -1.3938
 5405TIP3    H240411   0.612   2.645   8.543 -0.6365 -1.3862 -2.3226
 5406TIP3   OH240412   1.680   3.180   7.323 -0.5407  0.6224  0.4151
 5406TIP3    H140413   1.619   3.181   7.396 -0.0364 -0.3118  0.8510
 5406TIP3    H240414   1.761   3.217   7.358 -0.4971  0.8000  0.1383
 5407TIP3   OH240415   5.869   2.902   9.986  0.5395  0.0583 -0.2702
 5407TIP3    H140416   5.788   2.853  10.000  0.1349  0.3278 -1.5663
 5407TIP3    H240417   5.936   2.852  10.033 -0.3404 -0.2414  0.6986
 5408TIP3   OH240418   2.485   6.559   9.702 -0.3108 -0.2444  0.0269
 5408TIP3    H140419   2.406   6.608   9.726 -1.8790 -2.7260  0.2963
 5408TIP3    H240420   2.557   6.617   9.726 -1.9733  0.8353  2.9254
 5409TIP3   OH240421   0.385   0.626   8.927 -0.2873 -0.2845 -0.3167
 5409TIP3    H140422   0.477   0.625   8.901  0.2536 -0.7062  1.5296
 5409TIP3    H240423   0.344   0.562   8.869  0.4054  0.4229 -1.6542
 5410TIP3   OH240424   2.328   1.273   6.640 -0.1039  0.1831  0.1290
 5410TIP3    H140425   2.285   1.322   6.570  1.2106  0.2314 -0.6827
 5410TIP3    H240426   2.260   1.261   6.707 -1.2800  0.4916 -0.9704
 5411TIP3   OH240427   3.048   4.870   8.952  0.0566  0.2823 -0.0954
 5411TIP3    H140428   3.106   4.934   8.910 -1.2552  1.1506 -0.6671
 5411TIP3    H240429   3.006   4.919   9.024  0.3725 -0.4619  0.6144
 5412TIP3   OH240430   0.113   5.237   7.230  0.0199 -0.4147  0.2385
 5412TIP3    H140431   0.039   5.178   7.245 -0.3615 -0.1792 -0.6300
 5412TIP3    H240432   0.124   5.236   7.134  0.0490  0.8778  0.2205
 5413TIP3   OH240433   0.390   3.993   7.728 -0.4157  0.2042 -0.2177
 5413TIP3    H140434   0.418   3.908   7.764  0.1353 -0.0529 -1.2237
 5413TIP3    H240435   0.323   3.970   7.664 -0.8632  0.6045  0.1028
 5414TIP3   OH240436   0.950   0.184   7.947 -0.0126 -0.0508  0.5949
 5414TIP3    H140437   0.951   0.092   7.973  0.2798 -0.4372 -0.6925
 5414TIP3    H240438   0.902   0.185   7.864  2.2974  0.5142 -0.8320
 5415TIP3   OH240439   1.777   4.312   8.543 -0.7836 -0.4300  0.1058
 5415TIP3    H140440   1.780   4.265   8.627  1.8795 -1.8703 -0.6623
 5415TIP3    H240441   1.711   4.266   8.492 -1.6255 -0.2420  0.9811
 5416TIP3   OH240442   2.488   1.242   6.411  0.2178  0.5564  0.3387
 5416TIP3    H140443   2.452   1.260   6.497  0.4962  1.9395  0.1894
 5416TIP3    H240444   2.413   1.212   6.359 -0.0101  0.0230  0.9638
 5417TIP3   OH240445   4.331   3.761   9.961  0.5662 -0.4970 -0.1620
 5417TIP3    H140446   4.341   3.709  10.041 -1.9795  1.2429  1.4440
 5417TIP3    H240447   4.365   3.848   9.985 -1.1494  0.3277 -0.5355
 5418TIP3   OH240448   2.787   2.950   7.063 -0.1869  0.0246 -0.6340
 5418TIP3    H140449   2.832   2.886   7.118 -1.0303 -0.0101  0.0292
 5418TIP3    H240450   2.806   2.922   6.973  0.7604 -0.2236 -0.3686
 5419TIP3   OH240451   6.502   5.127   8.688 -0.0792  0.1628 -0.2076
 5419TIP3    H140452   6.543   5.157   8.769  1.6323 -1.2840 -0.4928
 5419TIP3    H240453   6.429   5.188   8.675  0.0395  0.8766  2.0159
 5420TIP3   OH240454   4.481   6.260   7.372 -0.9355  0.1247  0.2291
 5420TIP3    H140455   4.407   6.210   7.338 -2.2335  0.9736  1.6738
 5420TIP3    H240456   4.441   6.332   7.420  0.8575  1.7381 -0.5584
 5421TIP3   OH240457   6.541   3.779   7.523 -0.2528  0.1563 -0.7247
 5421TIP3    H140458   6.603   3.832   7.474 -0.2361 -0.4799 -1.4059
 5421TIP3    H240459   6.471   3.760   7.461 -0.1305 -0.8365 -0.5850
 5422TIP3   OH240460   5.022   2.684   9.553 -0.0529 -0.2249 -0.0371
 5422TIP3    H140461   4.947   2.744   9.560 -0.7712 -1.0160 -0.6975
 5422TIP3    H240462   5.092   2.738   9.516 -0.6481  0.2476 -0.5123
 5423TIP3   OH240463   6.099   4.281   7.199 -0.3786  0.3392  0.1228
 5423TIP3    H140464   6.025   4.221   7.202 -0.4747  0.4579  0.1584
 5423TIP3    H240465   6.151   4.259   7.276 -0.4854  0.3923  0.2109
 5424TIP3   OH240466   2.880   5.950   8.932 -0.5417  0.4867  0.3877
 5424TIP3    H140467   2.905   5.859   8.915  1.5958  0.9967  0.5433
 5424TIP3    H240468   2.870   5.955   9.027 -1.3498  0.2695  0.3209
 5425TIP3   OH240469   3.746   1.747   6.296 -0.6853 -0.0771 -0.0094
 5425TIP3    H140470   3.738   1.653   6.308 -0.3257 -0.0864  0.1551
 5425TIP3    H240471   3.666   1.783   6.335 -0.1086 -0.1982  1.3575
 5426TIP3   OH240472   4.305   4.598   6.925  0.1741  0.0813 -0.3660
 5426TIP3    H140473   4.315   4.552   7.008  3.4878 -1.6342 -1.5304
 5426TIP3    H240474   4.218   4.573   6.893 -0.2256 -1.0670  1.5178
 5427TIP3   OH240475   4.207   5.524   7.909 -0.0090  0.3235  0.3932
 5427TIP3    H140476   4.218   5.499   7.817  1.6850 -2.0481  1.1511
 5427TIP3    H240477   4.286   5.574   7.930 -0.2810  0.6540  0.6386
 5428TIP3   OH240478   3.584   3.129   7.323  0.4141 -0.0920 -0.2996
 5428TIP3    H140479   3.513   3.120   7.259  0.6162 -1.0852 -0.3948
 5428TIP3    H240480   3.590   3.223   7.338 -1.4165 -0.0286  0.2682
 5429TIP3   OH240481   4.300   3.680   8.282 -0.0338 -0.3775  0.6598
 5429TIP3    H140482   4.282   3.738   8.208 -0.9330 -2.7212 -1.0855
 5429TIP3    H240483   4.336   3.738   8.350  0.4823  1.9421 -1.4404
 5430TIP3   OH240484   6.089   2.145   7.038 -0.0412 -0.2329  0.3274
 5430TIP3    H140485   6.035   2.072   7.070  0.6384 -0.5411  0.8014
 5430TIP3    H240486   6.042   2.223   7.067 -0.1219 -0.4985  0.9347
 5431TIP3   OH240487   1.601   2.879   7.769 -0.3982 -0.2766 -0.1456
 5431TIP3    H140488   1.594   2.796   7.817 -1.3355  1.3273  2.7864
 5431TIP3    H240489   1.513   2.894   7.734 -0.1487 -0.6544 -0.9434
 5432TIP3   OH240490   1.281   5.878   6.831 -0.0638 -0.1611 -0.4533
 5432TIP3    H140491   1.315   5.847   6.915  0.3123  0.1787 -0.4788
 5432TIP3    H240492   1.185   5.872   6.840 -0.1322  1.9006  0.8025
 5433TIP3   OH240493   1.336   5.043   8.043 -0.1285 -0.1363 -0.0053
 5433TIP3    H140494   1.300   4.957   8.024 -0.3005 -0.0188 -0.2231
 5433TIP3    H240495   1.412   5.050   7.986 -0.7048  0.2581 -0.7574
 5434TIP3   OH240496   0.057   1.244   9.555 -0.0180  0.1970  0.0340
 5434TIP3    H140497   0.004   1.173   9.589 -0.1940  0.8616  1.1876
 5434TIP3    H240498   0.147   1.212   9.563 -0.1035  0.0407  0.4074
 5435TIP3   OH240499   3.882   5.163   6.502 -0.1365 -0.7637  0.2923
 5435TIP3    H140500   3.840   5.199   6.580 -2.7759 -0.7364 -1.0187
 5435TIP3    H240501   3.890   5.237   6.442 -0.2755 -1.2153 -0.2977
 5436TIP3   OH240502   3.989   6.462   7.013 -0.1656 -0.2484  0.3947
 5436TIP3    H140503   3.930   6.477   7.087  0.0704 -0.1569  0.5636
 5436TIP3    H240504   4.037   6.544   7.003  0.2080 -0.4555  0.4998
 5437TIP3   OH240505   0.692   3.009   8.215  0.3206  0.4856  0.4728
 5437TIP3    H140506   0.788   3.008   8.213  0.3255  1.0078  0.4104
 5437TIP3    H240507   0.671   3.069   8.286  0.0365 -0.0616  0.8630
 5438TIP3   OH240508   4.132   6.535   8.975 -0.3092  0.5935  0.1665
 5438TIP3    H140509   4.106   6.479   8.902  0.4612 -0.2179  0.4996
 5438TIP3    H240510   4.061   6.598   8.983 -0.8831  0.0724 -0.6374
 5439TIP3   OH240511   0.303   3.682   6.783 -0.3469 -0.4245  0.0763
 5439TIP3    H140512   0.300   3.586   6.777 -2.2414 -0.3689 -0.5877
 5439TIP3    H240513   0.306   3.711   6.692 -1.2811  0.1558  0.2184
 5440TIP3   OH240514   0.310   0.923   8.098  0.2258  0.3729 -0.0687
 5440TIP3    H140515   0.318   0.992   8.032 -0.9762  1.3047  0.7110
 5440TIP3    H240516   0.307   0.970   8.181 -0.4485 -0.6237  0.4915
 5441TIP3   OH240517   1.392   3.915   8.011  0.4171 -0.0660  0.3119
 5441TIP3    H140518   1.376   3.837   7.958  1.2510  0.0709 -0.1582
 5441TIP3    H240519   1.433   3.881   8.091 -1.3404 -0.3281  1.1384
 5442TIP3   OH240520   1.626   3.173   6.922  0.2119  0.3988  0.3118
 5442TIP3    H140521   1.717   3.200   6.931  0.2848  0.5766 -0.7756
 5442TIP3    H240522   1.577   3.236   6.976  0.7643 -0.0485  1.3641
 5443TIP3   OH240523   4.926   5.470   6.858 -0.2310 -0.4141  0.0997
 5443TIP3    H140524   4.968   5.384   6.863  1.3874  0.3245 -0.2508
 5443TIP3    H240525   4.833   5.452   6.875  0.1336 -2.1639  0.4571
 5444TIP3   OH240526   4.961   6.509   9.558  0.4705  0.5196  0.2545
 5444TIP3    H140527   4.933   6.422   9.587 -3.5119  0.8888 -1.8008
 5444TIP3    H240528   4.964   6.561   9.639 -2.1609 -0.3917  1.0374
 5445TIP3   OH240529   2.361   6.029   7.291  0.5094 -0.0270 -0.1070
 5445TIP3    H140530   2.286   6.085   7.273  0.7394  0.5883  0.7975
 5445TIP3    H240531   2.379   5.985   7.208 -0.5689  0.1533 -0.4470
 5446TIP3   OH240532   2.708   3.767   9.375  0.2822  0.1951  0.1675
 5446TIP3    H140533   2.734   3.858   9.363  2.6647 -0.3693  0.6575
 5446TIP3    H240534   2.764   3.717   9.316 -0.3169 -1.0585  0.6163
 5447TIP3   OH240535   0.038   2.090   9.165 -0.0836 -0.0624 -0.2730
 5447TIP3    H140536  -0.049   2.064   9.197  0.7209 -3.5232 -0.5190
 5447TIP3    H240537   0.035   2.186   9.163 -3.0927  0.0322  1.8826
 5448TIP3   OH240538   4.172   2.600   6.852  0.4262  0.3472 -0.1246
 5448TIP3    H140539   4.216   2.562   6.776 -0.0462 -2.4096  0.8487
 5448TIP3    H240540   4.242   2.646   6.899  1.6360 -1.2939 -0.2239
 5449TIP3   OH240541   5.243   2.943   7.071 -0.0443  0.1356  0.2205
 5449TIP3    H140542   5.314   2.881   7.084 -0.8281 -0.8199  0.0813
 5449TIP3    H240543   5.167   2.901   7.111 -0.5689  1.0683  0.2436
 5450TIP3   OH240544   4.989   0.555   6.819 -0.0775  0.7864 -0.2145
 5450TIP3    H140545   4.978   0.460   6.819 -0.2324  0.8047 -0.1139
 5450TIP3    H240546   5.064   0.571   6.876 -0.0083  0.7197 -0.2868
 5451TIP3   OH240547   3.969   0.095   7.951  0.2263  0.1011 -0.0535
 5451TIP3    H140548   3.937   0.016   7.994  1.4427 -0.6545 -0.4574
 5451TIP3    H240549   4.051   0.067   7.909  1.0420  1.7454  0.3709
 5452TIP3   OH240550   2.917   1.448   6.807  0.3056  0.1486  0.1376
 5452TIP3    H140551   2.898   1.359   6.835  0.7150  0.4053  1.2823
 5452TIP3    H240552   2.884   1.452   6.717 -1.1435 -0.6888  0.5847
 5453TIP3   OH240553   0.529   2.420   7.182 -0.2631 -0.4327  0.5607
 5453TIP3    H140554   0.534   2.359   7.108 -0.7438  1.0879 -0.7867
 5453TIP3    H240555   0.483   2.497   7.147 -0.7104  0.2539  2.5140
 5454TIP3   OH240556   0.189   5.183   8.388  0.0422 -0.1224 -0.7145
 5454TIP3    H140557   0.108   5.197   8.340 -0.7790 -1.0948  0.3462
 5454TIP3    H240558   0.163   5.139   8.469  1.4659  0.7958  0.3060
 5455TIP3   OH240559   3.933   0.873   8.784  0.2941 -0.1248 -1.0481
 5455TIP3    H140560   3.906   0.784   8.764  1.1358 -0.5203 -0.4971
 5455TIP3    H240561   3.947   0.873   8.879 -1.2579  1.0323 -0.7887
 5456TIP3   OH240562   3.722   3.658   9.041 -0.4372  0.1510 -0.3574
 5456TIP3    H140563   3.753   3.659   9.132 -1.4184 -0.0063 -0.0014
 5456TIP3    H240564   3.712   3.750   9.018 -5.3556  0.4223  1.6168
 5457TIP3   OH240565   0.454   2.676   9.171  0.3238 -0.0221 -0.1666
 5457TIP3    H140566   0.450   2.728   9.091 -0.8343 -1.0904 -0.8350
 5457TIP3    H240567   0.476   2.739   9.240  0.9145  0.9824 -1.2499
 5458TIP3   OH240568   2.619   3.611   6.619 -0.2377  0.0158 -0.2756
 5458TIP3    H140569   2.694   3.614   6.559  0.4041 -1.8352  0.3605
 5458TIP3    H240570   2.613   3.699   6.654  2.2764  0.0100  0.3787
 5459TIP3   OH240571   6.473   2.717  10.697  0.3686  0.2548  0.1737
 5459TIP3    H140572   6.487   2.764  10.614 -1.1693  0.6625  0.1244
 5459TIP3    H240573   6.558   2.676  10.715  1.6266  2.5305 -0.0970
 5460TIP3   OH240574   4.168   2.576   7.793  0.3896  0.2200  0.0544
 5460TIP3    H140575   4.205   2.544   7.711  1.6763 -0.5409  0.8930
 5460TIP3    H240576   4.165   2.500   7.850  0.3802  0.9110  1.0135
 5461TIP3   OH240577   0.316   0.727   6.667  0.8309 -0.2195  0.2890
 5461TIP3    H140578   0.291   0.651   6.614  0.7140 -0.5941  0.8690
 5461TIP3    H240579   0.358   0.787   6.605  0.6685 -0.6324 -0.2299
 5462TIP3   OH240580   1.433   3.583   8.741  0.5623  0.1229 -0.2698
 5462TIP3    H140581   1.506   3.644   8.749 -1.1808  2.2372  0.6595
 5462TIP3    H240582   1.427   3.565   8.647 -0.0505  3.0327 -0.8688
 5463TIP3   OH240583   0.414   4.562   7.651  0.2254  0.0885 -0.0819
 5463TIP3    H140584   0.464   4.639   7.623 -0.7179  0.9081  0.4126
 5463TIP3    H240585   0.453   4.537   7.734 -0.0657  0.6198  0.2196
 5464TIP3   OH240586   3.419   4.414   9.294  0.5906 -0.2457  0.5070
 5464TIP3    H140587   3.467   4.451   9.368  1.5433 -1.6573  0.6326
 5464TIP3    H240588   3.329   4.444   9.306  1.1718  1.3616  0.9987
 5465TIP3   OH240589   5.704   4.030   8.442  0.0933  0.0764  0.0819
 5465TIP3    H140590   5.772   3.962   8.443 -0.3465 -0.3677  0.4195
 5465TIP3    H240591   5.657   4.017   8.524 -0.0270  0.7610  0.1204
 5466TIP3   OH240592   4.744   2.308   8.360 -0.5242 -0.1585  0.4405
 5466TIP3    H140593   4.772   2.369   8.428  2.9298 -0.4587 -0.5666
 5466TIP3    H240594   4.782   2.341   8.279 -2.3732 -1.2292 -0.9534
 5467TIP3   OH240595   4.674   2.814   8.863 -0.1742  0.0034 -0.3321
 5467TIP3    H140596   4.693   2.725   8.893 -1.7346 -0.4677 -0.6690
 5467TIP3    H240597   4.758   2.860   8.871  1.1366 -1.9532 -1.8674
 5468TIP3   OH240598   5.811   3.357   8.112  0.0237  0.5100  0.1362
 5468TIP3    H140599   5.903   3.345   8.133  0.6744  1.6649 -1.8010
 5468TIP3    H240600   5.773   3.270   8.120  1.5647 -0.2333 -0.3116
 5469TIP3   OH240601   5.435   6.354   7.812 -0.0306 -0.3559 -0.1874
 5469TIP3    H140602   5.382   6.275   7.808 -0.0529 -0.3564  0.1181
 5469TIP3    H240603   5.526   6.323   7.812 -0.0089 -0.3389 -1.2041
 5470TIP3   OH240604   1.248   3.149   6.829 -0.4348 -0.2887  0.0577
 5470TIP3    H140605   1.283   3.069   6.789  0.9388  1.2692 -2.1187
 5470TIP3    H240606   1.177   3.176   6.770  0.8628  1.4423 -0.8160
 5471TIP3   OH240607   6.296   1.730   7.972  0.2936  0.2236  0.1485
 5471TIP3    H140608   6.341   1.772   7.898  1.2012  0.4146  0.7992
 5471TIP3    H240609   6.208   1.768   7.970  0.6975  1.1921 -0.0636
 5472TIP3   OH240610   6.054   5.601   7.158 -0.2358 -0.0691  0.0700
 5472TIP3    H140611   5.985   5.550   7.200  0.4344 -0.5843  0.5637
 5472TIP3    H240612   6.056   5.683   7.206  0.5074 -0.6455  1.0520
 5473TIP3   OH240613   0.215   2.476   7.019 -0.2509  0.1890 -0.7341
 5473TIP3    H140614   0.285   2.509   6.963 -0.2741  0.4013 -0.6390
 5473TIP3    H240615   0.229   2.520   7.103  0.8817 -1.4911  0.0062
 5474TIP3   OH240616   4.771   4.774   7.913 -0.5686  0.2663 -0.6399
 5474TIP3    H140617   4.786   4.727   7.994 -2.5273  0.4131 -0.1386
 5474TIP3    H240618   4.766   4.705   7.846  0.8777  0.1349 -0.6412
 5475TIP3   OH240619   3.938   1.654   7.941 -0.1478 -0.6394 -0.2004
 5475TIP3    H140620   3.880   1.580   7.961  0.5033 -0.7618  1.4292
 5475TIP3    H240621   4.017   1.636   7.991 -0.9050  2.4356  2.4503
 5476TIP3   OH240622   5.346   1.391   7.440 -0.0319  0.0017 -0.4178
 5476TIP3    H140623   5.308   1.478   7.455  1.1378  0.4050  0.3080
 5476TIP3    H240624   5.428   1.391   7.489  0.9790 -0.8010 -1.9915
 5477TIP3   OH240625   3.076   1.124   6.613  0.3886 -0.5325  0.0516
 5477TIP3    H140626   3.112   1.046   6.654 -0.2126 -0.6236  0.4152
 5477TIP3    H240627   3.066   1.100   6.521  1.1669 -0.5294 -0.0460
 5478TIP3   OH240628   1.959   0.738   6.405 -0.2589  0.0412 -0.8467
 5478TIP3    H140629   1.953   0.819   6.455 -0.9182 -0.8138  0.5283
 5478TIP3    H240630   2.043   0.700   6.431 -0.0776  0.1305 -1.2829
 5479TIP3   OH240631   0.081   2.083   9.440 -0.1647 -0.9576 -0.0625
 5479TIP3    H140632   0.082   2.013   9.375  1.1295  0.6597 -1.8892
 5479TIP3    H240633   0.159   2.134   9.422 -1.7805  1.8283  0.1911
 5480TIP3   OH240634   5.555   4.864   8.982  0.2347  0.1633 -0.4219
 5480TIP3    H140635   5.573   4.902   9.067 -0.3745  1.5052 -0.8677
 5480TIP3    H240636   5.548   4.770   8.999 -2.0515  0.5696  1.4227
 5481TIP3   OH240637   5.714   2.065   6.730  0.4225  0.4676  0.3578
 5481TIP3    H140638   5.809   2.056   6.740  0.5884  1.9463  0.3848
 5481TIP3    H240639   5.692   2.144   6.779 -0.9280 -0.1665  0.8358
 5482TIP3   OH240640   4.295   5.288   8.277  0.5866 -0.1160 -0.3317
 5482TIP3    H140641   4.341   5.241   8.209  1.2048  1.2901 -0.9286
 5482TIP3    H240642   4.337   5.261   8.359 -0.4671 -2.1661 -0.4027
 5483TIP3   OH240643   5.206   1.384   8.055  0.2864  0.2113  0.3412
 5483TIP3    H140644   5.245   1.300   8.032 -1.8725 -1.1800  1.4038
 5483TIP3    H240645   5.266   1.422   8.120  0.7277 -1.0581  0.6957
 5484TIP3   OH240646   2.892   0.041   6.586 -0.7730  0.3290  0.2482
 5484TIP3    H140647   2.976   0.078   6.558 -0.3122  1.1029  2.4955
 5484TIP3    H240648   2.845   0.115   6.623 -1.4495 -0.5874  1.2590
 5485TIP3   OH240649   1.064   1.852   9.556  0.1021  0.0544  0.0328
 5485TIP3    H140650   1.147   1.897   9.575 -0.6968  1.7505 -0.2415
 5485TIP3    H240651   1.065   1.776   9.613  1.8767 -0.0121 -0.0103
 5486TIP3   OH240652   3.383   6.296   8.307 -0.2825 -0.0106  0.3094
 5486TIP3    H140653   3.350   6.317   8.394 -2.0992 -0.5166 -0.2186
 5486TIP3    H240654   3.359   6.371   8.253  3.5692  1.7810  0.7768
 5487TIP3   OH240655   0.405   1.823   8.853  0.0746 -0.2754 -0.2662
 5487TIP3    H140656   0.468   1.878   8.807 -1.0192  0.0862 -1.3496
 5487TIP3    H240657   0.432   1.734   8.832  0.2212 -0.1258 -0.7174
 5488TIP3   OH240658   4.487   2.563   9.003  1.1513 -0.2757 -0.7170
 5488TIP3    H140659   4.519   2.551   8.914  0.9456 -3.1039 -0.4872
 5488TIP3    H240660   4.521   2.489   9.052  1.1538  1.1252  1.5827
 5489TIP3   OH240661   5.253   4.435   7.051 -0.0063 -1.0435 -0.4090
 5489TIP3    H140662   5.339   4.393   7.055  0.1091 -0.8478 -0.8165
 5489TIP3    H240663   5.224   4.440   7.142 -0.4932 -2.9836 -0.4110
 5490TIP3   OH240664   3.317   6.365   7.474 -0.4840 -0.1292 -0.1884
 5490TIP3    H140665   3.299   6.459   7.474  1.3168  0.3058  1.6702
 5490TIP3    H240666   3.364   6.350   7.556  0.8442 -2.3459 -1.2566
 5491TIP3   OH240667   2.372   3.741   8.662 -0.6125 -0.3637 -0.2791
 5491TIP3    H140668   2.321   3.675   8.615 -1.9413  1.2236 -1.1708
 5491TIP3    H240669   2.428   3.691   8.721 -0.4046 -2.3443 -2.0608
 5492TIP3   OH240670   4.539   4.377   7.353  0.8083  0.4434 -0.5466
 5492TIP3    H140671   4.532   4.282   7.360 -1.9649  0.7002  2.4455
 5492TIP3    H240672   4.477   4.400   7.284 -2.9805  0.2546  2.4791
 5493TIP3   OH240673   5.484   3.830   7.189  0.1758 -0.4174  0.2035
 5493TIP3    H140674   5.556   3.818   7.252  0.3589  0.3404  0.1501
 5493TIP3    H240675   5.527   3.867   7.111 -0.4818  1.5298  0.7249
 5494TIP3   OH240676   3.627   6.339   8.375 -0.6408  0.7466 -0.1328
 5494TIP3    H140677   3.537   6.308   8.366 -0.4412  0.0268  0.3293
 5494TIP3    H240678   3.649   6.325   8.467 -0.1514  1.1814 -0.1775
 5495TIP3   OH240679   3.613   1.969   8.535 -0.4839  0.0295 -0.4403
 5495TIP3    H140680   3.637   1.878   8.517  1.7819  0.2839  0.9104
 5495TIP3    H240681   3.674   2.021   8.483  0.1042  0.7306  0.9007
 5496TIP3   OH240682   3.062   0.728   8.303 -0.2468  0.3608  0.0937
 5496TIP3    H140683   3.077   0.635   8.288  2.3861  0.7274 -0.0531
 5496TIP3    H240684   3.132   0.772   8.254 -1.7571  2.4751 -0.3257
 5497TIP3   OH240685   5.622   2.460   9.026  0.5954  0.1155  0.5190
 5497TIP3    H140686   5.611   2.547   9.064 -1.1226 -0.1125  0.6198
 5497TIP3    H240687   5.565   2.459   8.949 -2.0377 -1.8978  2.2965
 5498TIP3   OH240688   1.121   6.448   6.957 -0.5208 -0.9589  0.6047
 5498TIP3    H140689   1.142   6.355   6.960 -0.7729 -1.0400  0.0048
 5498TIP3    H240690   1.056   6.461   7.026 -0.5201 -1.2342  0.6578
 5499TIP3   OH240691   5.729   5.378   8.424 -0.2449  0.1999 -0.2334
 5499TIP3    H140692   5.656   5.407   8.478 -0.2902 -1.5850  0.7305
 5499TIP3    H240693   5.733   5.284   8.438  2.4908  0.2840  0.0482
 5500TIP3   OH240694   3.868   1.927   7.817 -0.0817 -0.4715 -0.0302
 5500TIP3    H140695   3.911   1.851   7.856 -0.1720 -0.6127 -0.2043
 5500TIP3    H240696   3.778   1.897   7.800  0.4928 -1.1056 -2.2647
 5501TIP3   OH240697   2.828   1.065   7.262 -0.1374 -0.2176 -0.1961
 5501TIP3    H140698   2.781   1.112   7.193  0.3590 -0.7547 -0.9182
 5501TIP3    H240699   2.908   1.116   7.277 -0.3971  0.0734  0.2170
 5502TIP3   OH240700   5.374   2.859   8.844 -0.1589  0.5202 -0.2879
 5502TIP3    H140701   5.386   2.931   8.906  0.5107 -0.7547  1.1421
 5502TIP3    H240702   5.402   2.894   8.760 -2.0132  2.6340 -0.1278
 5503TIP3   OH240703   0.052   3.531   7.701  0.2411  0.4585  0.2083
 5503TIP3    H140704   0.140   3.560   7.724 -0.5166  1.2339  2.4053
 5503TIP3    H240705  -0.005   3.576   7.763 -1.6205 -0.8112 -0.4828
 5504TIP3   OH240706   4.347   0.019   7.735  0.2019 -0.5995 -0.7364
 5504TIP3    H140707   4.279   0.055   7.680  0.5206 -0.9139 -1.3456
 5504TIP3    H240708   4.428   0.057   7.703  0.2718  0.2140  0.3501
 5505TIP3   OH240709   4.151   0.995   8.283 -0.0397  0.4912 -0.1299
 5505TIP3    H140710   4.215   1.065   8.294  0.0205  0.3540  0.4363
 5505TIP3    H240711   4.149   0.978   8.189 -0.5462  1.7056 -0.3557
 5506TIP3   OH240712   1.485   0.982   6.745  0.1916 -0.2196  0.2225
 5506TIP3    H140713   1.427   1.026   6.683 -0.3254 -0.9079  0.2145
 5506TIP3    H240714   1.434   0.975   6.825  1.1197  1.3642  1.0075
 5507TIP3   OH240715   4.230   3.256   7.663 -0.7326 -0.2167  0.2793
 5507TIP3    H140716   4.266   3.276   7.750  0.2596 -1.7915  0.2648
 5507TIP3    H240717   4.141   3.225   7.682  0.0196 -2.1778  0.9819
 5508TIP3   OH240718   1.175   1.659   6.436  0.6077 -0.0661 -0.2718
 5508TIP3    H140719   1.093   1.666   6.387 -1.0285 -1.4480  2.1095
 5508TIP3    H240720   1.174   1.572   6.474  3.1220 -0.0465  0.0285
 5509TIP3   OH240721   1.762   1.634   7.848 -0.0872 -0.0953 -0.2552
 5509TIP3    H140722   1.719   1.705   7.801 -0.6753 -0.4380 -0.2546
 5509TIP3    H240723   1.812   1.587   7.781 -1.7781 -1.2284 -0.7888
 5510TIP3   OH240724   5.913   2.898   9.262  0.0329 -0.3488 -0.0982
 5510TIP3    H140725   5.830   2.852   9.253 -1.9167  1.7580  4.3491
 5510TIP3    H240726   5.970   2.835   9.306 -1.3860  0.0748  2.5172
 5511TIP3   OH240727   6.262   5.087   9.154  0.0546 -0.5208 -0.4471
 5511TIP3    H140728   6.234   4.996   9.148 -0.6715 -0.2427 -1.2809
 5511TIP3    H240729   6.275   5.115   9.064  1.0785 -0.0302 -0.1718
 5512TIP3   OH240730   3.619   4.448   7.053  0.1434  0.2471  0.1956
 5512TIP3    H140731   3.646   4.400   6.975  0.2817  0.2881  0.2168
 5512TIP3    H240732   3.559   4.390   7.098 -2.4119  1.3921 -1.5057
 5513TIP3   OH240733   1.082   2.080   9.206 -0.4062  0.3239  0.8617
 5513TIP3    H140734   1.049   2.050   9.291 -2.0520 -0.2329  0.0628
 5513TIP3    H240735   1.020   2.147   9.178  0.3251  0.7596  0.2494
 5514TIP3   OH240736   5.832   1.870   9.236 -0.2823  0.1962 -0.0983
 5514TIP3    H140737   5.857   1.832   9.152 -1.7174 -0.8729 -0.0948
 5514TIP3    H240738   5.915   1.891   9.279  0.5488 -1.3449 -0.8569
 5515TIP3   OH240739   3.335   4.690   7.036 -0.9566 -0.5142  0.2234
 5515TIP3    H140740   3.319   4.624   7.103  1.0122  0.7198  2.0043
 5515TIP3    H240741   3.360   4.640   6.958  0.7066 -1.8919  1.5776
 5516TIP3   OH240742   0.443   3.748   7.053 -0.3299  0.3211  0.3312
 5516TIP3    H140743   0.374   3.718   6.994 -0.3365  2.5616 -0.9012
 5516TIP3    H240744   0.524   3.712   7.017 -0.5875 -0.2815  0.3537
 5517TIP3   OH240745   4.584   5.056  15.265 -0.1455 -0.3141  0.2941
 5517TIP3    H140746   4.496   5.043  15.300 -0.6182  0.1174 -0.7013
 5517TIP3    H240747   4.584   5.145  15.231  0.9482 -0.0190  1.0256
 5518TIP3   OH240748   2.355   1.195   7.904  0.4794  0.0022  0.0060
 5518TIP3    H140749   2.422   1.234   7.848  0.7777 -1.1274 -0.4488
 5518TIP3    H240750   2.357   1.247   7.985 -0.5865  2.2338 -1.3201
 5519TIP3   OH240751   3.041   2.242   7.140 -0.9139 -0.2638  0.5861
 5519TIP3    H140752   3.128   2.240   7.180 -0.1963 -0.6032 -0.9407
 5519TIP3    H240753   3.040   2.322   7.088 -1.0664 -0.8829 -0.3725
 5520TIP3   OH240754   2.949   0.206   6.957 -0.2460 -0.1450  0.2748
 5520TIP3    H140755   2.882   0.270   6.931 -1.2884 -1.3369 -0.0324
 5520TIP3    H240756   2.907   0.154   7.025  0.3559 -0.9358  0.0506
 5521TIP3   OH240757   3.548   4.859   9.143  0.3029 -0.0108 -0.4138
 5521TIP3    H140758   3.622   4.806   9.114  0.5556  1.2625 -2.3062
 5521TIP3    H240759   3.471   4.815   9.107  0.3872  0.1449 -0.7861
 5522TIP3   OH240760   4.811   1.149   6.869 -0.0319  0.1899 -0.2277
 5522TIP3    H140761   4.866   1.078   6.902 -2.2949 -1.4311  0.2537
 5522TIP3    H240762   4.828   1.222   6.929  0.3977 -0.7791  0.8700
 5523TIP3   OH240763   2.860   6.289   8.082  0.0633 -0.2128  0.7089
 5523TIP3    H140764   2.875   6.380   8.106 -0.8435  0.0252  0.4116
 5523TIP3    H240765   2.786   6.261   8.136 -0.2050 -0.5186  0.1914
 5524TIP3   OH240766   1.021   3.216   9.840 -0.0774  0.5040 -0.2125
 5524TIP3    H140767   0.979   3.174   9.915 -0.4840  0.5690 -0.4034
 5524TIP3    H240768   0.950   3.262   9.795  0.5492  2.4271  0.6641
 5525TIP3   OH240769   5.590   2.677   8.709 -0.1046  0.3568  0.2857
 5525TIP3    H140770   5.668   2.630   8.737 -0.2705  0.3061  0.6609
 5525TIP3    H240771   5.622   2.739   8.644  0.4497  1.2078  1.3424
 5526TIP3   OH240772   2.619   4.005   9.025 -0.2158  0.4859 -0.0660
 5526TIP3    H140773   2.633   3.911   9.010  0.8092  0.8072 -1.2936
 5526TIP3    H240774   2.529   4.011   9.055 -0.4241 -0.8659 -0.3602
 5527TIP3   OH240775   1.581   6.102   7.477 -0.0975  0.3081  0.3589
 5527TIP3    H140776   1.523   6.177   7.466  0.5351  0.4823 -2.4813
 5527TIP3    H240777   1.565   6.073   7.567 -2.3647  2.1311  0.6470
 5528TIP3   OH240778   1.054   3.022   6.582 -0.5408  0.1648 -0.0892
 5528TIP3    H140779   1.134   3.046   6.535 -2.2080  2.0984 -2.1811
 5528TIP3    H240780   1.014   2.954   6.527 -1.4178  0.8276 -0.2767
 5529TIP3   OH240781   0.556   5.227  16.342  0.0954 -0.2083  0.2266
 5529TIP3    H140782   0.644   5.189  16.335 -0.3350 -1.0844 -0.6062
 5529TIP3    H240783   0.506   5.162  16.393 -0.5588 -0.6318 -0.9264
 5530TIP3   OH240784   1.138   3.636   7.254  0.0934 -0.5593 -0.1466
 5530TIP3    H140785   1.153   3.727   7.278 -1.6890 -0.6393  1.5143
 5530TIP3    H240786   1.137   3.636   7.158  1.8261  0.8132 -0.2218
 5531TIP3   OH240787   2.346   5.760   8.919 -0.0790 -0.3200  0.5157
 5531TIP3    H140788   2.416   5.825   8.932 -0.2799 -0.0664  0.3303
 5531TIP3    H240789   2.273   5.794   8.972 -0.3558 -0.1281  0.0182
 5532TIP3   OH240790   4.202   6.003   6.986  0.3642 -0.1561 -0.2722
 5532TIP3    H140791   4.280   6.021   7.039  1.5654  1.4975 -2.4616
 5532TIP3    H240792   4.142   5.959   7.047  1.8307  1.1726  2.3046
 5533TIP3   OH240793   2.942   6.290   7.349 -0.3116 -0.0445 -0.3054
 5533TIP3    H140794   3.011   6.270   7.285  1.2774 -0.6104  1.4821
 5533TIP3    H240795   2.884   6.350   7.303  0.8047 -0.3475 -2.2456
 5534TIP3   OH240796   1.677   2.751   9.601 -0.8846  0.1173 -0.3965
 5534TIP3    H140797   1.720   2.772   9.684 -1.4384 -0.7414  0.1218
 5534TIP3    H240798   1.634   2.833   9.575  1.2704  1.0969 -1.0881
 5535TIP3   OH240799   4.100   1.302   7.396 -0.5276  0.0996 -0.2012
 5535TIP3    H140800   4.113   1.323   7.303  0.7373 -0.6272 -0.2142
 5535TIP3    H240801   4.014   1.337   7.417 -1.0962 -0.2682 -1.8105
 5536TIP3   OH240802   2.099   2.053   7.313  0.0367  0.0623 -0.4065
 5536TIP3    H140803   2.071   2.141   7.337  0.1033 -0.6004  2.5173
 5536TIP3    H240804   2.186   2.044   7.354 -0.7957 -1.9523  1.1308
 5537TIP3   OH240805   2.443   4.572   7.053 -0.8219  0.4920 -0.7183
 5537TIP3    H140806   2.400   4.645   7.098 -0.5342 -0.3558  1.0438
 5537TIP3    H240807   2.524   4.558   7.101 -1.5344 -1.8741 -0.0381
 5538TIP3   OH240808   1.211   6.490   9.206  0.2762 -0.8879 -0.2427
 5538TIP3    H140809   1.155   6.429   9.157 -0.2801 -1.5425  1.1540
 5538TIP3    H240810   1.152   6.557   9.239  0.3527 -1.3887  0.9506
 5539TIP3   OH240811   5.115   5.501   7.984  0.1625  0.2089  0.0998
 5539TIP3    H140812   5.179   5.513   7.913  0.1365 -1.9442 -0.3638
 5539TIP3    H240813   5.123   5.580   8.037  2.2868  0.5954 -0.6712
 5540TIP3   OH240814   0.027   0.175   9.725 -0.0706 -0.0392  0.1883
 5540TIP3    H140815   0.076   0.137   9.797 -2.4789 -2.0580  0.8960
 5540TIP3    H240816   0.091   0.188   9.655  1.9632  0.2661  2.0201
 5541TIP3   OH240817   2.489   2.660   9.950 -0.3212 -0.4661  0.1322
 5541TIP3    H140818   2.434   2.582   9.963 -0.5960 -0.4236 -0.7246
 5541TIP3    H240819   2.427   2.732   9.941 -0.1111 -0.3355 -0.2982
 5542TIP3   OH240820   3.684   1.718   8.449 -0.8614  0.1597  0.8284
 5542TIP3    H140821   3.708   1.742   8.359  0.5417 -0.6641  0.9494
 5542TIP3    H240822   3.689   1.623   8.450 -4.9112 -0.2155  0.7392
 5543TIP3   OH240823   6.667   1.238   8.866 -0.0534 -0.4367  0.1513
 5543TIP3    H140824   6.664   1.197   8.952  0.0749  0.7017  0.7207
 5543TIP3    H240825   6.744   1.198   8.824  1.4209  0.7896  1.5398
 5544TIP3   OH240826   2.674   2.311   8.301  0.2893  0.3883  0.7614
 5544TIP3    H140827   2.608   2.283   8.364  1.0026 -1.1015  0.8902
 5544TIP3    H240828   2.697   2.401   8.328 -0.3666  0.2510  1.8091
 5545TIP3   OH240829   5.181   1.488   9.049  0.1584  0.1623 -0.6354
 5545TIP3    H140830   5.156   1.477   8.957 -0.6764  1.2943 -0.5718
 5545TIP3    H240831   5.239   1.564   9.050 -0.6909  0.8375 -0.1262
 5546TIP3   OH240832   5.509   6.458   8.069  0.3009 -0.0243 -0.1747
 5546TIP3    H140833   5.478   6.428   7.983 -2.2300  2.8797 -0.4687
 5546TIP3    H240834   5.578   6.522   8.049 -0.0924  0.4413 -0.0805
 5547TIP3   OH240835   1.534   0.804   8.978 -0.0973  0.5239  0.2156
 5547TIP3    H140836   1.569   0.855   9.051  1.2775  2.4349 -1.6658
 5547TIP3    H240837   1.612   0.781   8.926 -0.9651 -1.3640 -0.3246
 5548TIP3   OH240838   2.877   6.238   9.026 -0.4390  0.3819 -0.2073
 5548TIP3    H140839   2.788   6.214   9.001  0.0790 -1.6021 -0.2703
 5548TIP3    H240840   2.865   6.296   9.101 -1.7901  0.9395 -0.8040
 5549TIP3   OH240841   4.513   5.769   6.470 -0.5072  0.5921 -0.2157
 5549TIP3    H140842   4.462   5.834   6.423  2.3939  3.7600  0.6828
 5549TIP3    H240843   4.584   5.746   6.411  1.3478  2.1920  1.2634
 5550TIP3   OH240844   5.791   2.879   8.831  0.4550 -0.0797  0.2814
 5550TIP3    H140845   5.750   2.803   8.873 -0.4702  0.8598  1.1460
 5550TIP3    H240846   5.852   2.841   8.768 -0.1242 -1.5394  0.5432
 5551TIP3   OH240847   6.524   0.110   6.085  0.2536 -0.6640 -0.0604
 5551TIP3    H140848   6.437   0.151   6.089  0.8307  0.5528  2.5551
 5551TIP3    H240849   6.511   0.024   6.124  0.3165 -0.1784  1.0827
 5552TIP3   OH240850   2.504   2.997   8.644 -0.1178  0.1521  0.3003
 5552TIP3    H140851   2.552   3.078   8.624 -1.0819  0.2062 -2.0372
 5552TIP3    H240852   2.476   3.008   8.735  2.2572  1.1326  0.9868
 5553TIP3   OH240853   2.725   3.368   8.045  0.1989  0.1313 -0.5476
 5553TIP3    H140854   2.739   3.462   8.054 -0.2230  0.1548 -0.1044
 5553TIP3    H240855   2.810   3.329   8.062  1.1502  0.5691 -3.6263
 5554TIP3   OH240856   2.122   6.683   6.351  0.2754 -0.0940 -0.6791
 5554TIP3    H140857   2.208   6.666   6.313  1.4820 -0.9697  2.1952
 5554TIP3    H240858   2.124   6.640   6.436 -2.9910 -0.0107 -0.4347
 5555TIP3   OH240859   6.592   4.218  10.913  1.0550  0.0537  0.3345
 5555TIP3    H140860   6.683   4.239  10.892  0.9829 -0.7009 -0.8098
 5555TIP3    H240861   6.541   4.264  10.847  0.6517 -0.1665  0.4905
 5556TIP3   OH240862   6.435   3.699   9.917 -0.0691 -0.1567 -0.6865
 5556TIP3    H140863   6.431   3.610   9.881  1.6957 -0.7547  0.4798
 5556TIP3    H240864   6.386   3.693   9.999 -1.6462  0.4943 -1.5322
 5557TIP3   OH240865   5.014   0.867   8.004 -0.2889  0.4688  0.5554
 5557TIP3    H140866   5.044   0.884   7.915  0.4649  0.2485  0.7640
 5557TIP3    H240867   4.940   0.927   8.016 -2.1103 -1.3051 -1.1070
 5558TIP3   OH240868   0.514   0.316   8.834  0.3299 -0.0818  0.2373
 5558TIP3    H140869   0.499   0.242   8.776  0.5897  0.1540 -0.1352
 5558TIP3    H240870   0.427   0.338   8.867  0.1760 -0.2116 -0.0752
 5559TIP3   OH240871   3.178   5.161   7.506 -0.3915  0.3398 -0.5706
 5559TIP3    H140872   3.266   5.144   7.473  0.2695  2.2781  0.0571
 5559TIP3    H240873   3.187   5.241   7.558 -2.4128  0.2438  0.0127
 5560TIP3   OH240874   4.310   3.163   8.231  0.2493  0.1345  0.2197
 5560TIP3    H140875   4.393   3.206   8.249  0.0005  0.6515  0.1461
 5560TIP3    H240876   4.245   3.215   8.279 -0.3205  1.0239 -1.4543
 5561TIP3   OH240877   1.638   1.816   7.622 -0.6026  0.2974 -0.1403
 5561TIP3    H140878   1.684   1.898   7.642 -0.4372  0.7898 -2.3248
 5561TIP3    H240879   1.643   1.809   7.527 -1.2005 -1.9326 -0.0465
 5562TIP3   OH240880   2.151   5.479   8.534 -0.0788 -0.4442  0.1147
 5562TIP3    H140881   2.194   5.555   8.494  0.0871 -0.2965  0.5692
 5562TIP3    H240882   2.211   5.406   8.517  0.5398 -0.1697  1.0688
 5563TIP3   OH240883   0.012   4.121   8.281  0.3068  0.1510  0.2770
 5563TIP3    H140884  -0.072   4.095   8.319  0.8812  0.6285  1.9636
 5563TIP3    H240885   0.009   4.217   8.279  0.6143  0.1537 -0.1069
 5564TIP3   OH240886   6.658   5.963   8.304  0.0901  0.3611 -0.2343
 5564TIP3    H140887   6.573   6.004   8.313 -0.2808 -0.5189  0.5427
 5564TIP3    H240888   6.643   5.871   8.328  1.2452  0.1864 -0.1037
 5565TIP3   OH240889   2.445   4.503   8.256  0.2514 -0.1403  0.2115
 5565TIP3    H140890   2.484   4.543   8.178 -0.1896 -0.2343 -0.0586
 5565TIP3    H240891   2.423   4.578   8.312  0.6116 -0.0749  0.2691
 5566TIP3   OH240892   1.780   2.546   7.268 -0.3567  0.0554  0.5245
 5566TIP3    H140893   1.785   2.460   7.225  0.3963  0.5512 -0.4132
 5566TIP3    H240894   1.723   2.531   7.344 -1.2221 -0.9879 -0.2940
 5567TIP3   OH240895   2.972   4.141   8.739  0.6390 -0.6160  0.0810
 5567TIP3    H140896   3.009   4.054   8.754 -1.5559 -1.8151 -0.9748
 5567TIP3    H240897   2.911   4.154   8.812 -0.0434 -0.5668 -0.4917
 5568TIP3   OH240898   5.965   3.990   9.647  0.1853 -0.0175  0.5534
 5568TIP3    H140899   5.919   4.030   9.721  0.9360 -1.0786  1.6333
 5568TIP3    H240900   6.056   4.017   9.659  0.1153  0.8211 -0.7030
 5569TIP3   OH240901   1.470   3.019   8.862 -0.1356  0.6111 -0.3615
 5569TIP3    H140902   1.513   3.098   8.892 -0.7143  0.9901 -0.5209
 5569TIP3    H240903   1.528   2.948   8.891 -1.3850  0.8077  3.0326
 5570TIP3   OH240904   1.882   2.818   6.815  0.3733 -0.0312 -0.1031
 5570TIP3    H140905   1.878   2.725   6.792  0.8153  0.0310 -0.4691
 5570TIP3    H240906   1.882   2.820   6.910 -1.7371 -0.2960 -0.0581
 5571TIP3   OH240907   1.037   5.997   8.733  0.1788  0.6856  0.8093
 5571TIP3    H140908   0.980   5.933   8.776 -0.5549  0.7498 -0.0492
 5571TIP3    H240909   1.115   6.000   8.788  1.3540 -2.8258 -0.4134
 5572TIP3   OH240910   1.903   1.421   8.847  0.0496  0.6860 -0.3679
 5572TIP3    H140911   1.992   1.387   8.853 -0.2400 -0.0980 -0.4937
 5572TIP3    H240912   1.888   1.437   8.754  0.0404  0.7696 -0.3526
 5573TIP3   OH240913   0.002   5.646   6.568 -0.2570 -0.1334  0.1804
 5573TIP3    H140914  -0.038   5.708   6.629 -1.5378 -0.0589 -0.6969
 5573TIP3    H240915  -0.070   5.590   6.539 -0.1955  1.2100 -2.9358
 5574TIP3   OH240916   0.258   3.225   8.416  0.0426 -0.0991  0.2749
 5574TIP3    H140917   0.300   3.295   8.467 -0.3218 -0.7156  1.4263
 5574TIP3    H240918   0.246   3.154   8.477 -1.8450 -0.2900 -0.2719
 5575TIP3   OH240919   5.058   6.431   7.864  0.3824  0.1930  0.2367
 5575TIP3    H140920   5.042   6.388   7.780 -1.9167  1.6071 -0.1263
 5575TIP3    H240921   5.139   6.479   7.851  0.0761  0.3710 -1.1770
 5576TIP3   OH240922   5.019   2.411   7.620  0.1858  0.1576 -0.1586
 5576TIP3    H140923   5.008   2.506   7.607  0.1721  0.2013  0.1524
 5576TIP3    H240924   5.089   2.386   7.560 -0.1382  0.2768 -0.5929
 5577TIP3   OH240925   5.708   2.495   7.684 -0.5003  0.1039 -0.4371
 5577TIP3    H140926   5.757   2.430   7.633  0.5895  0.4352  0.1624
 5577TIP3    H240927   5.693   2.454   7.769 -3.3181 -0.9030 -1.3032
 5578TIP3   OH240928   4.246   6.669   6.437  0.4154 -0.4885  0.1095
 5578TIP3    H140929   4.178   6.629   6.491  0.9754 -1.6040  0.0292
 5578TIP3    H240930   4.248   6.760   6.464 -1.2480 -0.3862 -0.0388
 5579TIP3   OH240931   6.248   0.487   9.245 -0.0678  0.2336 -0.2012
 5579TIP3    H140932   6.247   0.514   9.153  0.6238 -0.4091 -0.4131
 5579TIP3    H240933   6.181   0.419   9.251  0.5721 -0.4431 -0.4807
 5580TIP3   OH240934   4.281   6.237   6.398  0.3508  0.1503 -0.1387
 5580TIP3    H140935   4.351   6.237   6.463 -0.6613 -0.3487  0.9841
 5580TIP3    H240936   4.201   6.223   6.448 -0.3373 -1.6834 -1.6096
 5581TIP3   OH240937   5.837   6.268   8.554 -0.1095 -0.1734  0.6528
 5581TIP3    H140938   5.769   6.224   8.604 -0.3324  1.2936  1.6860
 5581TIP3    H240939   5.827   6.235   8.465  1.0683 -3.7776  1.7022
 5582TIP3   OH240940   2.339   2.064   7.445  0.5570  0.2920  0.7225
 5582TIP3    H140941   2.306   2.065   7.535  2.3990  0.3700  1.4386
 5582TIP3    H240942   2.434   2.076   7.454  0.8373 -0.1624 -1.2133
 5583TIP3   OH240943   1.444   4.798   6.300 -0.2231 -0.2566 -0.3100
 5583TIP3    H140944   1.349   4.800   6.313 -0.1258 -1.5941  0.9551
 5583TIP3    H240945   1.476   4.878   6.341 -0.7367 -0.2707  0.1332
 5584TIP3   OH240946   0.477   4.106   6.775  0.1419 -0.1083 -0.0811
 5584TIP3    H140947   0.506   4.071   6.690  0.4319  0.2444 -0.1328
 5584TIP3    H240948   0.543   4.076   6.837 -1.2734 -2.3158  0.4526
 5585TIP3   OH240949   6.423   2.473   8.743 -0.4078  0.5548 -0.0508
 5585TIP3    H140950   6.518   2.460   8.744 -0.0588  2.3202 -2.0371
 5585TIP3    H240951   6.401   2.494   8.834  1.3258  1.2853  0.2455
 5586TIP3   OH240952   4.238   1.590   7.479  0.2059  0.2917  0.2652
 5586TIP3    H140953   4.240   1.679   7.444 -1.5668  0.7079  1.0971
 5586TIP3    H240954   4.213   1.601   7.571  0.7938 -1.0187  0.6028
 5587TIP3   OH240955   0.754   5.165   7.229 -0.5028  0.1563  0.5734
 5587TIP3    H140956   0.673   5.144   7.182 -0.1679 -0.7695  0.3907
 5587TIP3    H240957   0.728   5.165   7.321 -0.9021  0.7728  0.4673
 5588TIP3   OH240958   1.895   1.606   9.921  0.1876 -0.1662  0.3972
 5588TIP3    H140959   1.833   1.555   9.868  1.7374 -1.3201 -0.3766
 5588TIP3    H240960   1.882   1.573  10.010 -2.8206  2.1642  0.9874
 5589TIP3   OH240961   0.589   2.102   9.053 -0.3763 -0.2337 -0.0965
 5589TIP3    H140962   0.614   2.189   9.085 -1.2761  0.5393 -1.4169
 5589TIP3    H240963   0.672   2.053   9.053  0.1767  0.6537  0.5220
 5590TIP3   OH240964   4.104   4.309  10.044  0.6078 -0.2512 -0.2671
 5590TIP3    H140965   4.192   4.270  10.040  1.2400  0.6380  2.4621
 5590TIP3    H240966   4.066   4.272  10.124 -0.3272  1.5920  0.1941
 5591TIP3   OH240967   5.534   6.200   7.040  0.1212  0.1082  0.1159
 5591TIP3    H140968   5.485   6.261   6.985 -0.0848  0.6242  0.8556
 5591TIP3    H240969   5.498   6.114   7.019  0.6571  0.1886 -1.1947
 5592TIP3   OH240970   5.824   2.993   7.067 -0.0043  0.6651 -0.3718
 5592TIP3    H140971   5.834   3.039   7.150 -1.2650 -0.4697  0.4603
 5592TIP3    H240972   5.894   2.927   7.068 -0.5004  0.1437  0.1552
 5593TIP3   OH240973   1.831   1.880   6.137 -0.3337 -0.8780 -0.2172
 5593TIP3    H140974   1.882   1.870   6.057 -0.1996 -0.5511 -0.1777
 5593TIP3    H240975   1.896   1.902   6.204 -0.5169 -0.4875 -0.1608
 5594TIP3   OH240976   1.393   2.774   9.175  0.4391  0.3245  0.4011
 5594TIP3    H140977   1.473   2.735   9.140 -0.4764  0.9622 -2.7220
 5594TIP3    H240978   1.410   2.784   9.269  3.0849 -1.6698  0.2428
 5595TIP3   OH240979   5.967   5.230   9.516  0.3728  0.3029 -0.3729
 5595TIP3    H140980   5.937   5.151   9.471 -0.6290 -0.2569  1.1658
 5595TIP3    H240981   5.908   5.299   9.484  0.4301  0.1634 -0.7848
 5596TIP3   OH240982   4.749   4.072   7.987  0.3194  0.9178 -0.6697
 5596TIP3    H140983   4.780   4.148   8.037  1.5385  0.3575 -0.5586
 5596TIP3    H240984   4.824   4.013   7.982 -0.5061 -0.1390 -1.0600
 5597TIP3   OH240985   0.961   3.534   8.960 -0.1353  0.0669  0.1829
 5597TIP3    H140986   0.878   3.574   8.985  0.9216  1.9824  0.8138
 5597TIP3    H240987   1.008   3.524   9.043  0.6442 -0.0732 -0.2655
 5598TIP3   OH240988   5.608   2.739   9.025  0.2143  0.5235 -0.1403
 5598TIP3    H140989   5.534   2.714   8.970  1.1889  2.3334 -2.4761
 5598TIP3    H240990   5.584   2.825   9.060  0.4261  0.2662  0.6355
 5599TIP3   OH240991   4.493   2.011   8.988 -0.1057  0.4849 -0.3427
 5599TIP3    H140992   4.487   2.091   9.040  1.3062 -0.2414  0.9968
 5599TIP3    H240993   4.482   2.041   8.898 -4.8700  1.5258  0.3268
 5600TIP3   OH240994   1.357   0.319   7.259 -0.2809  0.8888 -0.1995
 5600TIP3    H140995   1.344   0.381   7.331  1.7469  1.0092  0.1033
 5600TIP3    H240996   1.397   0.371   7.189 -0.9464  0.4657 -0.9124
 5601TIP3   OH240997   4.859   1.458   6.821 -0.0629  0.3686 -0.2144
 5601TIP3    H140998   4.856   1.428   6.912 -0.7984  0.7321 -0.1092
 5601TIP3    H240999   4.813   1.390   6.772  1.6451 -0.5977 -0.5615
 5602TIP3   OH241000   3.114   5.470   7.401  0.7545  0.0146 -0.0650
 5602TIP3    H141001   3.070   5.458   7.486 -0.5621  1.5121 -0.4918
 5602TIP3    H241002   3.051   5.437   7.337  0.3562  1.7952 -0.6579
 5603TIP3   OH241003   1.855   3.100   9.055  0.1996  0.1774  0.0381
 5603TIP3    H141004   1.917   3.055   8.998 -0.8540 -0.1210 -0.9127
 5603TIP3    H241005   1.884   3.191   9.055  0.5365  0.0747 -0.5321
 5604TIP3   OH241006   1.507   3.819   7.333  0.3876 -0.1633  0.1923
 5604TIP3    H141007   1.462   3.737   7.352  1.4416 -0.6541  0.6931
 5604TIP3    H241008   1.439   3.879   7.303 -1.1264  0.0242  3.5461
 5605TIP3   OH241009   4.858   0.661   7.904  0.0835  0.0146 -0.5590
 5605TIP3    H141010   4.815   0.602   7.967  0.3462  0.3462 -0.0617
 5605TIP3    H241011   4.924   0.706   7.956  0.6610 -0.0900 -1.1982
 5606TIP3   OH241012   1.921   4.801   9.319  0.0329 -0.1811  0.3001
 5606TIP3    H141013   1.844   4.832   9.366 -1.0904 -1.6200 -0.5147
 5606TIP3    H241014   1.919   4.706   9.330  1.1436 -0.3229 -0.5665
 5607TIP3   OH241015   4.529   6.343   9.230 -0.2712 -0.5752 -0.0083
 5607TIP3    H141016   4.562   6.389   9.307 -2.7838 -0.4592  1.0971
 5607TIP3    H241017   4.502   6.412   9.170 -0.5664 -0.6301  0.0579
 5608TIP3   OH241018   5.778   6.633   6.352  0.2784 -0.1827  0.3925
 5608TIP3    H141019   5.758   6.619   6.445 -1.8703 -0.9734 -0.1364
 5608TIP3    H241020   5.813   6.722   6.349  2.0595 -0.7405  2.1592
 5609TIP3   OH241021   5.139   3.563   7.069  0.3981 -0.7178  0.1187
 5609TIP3    H141022   5.178   3.549   7.155  0.2759 -0.0296  0.2950
 5609TIP3    H241023   5.131   3.658   7.062 -3.1692 -0.8231  0.9564
 5610TIP3   OH241024   5.662   4.455   8.136 -0.1657 -0.1534  0.4723
 5610TIP3    H141025   5.714   4.379   8.162  0.5716 -0.0096 -0.5365
 5610TIP3    H241026   5.724   4.528   8.135 -0.2825 -0.0430 -1.0784
 5611TIP3   OH241027   1.538   6.159   8.764  0.4589  0.1204  0.1117
 5611TIP3    H141028   1.588   6.142   8.684  0.8736 -1.2103  0.6137
 5611TIP3    H241029   1.519   6.071   8.798  0.8211  0.6606  1.7855
 5612TIP3   OH241030   2.866   3.694   8.202 -0.0618  0.0489  0.4902
 5612TIP3    H141031   2.949   3.734   8.229  1.2020 -2.2845  0.3299
 5612TIP3    H241032   2.849   3.627   8.268 -0.5220 -1.1154 -0.7582
 5613TIP3   OH241033   0.673   0.797   8.771 -0.0471 -0.1681  0.0481
 5613TIP3    H141034   0.685   0.722   8.829 -2.9854 -0.4714  0.4485
 5613TIP3    H241035   0.694   0.873   8.825  2.5648 -0.5810 -0.2424
 5614TIP3   OH241036   4.263   1.651   8.830  0.2585  0.1571 -0.3390
 5614TIP3    H141037   4.202   1.595   8.782 -0.4144  1.0305 -0.5420
 5614TIP3    H241038   4.335   1.593   8.854 -1.0817 -1.1390  0.7261
 5615TIP3   OH241039   0.933   0.829   7.526  0.3534 -0.2409 -0.0403
 5615TIP3    H141040   0.855   0.791   7.487 -0.1351 -0.7472  1.3566
 5615TIP3    H241041   0.999   0.825   7.457 -0.9479  0.6071 -1.3859
 5616TIP3   OH241042   1.015   1.803   6.710  0.1873 -0.1890 -0.0386
 5616TIP3    H141043   0.994   1.836   6.623 -0.1336 -0.6629 -0.1436
 5616TIP3    H241044   0.948   1.737   6.727 -0.6659  0.9347  1.1739
 5617TIP3   OH241045   0.947   4.504   8.757  0.1797 -0.7941 -0.2101
 5617TIP3    H141046   0.917   4.507   8.848  0.7673 -1.0244 -0.0049
 5617TIP3    H241047   1.031   4.458   8.761  0.4690 -0.3278 -0.8004
 5618TIP3   OH241048   5.224   1.341   9.726 -0.0840 -0.2640  0.5053
 5618TIP3    H141049   5.252   1.257   9.763 -0.0384 -1.1011 -1.3572
 5618TIP3    H241050   5.283   1.405   9.766  1.0959 -1.3498  0.5730
 5619TIP3   OH241051   6.596   1.533   9.140 -0.4497 -0.1139 -0.5801
 5619TIP3    H141052   6.631   1.453   9.178 -1.7013 -0.1059  0.6526
 5619TIP3    H241053   6.608   1.600   9.207  0.6205  0.7807 -1.6072
 5620TIP3   OH241054   0.386   4.676   9.078 -0.3085 -0.3503 -0.4255
 5620TIP3    H141055   0.452   4.648   9.141  0.1886  1.3815 -0.1207
 5620TIP3    H241056   0.423   4.655   8.992  1.1458  1.4601 -0.3084
 5621TIP3   OH241057   6.243   4.201   9.880  0.0386  0.0470  0.3355
 5621TIP3    H141058   6.308   4.164   9.941  0.5213 -1.4872 -1.0196
 5621TIP3    H241059   6.261   4.157   9.797 -0.2790  2.4234 -1.0819
 5622TIP3   OH241060   0.342   2.849   8.991  0.7696 -0.2881 -0.2316
 5622TIP3    H141061   0.262   2.797   8.991  0.9283 -0.5381  0.3035
 5622TIP3    H241062   0.390   2.821   8.913 -1.2462  2.3450 -2.5999
 5623TIP3   OH241063   0.140   1.898   8.843 -0.2622 -0.2683 -0.2123
 5623TIP3    H141064   0.230   1.866   8.850 -1.1723 -2.7998  1.2178
 5623TIP3    H241065   0.123   1.902   8.749  1.2934  0.1870 -0.5046
 5624TIP3   OH241066   5.900   3.117   8.272 -0.5501  0.3959  0.1661
 5624TIP3    H141067   5.859   3.120   8.359 -0.9195 -0.1363  0.0157
 5624TIP3    H241068   5.828   3.093   8.213 -0.4903  1.5532 -0.4116
 5625TIP3   OH241069   6.219   5.256   9.428  0.3012 -0.2536 -0.2668
 5625TIP3    H141070   6.226   5.187   9.362 -0.3430 -2.7673  2.1073
 5625TIP3    H241071   6.127   5.256   9.454  0.6321  0.2657  0.9970
 5626TIP3   OH241072   4.449   2.240   9.160  0.3346 -0.1154 -0.2819
 5626TIP3    H141073   4.375   2.296   9.185  1.3657  0.9751  0.4660
 5626TIP3    H241074   4.485   2.210   9.244  1.4828  0.4051 -0.5602
 5627TIP3   OH241075   2.063   4.649   8.786 -0.1679 -1.0985 -0.4135
 5627TIP3    H141076   2.075   4.618   8.876  0.4918 -1.8294 -0.7391
 5627TIP3    H241077   2.087   4.742   8.789 -0.5259 -1.0183  0.2340
 5628TIP3   OH241078   1.135   1.022   7.256 -0.7028 -0.4640  0.8954
 5628TIP3    H141079   1.128   0.950   7.194 -0.3131  0.3857 -0.1658
 5628TIP3    H241080   1.081   1.092   7.218 -0.3632  0.1190  1.4570
 5629TIP3   OH241081   1.567   4.230   8.423 -0.1194 -0.2068 -0.5128
 5629TIP3    H141082   1.564   4.195   8.334  0.3826 -2.3026  0.2266
 5629TIP3    H241083   1.481   4.271   8.435 -0.9132 -1.5207 -1.3644
 5630TIP3   OH241084   2.364   5.193   7.156 -0.2520  0.5738  0.4450
 5630TIP3    H141085   2.415   5.169   7.079 -1.3440  1.3762 -0.5730
 5630TIP3    H241086   2.278   5.215   7.122 -1.0512  0.0775  2.0131
 5631TIP3   OH241087   5.636   3.930   7.412  0.0278  0.0912  0.1780
 5631TIP3    H141088   5.556   3.982   7.407  1.4269  2.3423 -1.2252
 5631TIP3    H241089   5.667   3.941   7.502 -1.4249 -1.1968  0.8661
 5632TIP3   OH241090   0.188   3.894   9.569 -0.6983 -0.7353 -0.6846
 5632TIP3    H141091   0.109   3.841   9.578 -2.1427  1.2848 -0.6262
 5632TIP3    H241092   0.207   3.894   9.475 -0.0618 -2.1408 -0.5761
 5633TIP3   OH241093   3.452   1.386   8.279  0.0615  0.5147 -0.0086
 5633TIP3    H141094   3.505   1.406   8.202 -0.2329  1.9196  0.1254
 5633TIP3    H241095   3.502   1.424   8.352 -1.9010  3.4930 -0.0650
 5634TIP3   OH241096   0.629   4.852   6.766 -0.2859  0.3925 -0.4172
 5634TIP3    H141097   0.570   4.776   6.770 -0.2226  0.4085  1.7869
 5634TIP3    H241098   0.704   4.827   6.820 -0.5423  2.2483  0.8751
 5635TIP3   OH241099   5.444   2.641   8.041 -0.3451 -0.2979 -0.1337
 5635TIP3    H141100   5.505   2.592   8.095 -0.1915  0.9372  0.8674
 5635TIP3    H241101   5.497   2.710   8.001 -1.1663  1.2945  1.3886
 5636TIP3   OH241102   0.252   4.384   8.180  0.6379  0.1247 -0.0280
 5636TIP3    H141103   0.229   4.300   8.141 -0.5040  0.7691 -0.7870
 5636TIP3    H241104   0.169   4.420   8.211  1.3743  0.0495  2.2220
 5637TIP3   OH241105   6.067   3.099   8.656 -0.2615  0.0361 -0.1875
 5637TIP3    H141106   6.149   3.148   8.647 -1.1472  2.1113  1.8626
 5637TIP3    H241107   6.081   3.041   8.731 -0.9388  1.1972  0.8882
 5638TIP3   OH241108   0.734   5.557   7.749  0.2480  0.1918 -0.2524
 5638TIP3    H141109   0.789   5.610   7.807  0.4232  0.5903 -0.7738
 5638TIP3    H241110   0.675   5.509   7.808  0.6368  0.3503  0.2665
 5639TIP3   OH241111   4.466   4.047   9.596  0.5305 -0.6001 -0.0601
 5639TIP3    H141112   4.377   4.017   9.575 -0.0900  1.2316 -0.3095
 5639TIP3    H241113   4.457   4.090   9.681  1.4545 -1.4670  0.4861
 5640TIP3   OH241114   3.413   2.591   8.803  0.2218  0.4476  0.0898
 5640TIP3    H141115   3.328   2.550   8.787  1.2724 -2.5049  1.3074
 5640TIP3    H241116   3.401   2.639   8.884  0.2020 -1.8883  1.5690
 5641TIP3   OH241117   2.841   4.845   9.703  0.4053  0.0404 -0.1416
 5641TIP3    H141118   2.867   4.826   9.613  0.7770 -1.6003  0.2789
 5641TIP3    H241119   2.784   4.772   9.728  1.1480 -0.0858  1.2898
 5642TIP3   OH241120   0.827   3.097   7.699 -0.2367 -0.0684 -0.1022
 5642TIP3    H141121   0.873   3.094   7.615 -1.1706  1.2384 -0.6854
 5642TIP3    H241122   0.895   3.118   7.763  0.4054 -0.6660 -0.5725
 5643TIP3   OH241123   2.645   5.005   7.400  0.0463 -0.0986  0.7003
 5643TIP3    H141124   2.564   4.961   7.374  0.3993 -0.6661  0.5500
 5643TIP3    H241125   2.705   4.934   7.424  0.5585  0.3018  0.6389
 5644TIP3   OH241126   0.885   1.119   9.177  0.3095 -0.5138 -0.0296
 5644TIP3    H141127   0.821   1.178   9.216  0.5237 -0.8465  0.8647
 5644TIP3    H241128   0.891   1.046   9.239  3.3326  0.6405  1.2738
 5645TIP3   OH241129   2.060   3.867   7.561  0.1767  0.2802 -0.3649
 5645TIP3    H141130   1.987   3.926   7.541  0.3225  0.4885 -0.2811
 5645TIP3    H241131   2.018   3.787   7.592  0.0001  0.7162  0.5407
 5646TIP3   OH241132   4.900   3.653   8.006 -0.0531  0.1524  0.5941
 5646TIP3    H141133   4.891   3.700   8.089 -0.1806  1.6340 -0.2299
 5646TIP3    H241134   4.821   3.674   7.957 -0.3127 -1.2864  0.3455
 5647TIP3   OH241135   2.985   5.635   8.422 -0.2016 -0.8062  0.1570
 5647TIP3    H141136   2.926   5.577   8.374  0.2127 -0.5653 -0.6606
 5647TIP3    H241137   3.042   5.576   8.471 -0.2732 -1.0716 -0.0750
 5648TIP3   OH241138   5.104   2.244   8.508 -0.7251  0.1599 -0.5318
 5648TIP3    H141139   5.056   2.252   8.591  0.2927  1.3975 -0.0372
 5648TIP3    H241140   5.194   2.226   8.534 -0.2100  1.4821 -1.3387
 5649TIP3   OH241141   3.296   0.955   9.093 -0.5432 -0.4237  0.4615
 5649TIP3    H141142   3.275   0.862   9.107  1.5712 -1.0002  0.2191
 5649TIP3    H241143   3.388   0.962   9.119 -0.9290  1.8493  1.4231
 5650TIP3   OH241144   4.077   5.146   9.018  0.1306 -0.3784 -0.2494
 5650TIP3    H141145   4.062   5.173   8.928  0.3508  0.2099 -0.1123
 5650TIP3    H241146   4.062   5.225   9.070  1.8697 -0.2063  0.0589
 5651TIP3   OH241147   4.887   6.001   9.084 -0.3419  0.3065 -0.4510
 5651TIP3    H141148   4.812   5.941   9.072 -1.1725  1.2034  0.1118
 5651TIP3    H241149   4.847   6.088   9.088  0.5732  0.6860  1.3425
 5652TIP3   OH241150   0.056   3.146   7.569 -0.4809  0.7393  0.1509
 5652TIP3    H141151   0.020   3.229   7.537  0.7720  0.6189 -1.7776
 5652TIP3    H241152   0.036   3.084   7.499  1.0428  0.0674  0.2931
 5653TIP3   OH241153   1.829   4.311   7.573 -0.0403  0.4438 -0.1282
 5653TIP3    H141154   1.911   4.346   7.608  1.2848  1.7435 -4.0112
 5653TIP3    H241155   1.770   4.386   7.570 -0.6519  0.0134  0.5035
 5654TIP3   OH241156   1.138   5.607   6.937 -0.0985  0.0107  0.1016
 5654TIP3    H141157   1.107   5.698   6.940  0.6099  0.2898 -0.7424
 5654TIP3    H241158   1.171   5.596   6.848 -0.1467 -1.0722  0.2097
 5655TIP3   OH241159   0.485   0.762   7.385  0.7393  0.5806 -0.1368
 5655TIP3    H141160   0.570   0.772   7.342  1.0427 -1.8277 -0.1802
 5655TIP3    H241161   0.422   0.776   7.315  1.2053 -1.5959 -1.0462
 5656TIP3   OH241162   3.131   6.513   9.068  0.2838  0.2459 -0.1301
 5656TIP3    H141163   3.059   6.510   9.130 -1.5988 -0.6612 -2.2060
 5656TIP3    H241164   3.120   6.434   9.014  0.8781  1.6928 -2.5376
 5657TIP3   OH241165   2.460   3.407   7.816 -0.5832  0.0991 -0.0323
 5657TIP3    H141166   2.435   3.352   7.890  1.2853 -3.7257 -1.9714
 5657TIP3    H241167   2.395   3.387   7.748  1.1248 -1.2758 -1.3602
 5658TIP3   OH241168   3.501   2.321   9.332  0.5147  0.2376  0.0098
 5658TIP3    H141169   3.529   2.271   9.409  0.7837 -0.2597 -0.4018
 5658TIP3    H241170   3.411   2.347   9.352  1.2390  1.9183  1.3774
 5659TIP3   OH241171   4.629   4.584   9.360 -1.3518 -0.1263 -0.3338
 5659TIP3    H141172   4.553   4.526   9.364 -1.2425 -0.2488  0.0352
 5659TIP3    H241173   4.691   4.539   9.305 -0.9098 -0.7963  0.6840
 5660TIP3   OH241174   1.610   3.681   9.413 -0.2908 -0.5720  0.1424
 5660TIP3    H141175   1.636   3.746   9.479  0.0759  0.8401 -1.3335
 5660TIP3    H241176   1.687   3.625   9.404  1.2364  1.6787 -1.9195
 5661TIP3   OH241177   6.664   0.195   8.830  0.0004 -0.7383  0.1385
 5661TIP3    H141178   6.621   0.149   8.758  0.0098 -0.3291 -0.1273
 5661TIP3    H241179   6.634   0.285   8.823  0.9566 -0.4279 -0.1034
 5662TIP3   OH241180   3.169   3.296   9.547 -0.4008  0.6281  0.2380
 5662TIP3    H141181   3.159   3.342   9.631  0.3080  0.3836  0.4588
 5662TIP3    H241182   3.262   3.301   9.528 -0.1755 -1.2900  0.6030
 5663TIP3   OH241183   5.524   4.711   9.303  0.2577  0.2391  0.1303
 5663TIP3    H141184   5.551   4.675   9.388  0.6877 -1.1982 -0.5726
 5663TIP3    H241185   5.476   4.790   9.324  1.1487  0.4037  1.6685
 5664TIP3   OH241186   4.547   2.522   8.758 -0.0016  0.0249  0.3233
 5664TIP3    H141187   4.469   2.501   8.707 -0.5638  1.2287  0.6551
 5664TIP3    H241188   4.620   2.500   8.700 -0.5986 -0.2685 -0.3338
 5665TIP3   OH241189   4.636   2.851   9.159 -0.1206 -0.0979 -0.0772
 5665TIP3    H141190   4.662   2.779   9.100 -0.3242 -0.7662  0.6328
 5665TIP3    H241191   4.541   2.848   9.160 -0.3032  1.9450 -2.1673
 5666TIP3   OH241192   2.399   5.790   6.319 -0.5670 -0.2130  0.5273
 5666TIP3    H141193   2.399   5.750   6.232 -1.2383  0.1209  0.3696
 5666TIP3    H241194   2.463   5.739   6.369 -0.5692 -0.7442 -0.0049
 5667TIP3   OH241195   1.502   2.955   8.446  0.0607 -0.0118  0.1150
 5667TIP3    H141196   1.501   3.050   8.444 -0.7518 -0.0141 -1.2107
 5667TIP3    H241197   1.557   2.930   8.372 -1.1330 -0.5505 -0.6274
 5668TIP3   OH241198   0.617   3.827   9.456 -0.4013  0.2510  0.2753
 5668TIP3    H141199   0.571   3.857   9.534  0.7165  0.7803  0.7535
 5668TIP3    H241200   0.684   3.893   9.440 -1.3614  0.7847 -1.8602
 5669TIP3   OH241201   4.791   2.867   9.384  0.7360 -0.3614  0.5032
 5669TIP3    H141202   4.728   2.877   9.313 -0.0273  0.5153  1.2775
 5669TIP3    H241203   4.876   2.886   9.344  0.4103 -0.5877 -0.3241
 5670TIP3   OH241204   6.418   1.506   6.695  0.4619  0.1559  0.1477
 5670TIP3    H141205   6.424   1.495   6.790 -0.4672  0.2088  0.2162
 5670TIP3    H241206   6.343   1.454   6.668 -0.1381  1.2307 -0.3599
 5671TIP3   OH241207   5.181   6.264   7.037 -0.4334  0.5927 -0.1089
 5671TIP3    H141208   5.225   6.338   7.079 -0.5698  1.1960 -0.9912
 5671TIP3    H241209   5.097   6.256   7.083 -0.2321  0.6994  0.2783
 5672TIP3   OH241210   1.186   6.674   8.168  1.1996 -0.0606  0.1764
 5672TIP3    H141211   1.114   6.721   8.210  2.0334  0.2214  1.3345
 5672TIP3    H241212   1.216   6.733   8.099  1.3833  0.5578  0.7677
 5673TIP3   OH241213   6.236   0.458   6.569  0.2813  0.9762  0.6890
 5673TIP3    H141214   6.331   0.456   6.562  0.3085 -0.8072  0.8624
 5673TIP3    H241215   6.219   0.454   6.664  0.0303  1.6759  0.6749
 5674TIP3   OH241216   6.539   0.148   7.173 -0.1649 -0.1928  0.4377
 5674TIP3    H141217   6.490   0.201   7.235  0.9030  1.3676  0.0103
 5674TIP3    H241218   6.610   0.110   7.225 -1.1263 -1.5554  0.8184
 5675TIP3   OH241219   0.733   2.038   7.218 -0.1734  0.1877  0.1254
 5675TIP3    H141220   0.706   1.964   7.272 -0.2700 -1.0422 -1.5368
 5675TIP3    H241221   0.820   2.015   7.187  0.3242  1.3647  0.5764
 5676TIP3   OH241222   0.791   2.443   7.560 -0.0539 -0.0476  0.3188
 5676TIP3    H141223   0.774   2.364   7.508  2.1451 -0.1582 -0.3316
 5676TIP3    H241224   0.748   2.513   7.512  0.3597 -0.4466 -0.6784
 5677TIP3   OH241225   5.195   5.593   8.767  0.4215  0.2517  0.4029
 5677TIP3    H141226   5.186   5.608   8.673 -0.9451 -0.5668  0.3671
 5677TIP3    H241227   5.220   5.501   8.774  0.5621  0.3213  0.8415
 5678TIP3   OH241228   1.872   2.041   9.736 -0.0083 -0.2730 -0.0345
 5678TIP3    H141229   1.838   2.127   9.758 -0.0439  0.0446 -1.2532
 5678TIP3    H241230   1.933   2.020   9.807 -1.8463 -0.3618  1.6008
 5679TIP3   OH241231   0.039   4.817   6.769  0.2894 -0.5745 -0.0393
 5679TIP3    H141232   0.118   4.856   6.730  0.4680 -1.1713 -0.2935
 5679TIP3    H241233  -0.026   4.887   6.767 -0.0403 -0.8601 -2.3942
 5680TIP3   OH241234   5.697   0.863   6.606  0.4128 -0.4838  0.2947
 5680TIP3    H141235   5.778   0.837   6.562 -0.5057 -1.0768 -1.0955
 5680TIP3    H241236   5.703   0.824   6.693  1.4391 -0.8359  0.0791
 5681TIP3   OH241237   1.134   2.853  10.287 -0.3935 -0.3709 -0.1547
 5681TIP3    H141238   1.143   2.799  10.366  0.1905 -0.4823 -0.2879
 5681TIP3    H241239   1.067   2.917  10.309 -1.2975 -1.3268 -0.0870
 5682TIP3   OH241240   3.085   1.566   7.004  0.0186 -0.0980 -0.7179
 5682TIP3    H141241   3.048   1.516   6.931  1.8665 -4.0429  0.7509
 5682TIP3    H241242   3.011   1.614   7.041 -2.5421 -3.4505 -1.0340
 5683TIP3   OH241243   3.097   5.742   8.176  0.0769  0.4344 -0.1007
 5683TIP3    H141244   3.044   5.779   8.246  0.5764  1.1978 -0.1059
 5683TIP3    H241245   3.161   5.686   8.220 -1.6253 -1.7134 -0.1921
 5684TIP3   OH241246   5.823   3.177   9.912  0.1179  0.3341  0.6466
 5684TIP3    H141247   5.803   3.187   9.819 -2.2224  1.0471  1.1540
 5684TIP3    H241248   5.837   3.084   9.924 -1.0901  0.0177 -0.1817
 5685TIP3   OH241249   5.646   5.005   6.913  0.5486  0.2876 -0.7189
 5685TIP3    H141250   5.726   5.048   6.882 -0.4356  2.5131 -0.3989
 5685TIP3    H241251   5.580   5.075   6.914 -1.2420 -1.3212 -0.3363
 5686TIP3   OH241252   0.511   3.560   7.998 -0.1854 -0.1066 -0.2577
 5686TIP3    H141253   0.603   3.562   8.023 -0.1293  0.9662 -0.4625
 5686TIP3    H241254   0.464   3.579   8.080 -0.1405  0.6468 -0.3919
 5687TIP3   OH241255   2.277   2.335   8.204  0.1526 -0.6843  0.0840
 5687TIP3    H141256   2.257   2.309   8.114  1.9017  0.0178 -0.5615
 5687TIP3    H241257   2.303   2.253   8.247 -0.8063 -1.0421  0.0100
 5688TIP3   OH241258   4.675   4.713   6.589 -0.5791 -0.2708  0.3756
 5688TIP3    H141259   4.593   4.754   6.559  0.0241  1.4824  0.9817
 5688TIP3    H241260   4.646   4.643   6.647 -1.6824 -1.4351 -1.4811
 5689TIP3   OH241261   3.167   5.224   8.750  0.3222 -0.5504  0.0188
 5689TIP3    H141262   3.223   5.170   8.694  1.3740 -0.5113  1.0144
 5689TIP3    H241263   3.087   5.173   8.759  0.0579 -0.4873 -1.6412
 5690TIP3   OH241264   1.949   1.138   6.206  0.2545  0.1052  0.4347
 5690TIP3    H141265   1.881   1.170   6.265  0.4385  1.7804 -0.2070
 5690TIP3    H241266   1.938   1.043   6.205 -3.0619  0.3901 -0.8358
 5691TIP3   OH241267   0.188   5.405   7.457  0.5490 -0.0129  0.8532
 5691TIP3    H141268   0.167   5.377   7.368  1.1134  1.2301  0.2997
 5691TIP3    H241269   0.123   5.362   7.512 -0.3667 -0.0954 -0.2626
 5692TIP3   OH241270   5.557   2.511   8.247 -0.4040  0.4190 -0.1054
 5692TIP3    H141271   5.606   2.535   8.326 -1.4211  0.9926  0.3822
 5692TIP3    H241272   5.557   2.416   8.247  0.8712  0.3997 -0.2361
 5693TIP3   OH241273   1.290   2.319   8.442 -0.1437  0.4350 -0.3569
 5693TIP3    H141274   1.199   2.343   8.461 -0.3891 -0.1628 -0.7288
 5693TIP3    H241275   1.310   2.251   8.507  0.5386  1.5820  0.6821
 5694TIP3   OH241276   1.437   0.233   8.208  0.4415 -0.1645  0.2456
 5694TIP3    H141277   1.424   0.237   8.303 -0.7764 -1.3806  0.1624
 5694TIP3    H241278   1.471   0.319   8.185 -0.8434  0.7519  1.5806
 5695TIP3   OH241279   3.973   1.815   6.637 -0.3641  0.6249  0.1771
 5695TIP3    H141280   3.886   1.776   6.632 -0.5911  1.1640 -0.0660
 5695TIP3    H241281   4.027   1.760   6.580 -0.4302  0.0005  0.7015
 5696TIP3   OH241282   5.179   5.746   6.787  0.0366 -0.2914  0.0969
 5696TIP3    H141283   5.190   5.667   6.734  1.5198 -1.7326  2.3946
 5696TIP3    H241284   5.127   5.718   6.862 -0.7820  1.3363  0.1774
 5697TIP3   OH241285   2.930   6.626   7.238  0.6093 -0.2958  0.8556
 5697TIP3    H141286   2.850   6.596   7.282 -1.0341  0.6782 -1.2648
 5697TIP3    H241287   2.918   6.720   7.228  1.3148 -0.3566 -0.8473
 5698TIP3   OH241288   0.920   0.651   9.263  0.2763 -0.2584  0.1195
 5698TIP3    H141289   0.954   0.569   9.300 -2.3195 -1.2730  0.4949
 5698TIP3    H241290   0.998   0.699   9.235  1.9812 -2.1812  1.2700
 5699TIP3   OH241291   6.014   2.465   9.540  0.3475 -0.4989  0.1364
 5699TIP3    H141292   6.006   2.384   9.489 -2.2029 -1.3447  1.7002
 5699TIP3    H241293   6.001   2.535   9.475 -0.7138 -1.4691 -0.7497
 5700TIP3   OH241294   5.974   0.122   7.760 -0.2188  0.2210  0.0144
 5700TIP3    H141295   5.971   0.042   7.708 -0.1591 -0.8260  1.5598
 5700TIP3    H241296   5.911   0.108   7.830  0.0190  1.4075  0.4951
 5701TIP3   OH241297   5.571   4.603   9.031  0.4410  0.0381  0.0883
 5701TIP3    H141298   5.544   4.515   9.004 -1.0456  0.2425  0.7996
 5701TIP3    H241299   5.626   4.588   9.108 -0.0885 -0.2655  0.4153
 5702TIP3   OH241300   4.073   4.751   7.310 -0.2444  0.2388  0.1161
 5702TIP3    H141301   4.037   4.796   7.386 -0.3759  0.7188 -0.2306
 5702TIP3    H241302   4.005   4.689   7.285  0.4343 -1.0706  1.3573
 5703TIP3   OH241303   2.136   6.039   7.888  0.5377  0.2659 -0.3042
 5703TIP3    H141304   2.214   6.089   7.910  1.5437 -1.1917 -0.4742
 5703TIP3    H241305   2.168   5.962   7.841 -0.9362 -0.6869  0.1593
 5704TIP3   OH241306   0.758   4.820   8.979 -0.5293 -0.4300  0.4233
 5704TIP3    H141307   0.715   4.887   8.927 -0.7525  0.0457  1.1967
 5704TIP3    H241308   0.717   4.738   8.951 -2.7795  0.1004  1.8870
 5705TIP3   OH241309   0.905   6.174   7.234  0.1596  1.1505 -0.3964
 5705TIP3    H141310   0.972   6.120   7.275  0.6573  1.5075 -0.7284
 5705TIP3    H241311   0.840   6.187   7.303  0.2495  0.5043 -0.1824
 5706TIP3   OH241312   0.110   1.518   7.653 -0.2453  0.2245  0.1083
 5706TIP3    H141313   0.095   1.467   7.573  1.1927 -0.3072  0.1507
 5706TIP3    H241314   0.031   1.571   7.662 -1.2072 -1.0021 -0.6824
 5707TIP3   OH241315   4.355   4.795   7.826 -0.0724  0.0873 -0.6421
 5707TIP3    H141316   4.312   4.781   7.910  0.5041  0.7764 -0.2179
 5707TIP3    H241317   4.313   4.874   7.791  0.6354  0.6153 -0.3407
 5708TIP3   OH241318   6.404   2.382   8.447 -0.5690 -0.0331  0.5026
 5708TIP3    H141319   6.413   2.427   8.531 -2.0850  1.4106 -0.0560
 5708TIP3    H241320   6.320   2.335   8.453  0.4922 -2.0367  0.6869
 5709TIP3   OH241321   3.130   4.264   9.541  0.4100 -0.1039 -0.5416
 5709TIP3    H141322   3.205   4.284   9.597  1.6029  0.1800 -2.1754
 5709TIP3    H241323   3.060   4.321   9.573  0.6008 -0.9098  1.4910
 5710TIP3   OH241324   5.191   1.827   8.122 -0.2692 -0.2211 -1.0276
 5710TIP3    H141325   5.234   1.808   8.205  1.1574 -1.1527 -1.9281
 5710TIP3    H241326   5.162   1.918   8.130  2.5288  0.7341 -0.5885
 5711TIP3   OH241327   1.099   1.372   6.427  0.0430 -0.2449 -0.0138
 5711TIP3    H141328   1.119   1.280   6.448  0.1542 -0.1505  0.2945
 5711TIP3    H241329   1.006   1.372   6.407  0.2836 -0.6546 -1.2708
 5712TIP3   OH241330   2.859   6.444   8.423  0.2764  0.2660  0.7156
 5712TIP3    H141331   2.806   6.520   8.399 -0.6185 -0.1247  1.4042
 5712TIP3    H241332   2.817   6.409   8.501  0.9866 -0.6305  0.7111
 5713TIP3   OH241333   2.254   4.105   9.325 -0.3866  0.1116 -0.9921
 5713TIP3    H141334   2.307   4.130   9.249  1.1744 -1.9676 -0.6741
 5713TIP3    H241335   2.275   4.170   9.392  2.0686 -0.8161 -0.7733
 5714TIP3   OH241336   1.716   4.858   9.098  0.2389 -0.5918  0.3103
 5714TIP3    H141337   1.792   4.865   9.156 -0.7930 -0.7272  1.7365
 5714TIP3    H241338   1.641   4.858   9.157 -0.7987 -2.4112 -0.9167
 5715TIP3   OH241339   5.156   6.293   6.671 -0.7604  0.2505 -0.6249
 5715TIP3    H141340   5.230   6.258   6.623 -1.3575 -1.4068 -0.4029
 5715TIP3    H241341   5.092   6.221   6.673 -0.8214  0.2372  2.4882
 5716TIP3   OH241342   1.220   1.516   9.901  0.4773  0.3982  0.2013
 5716TIP3    H141343   1.178   1.441   9.860  0.4998  0.2334  0.4807
 5716TIP3    H241344   1.185   1.518   9.990  0.3329  0.8284  0.1398
 5717TIP3   OH241345   1.227   0.527   6.898  0.4962  0.4370 -0.1973
 5717TIP3    H141346   1.169   0.571   6.836 -0.7789  1.6229  1.7143
 5717TIP3    H241347   1.240   0.440   6.862 -0.4526  0.9701 -1.9308
 5718TIP3   OH241348   5.918   3.524   7.647  0.0038 -0.6428 -0.1581
 5718TIP3    H141349   5.893   3.587   7.580 -1.1165 -0.5435  0.3372
 5718TIP3    H241350   6.008   3.548   7.671  0.3704 -0.6000 -1.5093
 5719TIP3   OH241351   1.006   1.203   7.683 -0.0944 -0.2794 -0.2187
 5719TIP3    H141352   0.932   1.143   7.674 -1.5459  1.5245 -0.8647
 5719TIP3    H241353   1.079   1.159   7.639 -0.9008 -1.8644 -0.0213
 5720TIP3   OH241354   5.666   4.910   9.618  0.0160  0.0257  0.2378
 5720TIP3    H141355   5.604   4.983   9.614  0.0578  0.0065 -2.0760
 5720TIP3    H241356   5.611   4.832   9.626 -0.2150  0.0943 -0.6079
 5721TIP3   OH241357   1.148   6.048   7.953  0.2212  0.8675 -0.3280
 5721TIP3    H141358   1.062   6.029   7.915  1.6423 -1.1802 -2.8112
 5721TIP3    H241359   1.153   6.144   7.954 -1.4484  1.0190 -1.6800
 5722TIP3   OH241360   6.369   0.001   6.999  0.1364 -0.2055 -0.2476
 5722TIP3    H141361   6.442   0.039   7.047 -0.5419  0.7001  0.0839
 5722TIP3    H241362   6.370   0.044   6.914  1.7515 -2.2886 -1.3815
 5723TIP3   OH241363   2.020   5.387   6.832 -0.2127 -0.0980  0.3606
 5723TIP3    H141364   1.927   5.373   6.819 -0.1480 -1.4277  1.0540
 5723TIP3    H241365   2.036   5.477   6.805 -1.6250  0.0307 -0.1033
 5724TIP3   OH241366   0.577   5.120   7.483  0.1382  0.4578 -0.0712
 5724TIP3    H141367   0.527   5.072   7.417 -0.7580 -0.8126  1.4617
 5724TIP3    H241368   0.520   5.193   7.508 -0.3034 -0.0581  0.4971
 5725TIP3   OH241369   5.381   0.310   7.156  0.5216 -0.2259 -0.2109
 5725TIP3    H141370   5.456   0.252   7.141  0.1273 -0.5093 -1.1726
 5725TIP3    H241371   5.408   0.365   7.229  1.4043 -0.7777 -0.1004
 5726TIP3   OH241372   2.344   0.078   6.864 -0.6597 -0.3205 -0.4250
 5726TIP3    H141373   2.340   0.087   6.769  0.4581 -2.1902 -0.6904
 5726TIP3    H241374   2.373  -0.012   6.879  0.3661  0.2893  1.6553
 5727TIP3   OH241375   6.681   5.287   7.585  0.6436 -0.0492 -0.5123
 5727TIP3    H141376   6.605   5.229   7.582 -0.1537  0.8775  0.6469
 5727TIP3    H241377   6.646   5.371   7.617  2.0733  0.5287 -0.3793
 5728TIP3   OH241378   5.213   2.823  10.590  0.4861 -0.6241 -0.2058
 5728TIP3    H141379   5.284   2.767  10.557  0.3437 -0.9253 -0.0053
 5728TIP3    H241380   5.162   2.844  10.512  0.2057 -1.2590 -0.2023
 5729TIP3   OH241381   6.667   5.578   7.279  0.3244  0.2315  0.1708
 5729TIP3    H141382   6.621   5.586   7.196  0.4714  1.4624  0.1893
 5729TIP3    H241383   6.677   5.483   7.292 -0.7669 -0.0105 -0.6030
 5730TIP3   OH241384   4.163   4.042   6.788 -0.1317  0.0724 -0.2286
 5730TIP3    H141385   4.246   4.001   6.813 -0.1175  1.0370  1.5258
 5730TIP3    H241386   4.185   4.099   6.715  0.8147  0.5062  0.3837
 5731TIP3   OH241387   0.496   4.170   8.822 -0.3567  0.5132 -0.0640
 5731TIP3    H141388   0.435   4.104   8.855  1.5689 -0.6710  1.2940
 5731TIP3    H241389   0.577   4.122   8.806  0.6365  2.2790 -0.5891
 5732TIP3   OH241390   1.237   2.036   8.341  0.0527 -0.5954  0.0422
 5732TIP3    H141391   1.144   2.052   8.358  0.4972  0.3296  1.8636
 5732TIP3    H241392   1.273   2.123   8.325  0.7463 -0.8643  0.1318
 5733TIP3   OH241393   1.126   1.431   9.337  0.3678  0.2634 -0.1332
 5733TIP3    H141394   1.181   1.491   9.387  0.8114 -0.4749  0.2910
 5733TIP3    H241395   1.119   1.353   9.393  0.6195 -0.4598 -1.0787
 5734TIP3   OH241396   4.153   5.825   7.729  0.4129 -0.1841  0.0838
 5734TIP3    H141397   4.122   5.888   7.664  1.0326 -1.7673 -1.8621
 5734TIP3    H241398   4.245   5.811   7.707 -0.0034 -2.6639 -0.3989
 5735TIP3   OH241399   6.081   2.672   9.289  0.0892 -0.8544 -0.4602
 5735TIP3    H141400   6.152   2.713   9.338  0.4425 -2.1499  0.1619
 5735TIP3    H241401   6.106   2.683   9.197  0.0116  0.5536 -0.3357
 5736TIP3   OH241402   2.880   1.642   8.855 -0.2912  0.1737  0.3116
 5736TIP3    H141403   2.970   1.677   8.852 -0.1669 -0.1971 -1.8266
 5736TIP3    H241404   2.867   1.617   8.947  1.3073  1.4508  0.9392
 5737TIP3   OH241405   2.161   3.687   7.862 -0.0561 -0.1928  0.0896
 5737TIP3    H141406   2.252   3.703   7.885 -0.6525  2.0672  1.2331
 5737TIP3    H241407   2.161   3.674   7.767  1.6341 -2.1797  0.3162
 5738TIP3   OH241408   1.618   1.984   7.921  0.1931  0.5881 -0.1684
 5738TIP3    H141409   1.552   2.053   7.934  2.1075  2.1423  2.2101
 5738TIP3    H241410   1.581   1.907   7.966 -0.5321  1.0574  0.0595
 5739TIP3   OH241411   4.684   1.163   7.472  0.4955  0.1391  0.3361
 5739TIP3    H141412   4.725   1.233   7.421 -1.3029  0.7186 -0.3898
 5739TIP3    H241413   4.680   1.197   7.561  0.3032  0.6545  0.1308
 5740TIP3   OH241414   6.380   2.623   9.689 -0.1100  0.3197  0.1998
 5740TIP3    H141415   6.353   2.616   9.598 -0.1439  1.1535  0.1391
 5740TIP3    H241416   6.474   2.608   9.688 -0.0334  0.8203 -0.0354
 5741TIP3   OH241417   0.226   5.624   7.195  0.3621 -0.0442 -0.4790
 5741TIP3    H141418   0.137   5.620   7.229  0.7598 -1.9224  0.4934
 5741TIP3    H241419   0.277   5.664   7.266  0.2939  1.3318 -1.1567
 5742TIP3   OH241420   1.390   1.612   8.821  0.1915 -0.4568  0.7494
 5742TIP3    H141421   1.335   1.562   8.882 -1.6843  1.7385  0.9994
 5742TIP3    H241422   1.420   1.687   8.872  2.9587 -1.2338  0.3991
 5743TIP3   OH241423   0.148   3.690  16.539  0.1455  0.6554  0.1754
 5743TIP3    H141424   0.219   3.662  16.596  0.4364  0.5923 -0.2120
 5743TIP3    H241425   0.074   3.703  16.597 -0.5044 -2.5004  0.2407
 5744TIP3   OH241426   2.966   5.114   7.348  0.1543 -0.0445 -0.3154
 5744TIP3    H141427   3.029   5.123   7.419  1.9123  1.9460 -1.9761
 5744TIP3    H241428   2.926   5.201   7.342 -0.8583 -0.5429 -0.9984
 5745TIP3   OH241429   0.724   2.907   8.890 -0.7407 -0.3161  0.1092
 5745TIP3    H141430   0.684   2.851   8.824  0.0348 -1.0968  0.2823
 5745TIP3    H241431   0.766   2.846   8.951  0.8663  0.4518 -0.1592
 5746TIP3   OH241432   1.501   3.255   8.489 -0.3025  0.6738 -0.9736
 5746TIP3    H141433   1.590   3.285   8.508  0.3778 -2.0527  0.5934
 5746TIP3    H241434   1.450   3.284   8.565 -0.0225 -0.5029 -0.3151
 5747TIP3   OH241435   2.771   3.141   9.671 -0.7847  0.0289  0.5386
 5747TIP3    H141436   2.766   3.224   9.718  2.5695 -0.1793  1.5295
 5747TIP3    H241437   2.754   3.075   9.738 -2.8237 -0.1748 -0.1162
 5748TIP3   OH241438   0.889   0.218   7.258 -0.1981 -0.0277  0.0473
 5748TIP3    H141439   0.982   0.234   7.275 -0.0187 -0.6371 -0.3264
 5748TIP3    H241440   0.844   0.266   7.328  0.5104 -2.8254  2.6367
 5749TIP3   OH241441   2.487   2.476   6.425  0.3678 -0.4801 -0.4850
 5749TIP3    H141442   2.474   2.543   6.492  1.1615  0.3138 -1.1027
 5749TIP3    H241443   2.398   2.454   6.396  0.1194  1.4125 -1.3307
 5750TIP3   OH241444   5.208   3.423   8.251 -0.0029 -0.7601 -0.1829
 5750TIP3    H141445   5.234   3.448   8.340  0.3932 -1.2846 -0.1489
 5750TIP3    H241446   5.149   3.348   8.263  0.3270 -1.0556 -0.3730
 5751TIP3   OH241447   0.224   4.747   7.719 -0.5791  0.3759 -0.0562
 5751TIP3    H141448   0.270   4.674   7.678 -1.3589 -0.1159 -0.0919
 5751TIP3    H241449   0.165   4.705   7.782  0.7625  1.1312  1.7601
 5752TIP3   OH241450   2.086   3.123   8.597  0.2132 -0.4467  0.2250
 5752TIP3    H141451   2.094   3.067   8.674 -0.1358 -0.2203  0.4259
 5752TIP3    H241452   2.032   3.073   8.536  1.0987 -0.9421 -0.1725
 5753TIP3   OH241453   3.287   5.630   8.586  0.1968 -0.1469  0.1674
 5753TIP3    H141454   3.326   5.632   8.498  0.2828  1.6237  0.2055
 5753TIP3    H241455   3.224   5.703   8.585 -0.5209 -0.7277  1.2725
 5754TIP3   OH241456   5.684   0.720   7.463 -0.3408 -0.4685  0.3180
 5754TIP3    H141457   5.626   0.645   7.472 -0.2068 -0.5074  0.9018
 5754TIP3    H241458   5.633   0.784   7.413 -0.7991 -0.5929  0.6184
 5755TIP3   OH241459   0.427   4.614   7.994  0.2153  0.2168 -0.5680
 5755TIP3    H141460   0.335   4.586   8.002  0.2045 -0.4725 -2.5125
 5755TIP3    H241461   0.477   4.533   7.994  0.7411  0.5355 -0.5001
 5756TIP3   OH241462   4.949   2.384   7.887  0.0904  0.3509 -0.2348
 5756TIP3    H141463   5.016   2.324   7.920 -1.1946 -1.7402 -1.2145
 5756TIP3    H241464   4.982   2.411   7.801  0.5072  0.7958  0.0592
 5757TIP3   OH241465   1.357   3.426   8.079  0.3813  0.1379  0.5668
 5757TIP3    H141466   1.352   3.346   8.133 -2.4054 -0.0029  0.2744
 5757TIP3    H241467   1.385   3.395   7.994  0.6848 -0.3153  0.8264
 5758TIP3   OH241468   1.410   3.950   8.395  0.3721  0.4279  0.4154
 5758TIP3    H141469   1.376   3.868   8.431  1.3620  0.7784  2.2906
 5758TIP3    H241470   1.484   3.923   8.340 -0.2848 -0.0221 -0.2688
 5759TIP3   OH241471   3.191   4.216   7.191 -0.0591  0.5712 -0.4702
 5759TIP3    H141472   3.160   4.241   7.104 -1.6261  1.0464  0.1921
 5759TIP3    H241473   3.114   4.183   7.236  0.6973  0.4160  0.7780
 5760TIP3   OH241474   0.508   1.519  10.411 -0.8020 -0.2984 -0.5670
 5760TIP3    H141475   0.511   1.592  10.348  0.4601  1.5749  1.5176
 5760TIP3    H241476   0.595   1.520  10.452 -2.6654  1.1884  3.9139
 5761TIP3   OH241477   1.688   5.237   7.254 -0.2775  0.0427  0.3421
 5761TIP3    H141478   1.742   5.250   7.332  0.1928  2.0968 -0.2620
 5761TIP3    H241479   1.741   5.271   7.182 -1.4731 -0.0185 -0.5934
 5762TIP3   OH241480   6.716   6.063   8.040 -0.0247 -0.2022 -0.1188
 5762TIP3    H141481   6.680   6.038   8.125 -1.3991  0.2134 -0.5518
 5762TIP3    H241482   6.677   6.149   8.021  1.3380  0.3579 -0.5579
 5763TIP3   OH241483   2.938   1.990   8.500 -0.0517  0.2669  0.1929
 5763TIP3    H141484   2.885   1.952   8.431  2.4188 -0.7481 -1.2637
 5763TIP3    H241485   2.878   2.049   8.547 -2.5458 -1.2232 -0.9441
 5764TIP3   OH241486   2.659   0.487   7.317  0.2420  0.3404  0.0268
 5764TIP3    H141487   2.648   0.392   7.328 -2.6703  0.1514 -2.9783
 5764TIP3    H241488   2.609   0.525   7.389 -0.2041 -0.4466  0.1472
 5765TIP3   OH241489   5.995   1.085   6.563 -0.1179 -0.0057 -0.1829
 5765TIP3    H141490   6.057   1.096   6.635 -0.0500 -0.4201 -0.1766
 5765TIP3    H241491   5.946   1.168   6.561 -1.0894 -0.4936  1.2616
 5766TIP3   OH241492   2.091   5.190   7.036 -0.5449 -0.4165 -0.0266
 5766TIP3    H141493   2.088   5.264   6.976  0.9632  0.5961  1.0646
 5766TIP3    H241494   2.149   5.127   6.994 -1.6863 -0.9344 -0.8731
 5767TIP3   OH241495   6.169   6.124   6.823 -0.1804 -0.1490  0.3202
 5767TIP3    H141496   6.108   6.057   6.853 -1.2622  0.4119 -0.5606
 5767TIP3    H241497   6.117   6.204   6.819  1.1703  0.8515  1.6691
 5768TIP3   OH241498   3.620   0.562   8.524  0.0429  0.4821 -0.3030
 5768TIP3    H141499   3.578   0.549   8.609 -1.0242  0.0706 -0.8714
 5768TIP3    H241500   3.598   0.652   8.499  1.0255  0.8787  0.1948
 5769TIP3   OH241501   4.344   1.846   7.453 -0.0588 -0.2968  0.0831
 5769TIP3    H141502   4.423   1.803   7.420  0.2696  0.8464 -0.6689
 5769TIP3    H241503   4.373   1.896   7.529  0.0172  0.3546 -0.3637
 5770TIP3   OH241504   5.588   4.883   8.269 -0.4288  0.6370 -0.0768
 5770TIP3    H141505   5.500   4.858   8.298 -0.8671  2.6051  0.4484
 5770TIP3    H241506   5.647   4.825   8.317 -1.4059 -0.0728  0.2863
 5771TIP3   OH241507   3.624   0.261   7.360  0.3401 -0.2095  0.3721
 5771TIP3    H141508   3.575   0.180   7.371 -0.0263 -0.0655 -0.1217
 5771TIP3    H241509   3.573   0.327   7.407 -0.5680  0.1618 -1.0561
 5772TIP3   OH241510   1.951   5.006   8.874  0.2448  0.3040 -0.2280
 5772TIP3    H141511   1.963   5.013   8.969 -0.9804  2.5912 -0.1903
 5772TIP3    H241512   2.036   4.974   8.842  1.3994  1.5412  1.4152
 5773TIP3   OH241513   5.007   3.078   9.737  0.2718  0.7459 -0.1312
 5773TIP3    H141514   4.946   3.006   9.719  0.5542  0.9813 -2.2246
 5773TIP3    H241515   4.980   3.110   9.823  0.4227 -2.1114  1.0992
 5774TIP3   OH241516   2.689   6.409   7.675  0.0945 -0.1564 -0.1029
 5774TIP3    H141517   2.602   6.392   7.638  0.1746  1.8941 -1.4182
 5774TIP3    H241518   2.744   6.337   7.644 -1.2078 -1.8185  1.2444
 5775TIP3   OH241519   4.208   6.164   7.621 -0.2407 -0.5613 -0.1895
 5775TIP3    H141520   4.126   6.214   7.625 -0.3510 -0.6457 -1.1572
 5775TIP3    H241521   4.228   6.143   7.713 -0.0288  1.5160  0.2948
 5776TIP3   OH241522   4.581   1.462   6.560  0.1741 -0.0958  0.1131
 5776TIP3    H141523   4.548   1.447   6.649  0.2055  0.3644  0.2045
 5776TIP3    H241524   4.604   1.375   6.528  1.5660 -0.1080  1.0927
 5777TIP3   OH241525   4.119   6.426   6.781 -0.5353  0.0535  0.0622
 5777TIP3    H141526   4.195   6.479   6.803 -1.5575  1.8996 -0.6859
 5777TIP3    H241527   4.056   6.444   6.851 -0.5804 -0.9332  0.3028
 5778TIP3   OH241528   4.772   0.931   8.139  0.5421 -0.0541 -0.4983
 5778TIP3    H141529   4.835   0.929   8.211 -0.6863  1.5335  0.6749
 5778TIP3    H241530   4.700   0.876   8.169  0.9210 -1.1220 -1.4530
 5779TIP3   OH241531   5.999   5.616   6.736 -0.6218  0.1694 -0.6634
 5779TIP3    H141532   6.009   5.541   6.795  0.0338  0.9390  0.2277
 5779TIP3    H241533   6.066   5.678   6.765 -0.2802  0.5634 -2.2447
 5780TIP3   OH241534   4.994   6.032   6.709 -0.0744 -0.2789  0.1623
 5780TIP3    H141535   5.031   5.986   6.784  1.0725  1.0488  0.4617
 5780TIP3    H241536   4.900   6.029   6.722  0.0812 -0.6419  1.2974
 5781TIP3   OH241537   1.475   2.027   9.894  0.1909  0.1403 -0.0862
 5781TIP3    H141538   1.479   2.034   9.989 -1.7054  2.0456 -0.0806
 5781TIP3    H241539   1.530   1.951   9.873 -0.5272 -1.2572  2.6406
 5782TIP3   OH241540   3.365   3.684   9.031  0.4980 -0.3406 -0.6851
 5782TIP3    H141541   3.396   3.663   9.119  0.9596 -2.6534 -1.3380
 5782TIP3    H241542   3.380   3.779   9.022 -0.4418  0.1306  2.0183
 5783TIP3   OH241543   6.454   6.258   7.981 -0.1716  0.7112  0.1406
 5783TIP3    H141544   6.505   6.333   8.012  0.6782  0.7762 -1.3289
 5783TIP3    H241545   6.365   6.278   8.008 -0.0888  2.6148 -0.7766
 5784TIP3   OH241546   6.202   2.058   9.621  0.0396 -0.0537 -0.1023
 5784TIP3    H141547   6.138   2.114   9.577 -0.1063  0.1567  0.3640
 5784TIP3    H241548   6.149   1.990   9.662  0.1919 -0.3652 -0.4262
 5785TIP3   OH241549   3.790   1.163   7.863  0.0300  1.2849  0.4699
 5785TIP3    H141550   3.852   1.237   7.861  1.5897  0.0563 -1.7503
 5785TIP3    H241551   3.842   1.089   7.892 -1.0404  0.6717  0.8582
 5786TIP3   OH241552   0.500   3.775   9.035  0.4117  0.5331 -0.8484
 5786TIP3    H141553   0.577   3.823   9.064  0.9966 -1.4663  1.2000
 5786TIP3    H241554   0.447   3.764   9.114 -2.1581  2.0416 -2.2388
 5787TIP3   OH241555   5.352   1.669   7.221 -0.3523 -0.2021 -0.4583
 5787TIP3    H141556   5.317   1.647   7.135 -0.3268  0.7505 -0.7313
 5787TIP3    H241557   5.274   1.682   7.276 -0.4007  0.3283 -0.6456
 5788TIP3   OH241558   0.342   1.978   9.134 -0.3807  0.3605  0.4438
 5788TIP3    H141559   0.289   1.978   9.054 -1.7824  2.6666  1.2563
 5788TIP3    H241560   0.428   2.009   9.106 -0.5884  0.2673 -0.3236
 5789TIP3   OH241561   6.181   3.882   8.441 -0.2415  0.1164 -0.0597
 5789TIP3    H141562   6.216   3.889   8.352  0.6633 -0.8337  0.1929
 5789TIP3    H241563   6.088   3.862   8.429  0.1896 -1.6638 -0.8614
 5790TIP3   OH241564   6.553   6.599   6.288 -1.0920  0.2361 -0.1660
 5790TIP3    H141565   6.585   6.591   6.378 -2.6325  0.2807  0.4123
 5790TIP3    H241566   6.467   6.556   6.289 -0.1474 -1.8812 -2.1906
 5791TIP3   OH241567   4.058   4.573  10.000  0.1525  0.1467  0.5395
 5791TIP3    H141568   4.088   4.487  10.029 -0.1648  0.1206  0.7919
 5791TIP3    H241569   3.967   4.578  10.029 -0.2290  0.0485 -0.5918
 5792TIP3   OH241570   2.438   2.324   8.487 -0.2074 -0.2333  0.3569
 5792TIP3    H141571   2.402   2.268   8.418 -0.7470 -1.0212  1.2385
 5792TIP3    H241572   2.456   2.263   8.559  0.3769  0.5609  0.8917
 5793TIP3   OH241573   4.896   6.007   8.023  0.2610  0.5915 -0.4328
 5793TIP3    H141574   4.880   6.086   7.972  1.7037 -0.1039 -2.0731
 5793TIP3    H241575   4.978   6.024   8.069 -1.0765  1.2621  1.9000
 5794TIP3   OH241576   1.327   1.552   9.499 -0.0515 -0.0619  0.0504
 5794TIP3    H141577   1.388   1.624   9.481  0.7128 -0.8560 -0.6231
 5794TIP3    H241578   1.364   1.506   9.574 -0.8988  0.6233  0.9135
 5795TIP3   OH241579   6.276   6.230   7.074 -0.1135  0.3353 -0.1329
 5795TIP3    H141580   6.269   6.203   6.982  0.8029 -0.8541  0.1276
 5795TIP3    H241581   6.291   6.149   7.122  1.6902  1.1676  0.8053
 5796TIP3   OH241582   3.176   2.508   7.941 -0.5220 -0.2261  0.2073
 5796TIP3    H141583   3.150   2.529   7.851 -0.0656  0.5611  0.2555
 5796TIP3    H241584   3.094   2.486   7.985 -0.6143 -2.0638 -0.7589
 5797TIP3   OH241585   4.994   5.873   8.498  0.0962  0.6222  0.3498
 5797TIP3    H141586   4.998   5.945   8.435  2.2302  1.0846  0.9042
 5797TIP3    H241587   4.938   5.807   8.458 -0.6263  1.9423 -0.8759
 5798TIP3   OH241588   6.430   2.848   8.066  0.4407 -0.2830  0.5096
 5798TIP3    H141589   6.361   2.788   8.094 -1.3026  0.3025 -2.1417
 5798TIP3    H241590   6.391   2.935   8.078  1.4693  0.1426  0.7898
 5799TIP3   OH241591   1.224   3.656  10.479 -0.3757  0.3802  0.3470
 5799TIP3    H141592   1.129   3.653  10.481 -0.4417  1.8947  0.9440
 5799TIP3    H241593   1.245   3.749  10.465  0.9938  0.4268  2.2675
 5800TIP3   OH241594   1.195   5.699   9.478  0.7827  1.1879  0.5806
 5800TIP3    H141595   1.182   5.794   9.474 -0.6164  1.0718  1.6771
 5800TIP3    H241596   1.285   5.689   9.510  0.5754  2.1709  1.5403
 5801TIP3   OH241597   3.351   3.718   6.695  0.0661 -0.1029  0.2656
 5801TIP3    H141598   3.416   3.780   6.728 -1.2229  1.1621  0.5351
 5801TIP3    H241599   3.388   3.632   6.713  0.7554  0.5644  2.2863
 5802TIP3   OH241600   5.972   4.139   9.900 -0.0364 -0.0911 -0.1650
 5802TIP3    H141601   6.066   4.154   9.894 -0.0478  0.4890  0.9637
 5802TIP3    H241602   5.964   4.044   9.914  0.5206  0.1312  1.9941
 5803TIP3   OH241603   2.809   5.574   7.013 -0.1043 -0.0728  0.3230
 5803TIP3    H141604   2.874   5.583   7.082 -1.2040 -0.5357  1.4596
 5803TIP3    H241605   2.787   5.480   7.013 -1.2952  0.1922  0.4761
 5804TIP3   OH241606   2.038   0.444   7.533  0.3245  0.2582 -0.2066
 5804TIP3    H141607   2.031   0.493   7.615  0.1362 -0.8351  0.4537
 5804TIP3    H241608   1.950   0.444   7.497 -0.3428 -1.9319  1.2220
 5805TIP3   OH241609   1.926   4.040   8.483  0.0385  1.0966  1.2232
 5805TIP3    H141610   1.988   3.972   8.510  0.6098  1.0174 -0.1737
 5805TIP3    H241611   1.888   4.072   8.564 -1.0532 -1.6519  1.9136
 5806TIP3   OH241612   0.842   2.536   6.866  0.5434 -0.2236  0.4717
 5806TIP3    H141613   0.786   2.609   6.838  0.3764 -0.3840  0.3873
 5806TIP3    H241614   0.885   2.507   6.786 -0.4786 -1.1504  0.2355
 5807TIP3   OH241615   5.774   5.975   8.034  0.2637 -0.2995  0.2769
 5807TIP3    H141616   5.801   5.888   8.004  0.6620 -0.4156  0.9391
 5807TIP3    H241617   5.790   6.033   7.959 -0.8830 -0.9380 -0.4872
 5808TIP3   OH241618   5.743   4.192   8.232 -0.1482 -0.2586 -0.1420
 5808TIP3    H141619   5.774   4.134   8.301 -0.1644 -0.7973 -0.5857
 5808TIP3    H241620   5.702   4.134   8.168 -1.2387  0.3518 -0.0159
 5809TIP3   OH241621   0.518   5.910   8.220 -0.2602 -0.2330 -0.0245
 5809TIP3    H141622   0.443   5.901   8.278 -2.5412  1.3077 -2.5280
 5809TIP3    H241623   0.562   5.825   8.224 -2.6769 -1.5427  0.7960
 5810TIP3   OH241624   5.876   1.608   8.687 -0.4339  0.4154  0.9375
 5810TIP3    H141625   5.956   1.659   8.702  0.2689 -0.9446  2.1872
 5810TIP3    H241626   5.805   1.665   8.716  0.1853  1.2511  0.8366
 5811TIP3   OH241627   4.362   4.670   9.667 -0.2289 -0.7367  0.1604
 5811TIP3    H141628   4.453   4.643   9.682  0.1743  0.3125 -0.3499
 5811TIP3    H241629   4.337   4.717   9.746  0.4351  0.9392 -0.5942
 5812TIP3   OH241630   5.235   0.496   9.049  0.9900  0.1066 -0.1780
 5812TIP3    H141631   5.219   0.459   9.135  1.1943 -1.2778 -0.7177
 5812TIP3    H241632   5.283   0.577   9.066 -1.8669  1.6639  1.1879
 5813TIP3   OH241633   6.467   5.368   9.362  0.2765 -0.0593  0.0011
 5813TIP3    H141634   6.521   5.335   9.434  1.3934  2.7279  0.5737
 5813TIP3    H241635   6.377   5.351   9.391  0.6977  0.7420  1.9863
 5814TIP3   OH241636   3.231   0.166   7.013  0.2443  0.1170 -0.0513
 5814TIP3    H141637   3.168   0.237   6.997  0.6419  0.8031  1.2470
 5814TIP3    H241638   3.316   0.208   7.001  0.5071  0.1389  1.6525
 5815TIP3   OH241639   1.401   2.122   9.468 -0.0005  0.1620  0.3820
 5815TIP3    H141640   1.362   2.075   9.542 -0.1641  2.5748  1.9446
 5815TIP3    H241641   1.328   2.168   9.426  0.0570 -1.3203 -1.4746
 5816TIP3   OH241642   4.766   2.226   8.846  0.1282  0.1323 -0.3868
 5816TIP3    H141643   4.857   2.251   8.834  0.1499 -0.6578 -2.1078
 5816TIP3    H241644   4.742   2.181   8.765 -1.8132  0.3735  0.0034
 5817TIP3   OH241645   3.356   0.167   9.306 -0.7752 -0.1285 -0.5990
 5817TIP3    H141646   3.352   0.263   9.304  0.9966  0.0948  1.9911
 5817TIP3    H241647   3.268   0.139   9.280 -0.9553  2.1094 -2.7155
 5818TIP3   OH241648   2.149   2.129   8.735  0.1451 -0.0653  0.2349
 5818TIP3    H141649   2.084   2.069   8.773  0.2930  0.3826  1.2166
 5818TIP3    H241650   2.231   2.108   8.780  0.8616 -1.0124 -1.3845
 5819TIP3   OH241651   3.415   0.477   8.733 -0.2823  0.0143  0.2208
 5819TIP3    H141652   3.393   0.497   8.824 -0.3180 -0.7525  0.3868
 5819TIP3    H241653   3.360   0.536   8.681 -0.5240  0.2032  0.6898
 5820TIP3   OH241654   4.097   5.666   8.749 -0.0190 -0.2006  0.1977
 5820TIP3    H141655   4.097   5.586   8.696  0.3855 -0.6517  0.8545
 5820TIP3    H241656   4.030   5.721   8.709 -0.4943 -0.9780 -0.1196
 5821TIP3   OH241657   4.489   3.823  10.469  0.1420 -0.4034 -0.0430
 5821TIP3    H141658   4.506   3.743  10.420  0.0071 -1.9475  2.2665
 5821TIP3    H241659   4.400   3.848  10.444 -0.7299 -2.3555  0.8656
 5822TIP3   OH241660   1.132   0.189   7.389  0.3291  0.0066 -0.0709
 5822TIP3    H141661   1.190   0.254   7.349 -0.1445 -0.2975 -1.2868
 5822TIP3    H241662   1.181   0.107   7.385  1.3424  0.3895  2.3629
 5823TIP3   OH241663   0.974   5.389   8.169  0.5033  0.9304 -0.0149
 5823TIP3    H141664   0.983   5.433   8.084 -1.1651 -0.9563 -1.2910
 5823TIP3    H241665   0.894   5.337   8.160  0.9606 -0.3124  2.2915
 5824TIP3   OH241666   1.761   6.477   7.924 -0.2085 -0.2543 -0.2162
 5824TIP3    H141667   1.835   6.461   7.983  0.8426 -0.5292 -1.5619
 5824TIP3    H241668   1.726   6.562   7.952  1.8685  0.8643 -0.7877
 5825TIP3   OH241669   0.162   6.695   7.680  0.3977  0.1052 -0.1653
 5825TIP3    H141670   0.102   6.696   7.606  0.7654 -1.9678 -0.5644
 5825TIP3    H241671   0.242   6.736   7.647 -0.2318  1.4077 -0.1263
 5826TIP3   OH241672   3.467   4.580   9.550  0.4264  0.1923 -0.9534
 5826TIP3    H141673   3.444   4.503   9.601  1.2214  0.5340 -0.0629
 5826TIP3    H241674   3.484   4.648   9.615 -0.0108  1.0570 -1.7133
 5827TIP3   OH241675   1.501   0.491   8.100 -0.5775 -0.0768  0.3297
 5827TIP3    H141676   1.595   0.489   8.085 -0.6194 -1.1385  0.1352
 5827TIP3    H241677   1.489   0.548   8.176  0.1080  1.0472 -0.3839
 5828TIP3   OH241678   0.738   1.255   8.005 -0.1653 -0.1014  0.3521
 5828TIP3    H141679   0.745   1.319   7.935 -0.3011 -0.3195  0.1385
 5828TIP3    H241680   0.644   1.246   8.021 -0.1034  0.8255  1.3796
 5829TIP3   OH241681   1.439   3.290   8.756  0.2751 -0.6533 -0.7204
 5829TIP3    H141682   1.397   3.371   8.784  1.4476  0.5407 -2.2461
 5829TIP3    H241683   1.475   3.252   8.837  0.7792  0.9977 -0.1409
 5830TIP3   OH241684   5.096   4.963   8.301 -0.4548 -0.2949  0.5186
 5830TIP3    H141685   5.119   5.021   8.229  0.8925  1.1757  2.0508
 5830TIP3    H241686   5.080   5.021   8.375  1.0315 -1.8479  2.1591
 5831TIP3   OH241687   0.523   0.169   6.325  0.4015 -0.3040  0.3611
 5831TIP3    H141688   0.504   0.156   6.232  0.5291  1.1094  0.1248
 5831TIP3    H241689   0.573   0.091   6.349  0.4908 -0.6320 -0.7920
 5832TIP3   OH241690   1.895   1.902   9.222 -0.2550 -0.3196  0.4342
 5832TIP3    H141691   1.825   1.894   9.158 -1.0442 -0.7013  1.3137
 5832TIP3    H241692   1.853   1.884   9.306  0.5518  1.0292  1.1746
 5833TIP3   OH241693   2.297   5.984   8.716  0.5066 -0.1364  0.5636
 5833TIP3    H141694   2.362   5.915   8.731  1.9400  0.9035 -0.4892
 5833TIP3    H241695   2.213   5.941   8.729  1.3048 -2.2766 -0.7064
 5834TIP3   OH241696   1.136   5.971   7.242  0.1626 -0.4489 -0.0135
 5834TIP3    H141697   1.219   5.922   7.238  0.7815  0.6448 -1.3641
 5834TIP3    H241698   1.068   5.904   7.233  0.9574 -1.1767 -0.8050
 5835TIP3   OH241699   6.263   2.013   7.488  0.1703  0.0484  0.4927
 5835TIP3    H141700   6.292   2.098   7.454 -0.6098  1.1149  2.3482
 5835TIP3    H241701   6.263   2.024   7.583 -0.1047 -2.0005  0.7773
 5836TIP3   OH241702   3.622   2.939   8.090 -0.0140  0.4868  0.1959
 5836TIP3    H141703   3.558   3.008   8.106  0.7268  1.6269 -1.4459
 5836TIP3    H241704   3.587   2.892   8.013  1.9969  2.3934 -2.0210
 5837TIP3   OH241705   4.048   3.684   8.919 -0.4015 -0.5108 -0.1400
 5837TIP3    H141706   3.972   3.735   8.949 -1.1327 -0.6091 -1.7373
 5837TIP3    H241707   4.091   3.740   8.855  0.2687 -0.8852 -0.0272
 5838TIP3   OH241708   3.148   0.268   6.766  0.7749  0.9685  0.2717
 5838TIP3    H141709   3.094   0.327   6.714  1.7761  0.2377 -1.6854
 5838TIP3    H241710   3.086   0.219   6.819 -0.2738  1.8051 -0.1340
 5839TIP3   OH241711   5.924   3.228  10.602 -0.5739  0.3691 -0.4035
 5839TIP3    H141712   5.831   3.243  10.620 -0.7331 -1.9425  1.0766
 5839TIP3    H241713   5.970   3.277  10.670 -0.6704  1.4096 -1.0594
 5840TIP3   OH241714   0.133   3.371   7.951  0.4761  0.0095  0.0481
 5840TIP3    H141715   0.130   3.296   8.010  1.9494 -0.3899 -0.3485
 5840TIP3    H241716   0.165   3.336   7.868 -0.7457  0.7207 -0.7632
 5841TIP3   OH241717   5.012   3.726   8.464 -0.1939  0.2184  0.0839
 5841TIP3    H141718   5.018   3.817   8.495  1.3827  0.7067 -1.5373
 5841TIP3    H241719   5.080   3.718   8.398 -1.1527 -1.7985 -0.7411
 5842TIP3   OH241720   2.786   5.211   8.068  0.1638 -0.0029  0.5900
 5842TIP3    H141721   2.754   5.298   8.046 -0.0148 -0.3412 -0.5546
 5842TIP3    H241722   2.732   5.184   8.143 -0.2263  0.6105  0.5360
 5843TIP3   OH241723   5.690   0.995   8.611  0.0923  0.1389  0.0683
 5843TIP3    H141724   5.743   1.074   8.624  0.1131 -0.0366  1.0906
 5843TIP3    H241725   5.602   1.021   8.639 -0.0655  0.0228 -0.3194
 5844TIP3   OH241726   1.862   4.470   8.145 -0.2449  0.5769 -0.1560
 5844TIP3    H141727   1.784   4.473   8.089  0.8350  1.0926 -1.6780
 5844TIP3    H241728   1.837   4.412   8.217 -1.6635 -0.1498 -1.1829
 5845TIP3   OH241729   3.947   4.591   9.300  0.0215  0.3111  0.4918
 5845TIP3    H141730   4.034   4.592   9.340 -0.5894 -4.1285  2.5510
 5845TIP3    H241731   3.887   4.579   9.373 -2.0094  0.0454 -1.1315
 5846TIP3   OH241732   4.540   4.314   8.559 -0.3734  0.2483 -0.0670
 5846TIP3    H141733   4.484   4.237   8.551 -1.2669  0.9318 -0.6304
 5846TIP3    H241734   4.478   4.386   8.576  0.5027  0.7076  1.3955
 5847TIP3   OH241735   3.625   3.475  10.442 -0.3622 -0.0296  0.3700
 5847TIP3    H141736   3.702   3.522  10.412 -0.9935  0.5445 -0.4033
 5847TIP3    H241737   3.593   3.525  10.517 -0.6184  0.3655 -0.0019
 5848TIP3   OH241738   5.997   1.979   6.792 -0.0982 -0.7321 -0.4463
 5848TIP3    H141739   6.072   2.031   6.820  0.7369 -1.4277 -1.2984
 5848TIP3    H241740   5.960   1.943   6.872  1.2073 -1.3304 -0.0885
 5849TIP3   OH241741   5.024   2.751   6.902 -0.0753  0.3266 -0.4419
 5849TIP3    H141742   5.060   2.789   6.822  1.3792 -1.4828 -0.7052
 5849TIP3    H241743   4.976   2.823   6.943  0.5866  1.7618 -2.0678
 5850TIP3   OH241744   5.115   3.296   7.622  0.5887 -0.0998 -0.4477
 5850TIP3    H141745   5.197   3.330   7.588  0.4799 -0.2382 -0.8530
 5850TIP3    H241746   5.048   3.356   7.589  0.3298 -1.0198 -1.6619
 5851TIP3   OH241747   0.270   1.654  10.214  0.6121 -0.0463  0.1990
 5851TIP3    H141748   0.351   1.651  10.163 -0.1752 -3.4059 -1.0753
 5851TIP3    H241749   0.206   1.608  10.160 -1.5817  0.4937  2.1868
 5852TIP3   OH241750   2.746   0.094   7.094  0.4086 -0.2523  0.1615
 5852TIP3    H141751   2.689   0.138   7.157  0.7704 -1.8748  1.6812
 5852TIP3    H241752   2.702   0.012   7.074  2.3014 -1.7454  1.6992
 5853TIP3   OH241753   1.781   1.367   9.124 -0.3622 -0.2171 -0.2499
 5853TIP3    H141754   1.799   1.385   9.032  1.0839 -1.3247 -0.2179
 5853TIP3    H241755   1.704   1.310   9.122 -0.6706  0.2048 -0.7336
 5854TIP3   OH241756   2.310   0.913   8.330  0.3605 -0.5111  0.4336
 5854TIP3    H141757   2.305   0.996   8.283 -0.0100  0.1831  1.6546
 5854TIP3    H241758   2.398   0.881   8.313  1.2069  1.1124  1.5183
 5855TIP3   OH241759   5.921   4.793   9.793 -0.3993  0.1862 -0.2183
 5855TIP3    H141760   5.901   4.733   9.865 -0.4331 -1.3456 -1.4749
 5855TIP3    H241761   5.838   4.837   9.774 -0.3657  0.7011  0.7233
 5856TIP3   OH241762   1.641   3.929   9.570  0.0980  0.1838 -0.3079
 5856TIP3    H141763   1.725   3.911   9.613  0.9636  2.6168 -0.8042
 5856TIP3    H241764   1.626   4.022   9.585 -1.6674  0.1788 -1.7126
 5857TIP3   OH241765   1.667   6.206   7.067  1.1149  0.6092  0.2391
 5857TIP3    H141766   1.644   6.213   6.974  0.3965 -0.4129  0.3248
 5857TIP3    H241767   1.750   6.159   7.068  1.2054  0.7644  0.1092
 5858TIP3   OH241768   3.326   4.214   9.921 -0.5241 -0.2240 -0.0224
 5858TIP3    H141769   3.418   4.196   9.902  0.1621 -1.4264  3.6265
 5858TIP3    H241770   3.281   4.132   9.897 -0.9442  0.7137 -2.7882
 5859TIP3   OH241771   0.541   1.116   6.805  0.1812 -0.0870 -1.0024
 5859TIP3    H141772   0.613   1.180   6.811  0.5297 -0.4253 -1.5549
 5859TIP3    H241773   0.462   1.170   6.810  0.4210  0.1775  1.1475
 5860TIP3   OH241774   3.214   3.396   8.029  0.1346  0.0230 -0.0857
 5860TIP3    H141775   3.255   3.319   8.069 -0.1775  0.3503  0.9023
 5860TIP3    H241776   3.274   3.421   7.959  1.1416 -0.0889  0.7079
 5861TIP3   OH241777   4.855   5.961   7.714 -0.1927 -0.4877  0.1612
 5861TIP3    H141778   4.809   5.966   7.798 -0.0679  0.8056  0.1835
 5861TIP3    H241779   4.822   6.036   7.665  1.2510 -0.0202 -0.1486
 5862TIP3   OH241780   0.849   4.580   7.056 -0.0593 -0.3552  0.2211
 5862TIP3    H141781   0.854   4.676   7.052 -0.0476 -0.3897 -2.6303
 5862TIP3    H241782   0.929   4.553   7.101 -0.2807  0.9390  1.4804
 5863TIP3   OH241783   4.086   1.542   8.621  0.3568 -0.1175 -0.3742
 5863TIP3    H141784   4.115   1.569   8.534  0.4642  2.5330  0.3884
 5863TIP3    H241785   4.091   1.446   8.620  2.1811 -0.0779 -2.6367
 5864TIP3   OH241786   4.392   2.861   6.411 -0.4517  0.4856 -0.5908
 5864TIP3    H141787   4.485   2.838   6.410 -0.4035  0.3239  1.6111
 5864TIP3    H241788   4.347   2.779   6.392 -0.1552 -0.3430  1.8850
 5865TIP3   OH241789   2.186   4.519   9.758 -0.5500  0.0898 -0.1392
 5865TIP3    H141790   2.104   4.470   9.756 -1.4435  1.5433 -0.0735
 5865TIP3    H241791   2.181   4.573   9.836  0.7498 -0.2355  0.1950
 5866TIP3   OH241792   0.241   0.148   7.909  0.4006 -0.3763  0.3783
 5866TIP3    H141793   0.202   0.088   7.845 -0.4830  1.0685 -0.5007
 5866TIP3    H241794   0.334   0.150   7.888  0.1404 -0.0325 -0.7967
 5867TIP3   OH241795   0.122   4.393   9.101 -0.7312 -0.5786 -0.3677
 5867TIP3    H141796   0.114   4.326   9.034  0.0739 -0.8034 -0.2373
 5867TIP3    H241797   0.209   4.381   9.138 -1.5800 -1.2495  1.5595
 5868TIP3   OH241798   1.566   3.502   7.596  0.1412  0.5031 -0.1446
 5868TIP3    H141799   1.522   3.529   7.514 -1.4740 -1.1344  0.1278
 5868TIP3    H241800   1.499   3.454   7.644  1.0294  1.5323  2.2378
 5869TIP3   OH241801   3.946   0.378   7.059 -0.4869 -0.2242 -0.5427
 5869TIP3    H141802   4.040   0.389   7.067 -0.2637 -2.1758 -0.0957
 5869TIP3    H241803   3.911   0.468   7.063  1.3591  0.5696 -1.2964
 5870TIP3   OH241804   6.627   1.090   9.105  0.2597 -0.3079  0.4161
 5870TIP3    H141805   6.662   1.006   9.076  1.7284  0.7122 -0.9285
 5870TIP3    H241806   6.696   1.127   9.159  0.8349  1.1978 -1.2571
 5871TIP3   OH241807   0.229   1.235   7.215 -0.4838  0.0794  0.2691
 5871TIP3    H141808   0.203   1.195   7.132  0.5520  0.1984 -0.1250
 5871TIP3    H241809   0.253   1.160   7.271 -0.3490  0.0476  0.1685
 5872TIP3   OH241810   6.473   3.445   9.808 -0.1233 -0.2604  0.3804
 5872TIP3    H141811   6.529   3.376   9.771 -0.0390  0.2998 -0.5765
 5872TIP3    H241812   6.428   3.402   9.881 -0.8038 -1.6419 -0.7839
 5873TIP3   OH241813   1.421   1.404   6.310  0.2891 -0.5867  0.2065
 5873TIP3    H141814   1.327   1.393   6.325  0.1880 -0.5835 -0.4005
 5873TIP3    H241815   1.429   1.495   6.281  0.4225 -0.7157 -0.1657
 5874TIP3   OH241816   0.879   5.763   7.949 -0.1515  0.1457  0.2341
 5874TIP3    H141817   0.833   5.794   7.871  0.0559 -0.2909 -0.0680
 5874TIP3    H241818   0.922   5.840   7.985 -1.2055  0.5891  0.5839
 5875TIP3   OH241819   4.431   4.761   6.477  0.0520 -0.5511  0.1148
 5875TIP3    H141820   4.348   4.734   6.517 -0.4431 -0.2033 -0.6607
 5875TIP3    H241821   4.425   4.856   6.470  0.6891 -0.4844  0.4241
 5876TIP3   OH241822   4.081   0.616   9.118 -0.0269  0.1266  0.1454
 5876TIP3    H141823   4.025   0.693   9.127  0.1369  0.2463  0.1436
 5876TIP3    H241824   4.122   0.606   9.204 -1.2128 -0.8705  0.6106
 5877TIP3   OH241825   5.940   3.502   8.514 -0.0782 -0.2741  0.6665
 5877TIP3    H141826   5.852   3.466   8.518 -0.7786  1.4249  1.7974
 5877TIP3    H241827   5.934   3.585   8.561  1.1820  1.8451 -2.5795
 5878TIP3   OH241828   2.719   5.123   7.692 -0.2949 -0.2135  0.5258
 5878TIP3    H141829   2.629   5.092   7.699 -0.1869 -0.3708  1.3176
 5878TIP3    H241830   2.758   5.069   7.623 -0.4193 -1.1111  1.1352
 5879TIP3   OH241831   4.380   6.516   6.809 -0.7673 -0.7207  1.0530
 5879TIP3    H141832   4.448   6.526   6.742  0.2302  0.5984  2.2085
 5879TIP3    H241833   4.399   6.432   6.850  0.2646 -0.3175  1.4393
 5880TIP3   OH241834   1.954   6.246   6.871  0.2886 -0.3491 -0.0534
 5880TIP3    H141835   1.901   6.188   6.926  0.3849 -0.1984  0.2017
 5880TIP3    H241836   1.896   6.318   6.848  0.9279  0.8768  1.9060
 5881TIP3   OH241837   5.516   0.543   7.746  0.5972 -0.0029 -0.0300
 5881TIP3    H141838   5.531   0.542   7.652  1.2829  2.0793  0.0031
 5881TIP3    H241839   5.430   0.502   7.757 -1.5333  3.3874 -2.0806
 5882TIP3   OH241840   1.212   2.478   6.897  0.0155  0.4219  0.8820
 5882TIP3    H141841   1.278   2.422   6.856  1.0576  0.1561  2.7642
 5882TIP3    H241842   1.141   2.419   6.920 -0.6411  0.5983 -0.5864
 5883TIP3   OH241843   0.964   0.466   7.435  0.3539 -0.2365 -0.2085
 5883TIP3    H141844   0.897   0.506   7.491  0.4330  1.9859 -1.6114
 5883TIP3    H241845   0.990   0.388   7.483 -1.0747  0.4441  1.8384
 5884TIP3   OH241846   5.625   2.064   7.135 -0.0570 -0.3977  0.3007
 5884TIP3    H141847   5.608   2.071   7.229 -0.6910  2.8885  0.0476
 5884TIP3    H241848   5.554   2.010   7.101 -2.2424  1.7258  1.2286
 5885TIP3   OH241849   0.909   6.657   7.315  0.9111 -0.0445 -0.5243
 5885TIP3    H141850   0.891   6.750   7.299  2.7695  0.6549  0.9487
 5885TIP3    H241851   0.878   6.642   7.405  1.4114 -0.6053 -0.4421
 5886TIP3   OH241852   0.104   4.855   9.464  0.5619  0.3414 -0.0326
 5886TIP3    H141853   0.196   4.880   9.463  0.4227  0.8397 -0.9430
 5886TIP3    H241854   0.057   4.938   9.458  0.0343  0.1158  0.7427
 5887TIP3   OH241855   1.946   2.922   8.464  0.3801  0.4076 -0.0271
 5887TIP3    H141856   1.940   2.900   8.371  1.3312 -0.5091  0.1006
 5887TIP3    H241857   1.861   2.898   8.500  1.2677 -3.1873  0.0713
 5888TIP3   OH241858   5.292   3.104   7.349  0.4037 -0.2710 -0.3309
 5888TIP3    H141859   5.264   3.189   7.382 -1.2926 -0.3809 -1.3811
 5888TIP3    H241860   5.309   3.118   7.256 -1.1906 -1.3289 -0.8205
 5889TIP3   OH241861   5.243   4.571   8.769 -0.6690  0.6195  0.4092
 5889TIP3    H141862   5.229   4.634   8.839 -2.0854 -0.8953  1.5672
 5889TIP3    H241863   5.296   4.502   8.808 -0.6025  0.2499 -0.3138
 5890TIP3   OH241864   0.078   2.795  10.871  0.5509 -0.5839 -0.0768
 5890TIP3    H141865   0.117   2.856  10.809 -1.6035  0.1273 -0.7979
 5890TIP3    H241866   0.061   2.716  10.820  1.7188 -1.2128  0.4424
 5891TIP3   OH241867   2.846   0.174   7.752  0.0482 -0.3135 -0.3602
 5891TIP3    H141868   2.820   0.173   7.844  1.6350  1.8519  0.1839
 5891TIP3    H241869   2.899   0.094   7.741 -0.3920 -0.7364  0.4973
 5892TIP3   OH241870   4.953   0.051   6.631 -0.0010 -0.1813 -0.4611
 5892TIP3    H141871   4.889  -0.002   6.679  0.4051  0.8922  1.3753
 5892TIP3    H241872   5.031  -0.004   6.628 -0.3150 -0.6219 -0.7324
 5893TIP3   OH241873   6.076   1.844   9.759 -0.4217  0.4146 -0.2599
 5893TIP3    H141874   6.046   1.924   9.802  1.3657  1.4724 -0.8708
 5893TIP3    H241875   6.170   1.841   9.778 -0.3786 -1.3409 -0.5835
 5894TIP3   OH241876   2.727   3.436   7.725 -0.7959  0.1642 -0.4141
 5894TIP3    H141877   2.640   3.410   7.755 -0.4280  0.4577  0.9454
 5894TIP3    H241878   2.785   3.416   7.798 -0.2045  3.0885  0.0367
 5895TIP3   OH241879   3.857   2.177   9.740  0.2040 -0.3196 -0.7754
 5895TIP3    H141880   3.845   2.105   9.803  0.3706 -0.5010 -0.9532
 5895TIP3    H241881   3.951   2.178   9.721 -0.0530 -1.2991 -2.2445
 5896TIP3   OH241882   2.155   5.285   9.171 -0.2181  0.0703  0.5667
 5896TIP3    H141883   2.237   5.327   9.195 -0.0056 -0.2341  0.3899
 5896TIP3    H241884   2.088   5.353   9.181  0.0756  0.3561  0.5767
 5897TIP3   OH241885   6.047   6.633   9.161  0.1275  0.7468  0.3863
 5897TIP3    H141886   5.959   6.658   9.190 -0.1138  0.5483 -0.1747
 5897TIP3    H241887   6.053   6.540   9.180  0.2803  0.7920  0.5695
 5898TIP3   OH241888   2.994   0.080   8.977  0.2085  0.3218 -0.5755
 5898TIP3    H141889   3.084   0.057   8.957  0.6246 -0.2825  1.7914
 5898TIP3    H241890   2.983   0.167   8.938  1.1313 -0.4175 -2.6311
 5899TIP3   OH241891   1.563   4.138   6.539  0.5464  0.1000 -0.0806
 5899TIP3    H141892   1.468   4.133   6.555  0.7696 -0.4979  1.1783
 5899TIP3    H241893   1.578   4.229   6.516 -0.4954 -0.0478 -1.4532
 5900TIP3   OH241894   4.982   6.341   9.251  0.2157  0.5062  0.0471
 5900TIP3    H141895   4.938   6.404   9.308  0.8264  1.4455 -0.4830
 5900TIP3    H241896   5.050   6.301   9.306 -1.6841 -1.4945  1.0856
 5901TIP3   OH241897   5.711   4.457   9.224  0.3622  0.2256  0.4949
 5901TIP3    H141898   5.749   4.374   9.195 -1.0984 -1.0393  2.0046
 5901TIP3    H241899   5.781   4.499   9.273  1.3061  0.1856 -0.7576
 5902TIP3   OH241900   4.967   6.088   8.703  0.3673 -0.1683 -0.2695
 5902TIP3    H141901   4.950   6.014   8.645  2.1699 -0.9385  0.1139
 5902TIP3    H241902   4.997   6.158   8.645 -3.1622  1.0167 -0.8805
 5903TIP3   OH241903   0.796   4.095   6.610  0.0069  0.4160 -0.3184
 5903TIP3    H141904   0.815   4.048   6.528 -0.3357  0.2864 -0.3224
 5903TIP3    H241905   0.863   4.064   6.671 -0.8290 -0.8617 -0.0121
 5904TIP3   OH241906   2.224   4.799   7.048  0.0377 -0.3821  0.1609
 5904TIP3    H141907   2.177   4.750   6.981  0.4588 -1.2346  0.4665
 5904TIP3    H241908   2.259   4.876   7.003  0.6996 -1.1705 -0.7030
 5905TIP3   OH241909   1.256   3.776   7.485  0.6594  0.0403 -0.8192
 5905TIP3    H141910   1.223   3.695   7.524  2.8863  0.6263  2.7027
 5905TIP3    H241911   1.337   3.795   7.533  0.8602  3.7501 -2.2931
 5906TIP3   OH241912   0.431   5.457   8.919 -0.2835 -0.0737 -0.1171
 5906TIP3    H141913   0.470   5.545   8.919  0.6235 -0.4381 -1.3451
 5906TIP3    H241914   0.491   5.404   8.970  0.2276 -0.3863 -1.0253
 5907TIP3   OH241915   1.205   4.756   6.673  0.0794  0.1272  0.5594
 5907TIP3    H141916   1.118   4.716   6.666 -1.0706  2.4294  0.6499
 5907TIP3    H241917   1.215   4.774   6.767  0.8578 -0.4982  0.6027
 5908TIP3   OH241918   1.051   2.466   7.354 -0.5556  0.0807  0.2321
 5908TIP3    H141919   0.972   2.493   7.306 -0.2104 -1.3570 -1.2197
 5908TIP3    H241920   1.028   2.381   7.391  0.0261  0.0608  0.5452
 5909TIP3   OH241921   3.178   2.246   7.663  0.2121  0.0381 -0.2717
 5909TIP3    H141922   3.174   2.342   7.666 -1.6097 -0.0290  0.5995
 5909TIP3    H241923   3.265   2.225   7.696 -0.2062  1.3446  1.8531
 5910TIP3   OH241924   1.925   1.680   8.933  0.2106  0.2559  0.2738
 5910TIP3    H141925   1.922   1.586   8.911 -0.4435  0.4159 -0.3606
 5910TIP3    H241926   1.989   1.686   9.004  0.7789 -0.5831 -0.1517
 5911TIP3   OH241927   0.051   0.004   8.224 -0.0168 -0.1819 -0.1650
 5911TIP3    H141928   0.093  -0.075   8.189  2.7232  1.5930 -1.1495
 5911TIP3    H241929  -0.004   0.035   8.152  0.8234  0.1373 -0.6727
 5912TIP3   OH241930   6.165   4.462   9.221 -0.0366  0.2802 -0.5317
 5912TIP3    H141931   6.184   4.548   9.259  0.4979 -0.4037  0.8127
 5912TIP3    H241932   6.245   4.440   9.172  2.2811 -1.8260  3.6981
 5913TIP3   OH241933   0.876   6.006   8.075  0.2530 -0.2821 -0.0521
 5913TIP3    H141934   0.882   6.076   8.140  1.1928 -0.1271 -0.3018
 5913TIP3    H241935   0.782   6.002   8.053  0.2437  1.1682 -0.3489
 5914TIP3   OH241936   0.919   2.311   9.157  0.0973 -0.0733  0.3042
 5914TIP3    H141937   0.829   2.319   9.126 -0.2131 -1.6755  0.6902
 5914TIP3    H241938   0.930   2.384   9.217  0.2469  2.2526 -2.3723
 5915TIP3   OH241939   4.008   3.529   9.135  0.6934 -0.0580 -0.1353
 5915TIP3    H141940   4.024   3.589   9.062  2.1117 -0.0180  0.1826
 5915TIP3    H241941   4.043   3.445   9.105  1.0492 -0.1013  0.3916
 5916TIP3   OH241942   1.794   3.255   8.634 -0.7479 -0.0891 -0.4174
 5916TIP3    H141943   1.744   3.332   8.659  0.6349  0.1106  2.0180
 5916TIP3    H241944   1.883   3.286   8.621 -0.6872 -0.8584 -2.2004
 5917TIP3   OH241945   3.976   0.653   7.101  0.8620  0.5163 -0.2310
 5917TIP3    H141946   3.939   0.639   7.188 -1.2689 -0.7688 -1.2672
 5917TIP3    H241947   4.069   0.670   7.117  0.1641  2.4882  2.4087
 5918TIP3   OH241948   0.464   1.989   7.430 -0.1777 -0.7527 -0.5162
 5918TIP3    H141949   0.483   1.930   7.358 -0.1748  0.6621 -1.7222
 5918TIP3    H241950   0.409   2.058   7.392 -3.8237 -2.0999  1.7459
 5919TIP3   OH241951   3.315   3.528   7.495  0.2624 -0.3143  0.3147
 5919TIP3    H141952   3.310   3.623   7.505  0.2775 -0.4931  2.2030
 5919TIP3    H241953   3.237   3.495   7.539  0.1130 -1.1799 -0.5641
 5920TIP3   OH241954   5.099   4.050   6.790  0.6015 -0.2751 -0.1336
 5920TIP3    H141955   5.091   4.111   6.864  0.6767  0.4912 -0.7396
 5920TIP3    H241956   5.174   4.083   6.741 -0.7213  0.4913 -1.7043
 5921TIP3   OH241957   0.037   0.551   9.780  0.5260 -0.1024 -0.6777
 5921TIP3    H141958  -0.027   0.607   9.824  1.3917  1.0018 -0.7672
 5921TIP3    H241959   0.068   0.492   9.848  0.3575  0.2153 -0.3204
 5922TIP3   OH241960   2.084   6.126   8.520  0.1767  0.4506 -0.2901
 5922TIP3    H141961   2.135   6.059   8.565  0.8782  0.5244 -0.9419
 5922TIP3    H241962   2.038   6.079   8.450 -0.5589  0.4033  0.2209
 5923TIP3   OH241963   6.281   5.117   7.312  0.1520 -0.3701 -0.4851
 5923TIP3    H141964   6.352   5.056   7.331 -0.5353 -1.4883 -1.3461
 5923TIP3    H241965   6.243   5.084   7.231 -0.1114  1.3491 -1.1016
 5924TIP3   OH241966   3.822   4.488   9.013  0.1488 -0.0370 -0.4303
 5924TIP3    H141967   3.780   4.563   9.056 -1.9157 -1.3666 -0.0007
 5924TIP3    H241968   3.789   4.412   9.060 -0.2969 -1.4254 -2.8296
 5925TIP3   OH241969   2.131   5.711   8.154 -0.6287  0.2334  0.1312
 5925TIP3    H141970   2.178   5.795   8.157  0.2739 -0.0791 -2.4905
 5925TIP3    H241971   2.043   5.734   8.125  0.2376  0.2048 -2.8875
 5926TIP3   OH241972   3.991   4.086   9.396 -0.2941  0.1131 -0.0502
 5926TIP3    H141973   4.014   4.079   9.304 -0.6703 -2.3615 -0.0100
 5926TIP3    H241974   4.073   4.102   9.441  0.0748  0.0512 -0.6953
 5927TIP3   OH241975   5.379   2.770   6.822  0.1597  0.4195 -0.1531
 5927TIP3    H141976   5.348   2.758   6.911 -0.7853 -0.3193 -0.5724
 5927TIP3    H241977   5.445   2.839   6.829  0.5007 -0.0117  1.1964
 5928TIP3   OH241978   2.827   5.925   8.056  0.1743  0.3388  0.0916
 5928TIP3    H141979   2.832   5.951   8.148 -0.6639  1.6686 -0.2058
 5928TIP3    H241980   2.913   5.945   8.020  0.7545 -0.8973  0.7356
 5929TIP3   OH241981   4.413   4.407   9.417 -0.2486 -0.3705  0.1830
 5929TIP3    H141982   4.407   4.361   9.501 -1.8971 -1.2651 -0.3821
 5929TIP3    H241983   4.340   4.469   9.419 -0.5707 -0.7176 -0.7750
 5930TIP3   OH241984   3.374   1.643   7.510  0.1973 -0.2188 -0.6669
 5930TIP3    H141985   3.347   1.625   7.600 -0.9337  0.8231 -0.7649
 5930TIP3    H241986   3.368   1.739   7.502  0.4857 -0.2774 -1.7879
 5931TIP3   OH241987   2.398   3.449   8.393  0.1125 -0.8458 -0.3353
 5931TIP3    H141988   2.401   3.421   8.301 -1.4554 -0.9435 -0.3735
 5931TIP3    H241989   2.388   3.368   8.443  1.8579 -0.8831  0.0222
 5932TIP3   OH241990   3.536   2.370   7.225 -0.2025  0.7652 -0.0661
 5932TIP3    H141991   3.599   2.324   7.280 -1.4332  0.6975  1.3630
 5932TIP3    H241992   3.583   2.447   7.194  0.3570  1.1709  1.6589
 5933TIP3   OH241993   0.099   0.969   8.320  0.4593  0.4871 -0.3990
 5933TIP3    H141994   0.018   0.946   8.367 -0.0215  1.5788 -0.6648
 5933TIP3    H241995   0.152   1.015   8.385  1.9014 -2.1640  0.4667
 5934TIP3   OH241996   5.210   3.355   9.038 -0.2266  0.2445 -0.0151
 5934TIP3    H141997   5.154   3.352   9.116 -0.7099  1.5364 -0.2858
 5934TIP3    H241998   5.266   3.278   9.046  0.1583  0.6719  1.9342
 5935TIP3   OH241999   0.696   1.301   9.275 -0.1533  0.5439 -0.2219
 5935TIP3    H142000   0.657   1.254   9.349 -1.9782 -0.5119 -1.7606
 5935TIP3    H242001   0.687   1.394   9.298 -1.4788  0.2559  0.5175
 5936TIP3   OH242002   5.782   6.524   6.906  0.5044  0.0794 -0.1176
 5936TIP3    H142003   5.700   6.565   6.879 -0.6530 -1.1469  1.3107
 5936TIP3    H242004   5.833   6.595   6.944  0.3985  0.9769 -1.5675
 5937TIP3   OH242005   4.971   1.403   9.270 -0.3511 -0.1723 -0.1348
 5937TIP3    H142006   5.043   1.443   9.222 -0.3314 -0.2755 -0.1913
 5937TIP3    H242007   4.999   1.404   9.362 -1.7213  2.9809  0.3618
 5938TIP3   OH242008   3.122   6.285   8.921  0.6499  0.0686  0.0098
 5938TIP3    H142009   3.166   6.222   8.978 -1.1330 -0.3063  1.0777
 5938TIP3    H242010   3.028   6.269   8.937  0.1402  1.9427 -0.8682
 5939TIP3   OH242011   4.192   4.095   7.273  0.3233 -0.1949 -0.0725
 5939TIP3    H142012   4.155   4.026   7.218  2.7295 -1.3639 -0.3595
 5939TIP3    H242013   4.147   4.174   7.246 -1.8427 -1.4821 -0.4263
 5940TIP3   OH242014   5.617   6.682   9.045  0.3256  0.7793 -0.1914
 5940TIP3    H142015   5.525   6.678   9.069  0.6604  0.5410  1.1196
 5940TIP3    H242016   5.664   6.644   9.120  1.5081  1.1603 -0.7029
 5941TIP3   OH242017   5.747   2.983   7.478 -0.1328 -0.0614  0.6003
 5941TIP3    H142018   5.742   3.076   7.502  0.7772 -0.0865  0.9643
 5941TIP3    H242019   5.820   2.949   7.531  1.3944 -0.3291 -1.5198
 5942TIP3   OH242020   1.276   4.433   7.436 -0.1939 -0.4060 -0.3473
 5942TIP3    H142021   1.353   4.487   7.418  0.7595 -0.9485  1.7878
 5942TIP3    H242022   1.202   4.494   7.433  0.8171  1.0349  1.7472
 5943TIP3   OH242023   6.605   5.996   8.823  0.1378  0.1873  0.1042
 5943TIP3    H142024   6.585   5.975   8.914 -0.5075 -3.2547 -0.6834
 5943TIP3    H242025   6.555   5.932   8.771  3.7162 -0.9495 -2.4410
 5944TIP3   OH242026   2.378   3.437   7.086 -0.4805 -0.1240 -0.1813
 5944TIP3    H142027   2.432   3.431   7.008  1.9122 -1.7329  1.4617
 5944TIP3    H242028   2.367   3.531   7.100  0.5054  0.2127 -1.4937
 5945TIP3   OH242029   6.620   1.638   7.496  0.7270 -0.2701  0.1558
 5945TIP3    H142030   6.562   1.693   7.444  1.0088 -0.9116 -0.8633
 5945TIP3    H242031   6.593   1.549   7.476  1.2182 -0.5390  0.6670
 5946TIP3   OH242032   4.773   3.449   8.435 -0.3819  0.5653  0.0053
 5946TIP3    H142033   4.684   3.427   8.463  0.0363 -0.2908  0.7134
 5946TIP3    H242034   4.828   3.382   8.475  0.7825  2.0124  0.9338
 5947TIP3   OH242035   5.955   3.796   9.210 -0.1086  0.2114  0.1646
 5947TIP3    H142036   5.907   3.715   9.227  1.1799 -0.6920 -0.3240
 5947TIP3    H242037   5.927   3.855   9.279 -0.1586 -1.0658  1.2737
 5948TIP3   OH242038   6.481   2.929   7.654 -0.1103 -0.4464 -0.1046
 5948TIP3    H142039   6.461   2.848   7.701 -1.8669  0.5001  0.8753
 5948TIP3    H242040   6.570   2.952   7.682 -0.6373 -0.5841  1.7671
 5949TIP3   OH242041   4.447   6.069   8.812 -0.2710  0.2776 -0.2203
 5949TIP3    H142042   4.386   6.142   8.820  0.3423  0.9032 -1.0515
 5949TIP3    H242043   4.488   6.062   8.898 -0.6119  0.6711 -0.0259
 5950TIP3   OH242044   5.394   3.132   6.574 -0.4070  0.3767  0.9014
 5950TIP3    H142045   5.468   3.073   6.559 -2.8627 -2.4079 -1.8182
 5950TIP3    H242046   5.359   3.105   6.659 -0.3657 -0.7984  0.5580
 5951TIP3   OH242047   4.900   6.633   7.316  0.2164 -0.8895  0.0390
 5951TIP3    H142048   4.867   6.565   7.375 -2.7649 -0.5801 -1.0663
 5951TIP3    H242049   4.876   6.715   7.357 -0.9701 -0.6549 -1.0585
 5952TIP3   OH242050   5.888   0.398   6.721  0.4621 -0.1465  0.5698
 5952TIP3    H142051   5.870   0.485   6.684  1.7299 -0.3966 -0.7205
 5952TIP3    H242052   5.895   0.413   6.815 -2.0593  0.6515  0.7101
 5953TIP3   OH242053   1.329   0.125   7.730 -0.9567  0.2879  0.5766
 5953TIP3    H142054   1.258   0.070   7.698 -0.5857  0.0619  0.1278
 5953TIP3    H242055   1.308   0.141   7.822 -2.4916  1.6646  0.0269
 5954TIP3   OH242056   4.395   4.481   6.363 -0.2011  0.5317  0.2301
 5954TIP3    H142057   4.439   4.545   6.418 -0.1683  0.5519  0.1805
 5954TIP3    H242058   4.416   4.508   6.273  1.1883 -0.5055  0.2182
 5955TIP3   OH242059   2.595   1.941   6.651  0.1321 -0.6175  0.0112
 5955TIP3    H142060   2.639   1.959   6.567  0.7017  2.0826  0.7669
 5955TIP3    H242061   2.537   2.016   6.663  1.5028  0.1301  2.8934
 5956TIP3   OH242062   4.465   3.130  17.313 -0.5828 -0.0789 -0.3054
 5956TIP3    H142063   4.370   3.133  17.298 -0.7969 -1.7340  0.5039
 5956TIP3    H242064   4.489   3.220  17.331 -1.6674  0.6921 -2.3518
 5957TIP3   OH242065   2.145   1.794   6.987  0.5294  0.4327 -0.4090
 5957TIP3    H142066   2.112   1.874   6.946  1.2559  1.3583  0.7783
 5957TIP3    H242067   2.126   1.725   6.923 -0.5999  1.4574 -1.2130
 5958TIP3   OH242068   5.600   5.055   9.921 -0.1041  0.1874  0.2662
 5958TIP3    H142069   5.557   5.068  10.006 -2.7106 -1.1928 -0.7472
 5958TIP3    H242070   5.633   4.966   9.925 -0.0985  0.1735 -0.1120
 5959TIP3   OH242071   2.303   4.219   7.680  0.2855  0.3496 -0.1635
 5959TIP3    H142072   2.268   4.139   7.720 -0.6515  1.5454  1.5474
 5959TIP3    H242073   2.322   4.194   7.590 -1.3787 -1.4254 -0.0992
 5960TIP3   OH242074   3.948   3.535   9.704 -0.0839 -0.2802  0.1161
 5960TIP3    H142075   3.917   3.617   9.742 -1.6681  0.3705 -2.3705
 5960TIP3    H242076   3.882   3.470   9.728  0.1116 -0.3956  0.3554
 5961TIP3   OH242077   4.153   0.203   6.819  0.1053 -0.1036 -0.0834
 5961TIP3    H142078   4.068   0.161   6.804 -0.1755  1.0328 -2.0478
 5961TIP3    H242079   4.131   0.293   6.842  0.7790 -0.1943  1.0006
 5962TIP3   OH242080   1.417   4.679   7.523 -0.1823  0.2470  0.2214
 5962TIP3    H142081   1.361   4.757   7.516 -0.8616 -0.2047  0.4464
 5962TIP3    H242082   1.412   4.655   7.616  1.5393  1.0125  0.5496
 5963TIP3   OH242083   0.580   5.605   8.344 -0.5778  0.2658 -0.0171
 5963TIP3    H142084   0.650   5.649   8.295 -0.4114  1.0448  0.8930
 5963TIP3    H242085   0.588   5.512   8.320 -0.3287  0.5844 -1.2363
 5964TIP3   OH242086   5.778   6.458   8.968 -0.8420  0.0739 -0.2203
 5964TIP3    H142087   5.814   6.499   8.890  2.0531  0.4853  1.1877
 5964TIP3    H242088   5.734   6.530   9.015  1.3150  0.9209  0.6201
 5965TIP3   OH242089   6.319   1.491   8.580 -0.4942  0.1352 -0.1564
 5965TIP3    H142090   6.273   1.556   8.526  0.1755  0.8555  0.1224
 5965TIP3    H242091   6.396   1.467   8.529 -0.7339 -0.4488 -0.2547
 5966TIP3   OH242092   1.266   5.452   7.476 -0.2090 -0.3124 -0.0228
 5966TIP3    H142093   1.188   5.415   7.433 -0.2353 -0.8169  0.4466
 5966TIP3    H242094   1.339   5.408   7.434 -0.1780  0.1116 -0.4162
 5967TIP3   OH242095   0.791   2.360   6.389 -0.1736  0.7727 -0.3261
 5967TIP3    H142096   0.742   2.442   6.401 -1.7054 -0.1512  0.1447
 5967TIP3    H242097   0.776   2.312   6.471  1.4112  0.3669 -0.2521
 5968TIP3   OH242098   3.321   1.421   8.866 -0.4069 -0.2196 -0.2638
 5968TIP3    H142099   3.255   1.430   8.935 -0.1307 -0.2816  0.0137
 5968TIP3    H242100   3.404   1.444   8.910 -0.4357  1.5217 -1.0160
 5969TIP3   OH242101   3.033   1.209   7.488  0.1594 -0.3211  0.0455
 5969TIP3    H142102   3.097   1.270   7.524 -0.8523  0.3755  0.6780
 5969TIP3    H242103   2.996   1.255   7.412  0.8457 -0.9821 -0.7153
 5970TIP3   OH242104   2.301   0.165   8.768  0.0288 -0.4672 -0.5906
 5970TIP3    H142105   2.340   0.207   8.692  0.9250  1.0074  0.6273
 5970TIP3    H242106   2.375   0.134   8.820 -0.4886 -0.0350  0.4396
 5971TIP3   OH242107   4.658   2.910   7.767 -0.3517 -0.7711 -0.3440
 5971TIP3    H142108   4.751   2.904   7.789 -0.1548  1.3945 -0.3049
 5971TIP3    H242109   4.619   2.834   7.809  1.2558 -1.2005  0.4769
 5972TIP3   OH242110   0.531   3.035   8.593  0.2585  0.3159  0.4918
 5972TIP3    H142111   0.530   3.102   8.662 -0.3841  0.4196  0.3886
 5972TIP3    H242112   0.588   3.071   8.525 -2.5447  2.3007 -1.0294
 5973TIP3   OH242113   0.859   3.986   8.432 -0.2031 -0.1863 -0.3448
 5973TIP3    H142114   0.784   4.041   8.409  1.4027  1.6994 -1.3023
 5973TIP3    H242115   0.851   3.910   8.376 -0.9077  0.4154 -1.0872
 5974TIP3   OH242116   0.799   2.457   9.599  0.3770 -0.7618  0.2688
 5974TIP3    H142117   0.814   2.551   9.592  0.0099 -0.7337 -0.1983
 5974TIP3    H242118   0.884   2.420   9.623  0.8099 -0.4402 -0.7239
 5975TIP3   OH242119   1.860   4.100   6.196  0.4477  0.7081 -0.4781
 5975TIP3    H142120   1.909   4.078   6.117  1.5506  0.8474  0.1525
 5975TIP3    H242121   1.925   4.098   6.267 -0.1907  2.0825  0.2006
 5976TIP3   OH242122   5.235   3.779   8.297 -0.6530  0.4826  0.3022
 5976TIP3    H142123   5.268   3.861   8.334 -2.8003  1.0750  1.0715
 5976TIP3    H242124   5.300   3.754   8.232  0.2975  2.5675  0.3605
 5977TIP3   OH242125   1.632   1.543   8.458 -0.0595  0.5332 -0.0111
 5977TIP3    H142126   1.615   1.635   8.439  2.1232  0.7806 -1.0049
 5977TIP3    H242127   1.699   1.544   8.526 -0.4797 -0.3423  0.4352
 5978TIP3   OH242128   5.886   1.567   6.698 -0.1172 -0.9803  0.4941
 5978TIP3    H142129   5.896   1.521   6.781 -1.9951 -0.3229  1.1534
 5978TIP3    H242130   5.825   1.639   6.718  1.9294  1.2391 -0.6889
 5979TIP3   OH242131   2.753   2.942  10.617 -0.2840  0.1165  0.4253
 5979TIP3    H142132   2.795   2.955  10.702 -0.4449  1.4225  0.3207
 5979TIP3    H242133   2.665   2.979  10.628 -0.8894 -1.1889  0.1688
 5980TIP3   OH242134   0.752   3.363  10.237 -0.1294  0.2150 -0.1910
 5980TIP3    H142135   0.713   3.440  10.277 -1.2273 -0.0129 -0.7856
 5980TIP3    H242136   0.717   3.289  10.287 -1.7296 -0.0900 -1.6893
 5981TIP3   OH242137   0.136   5.929   7.850  0.1747  0.3554  0.3963
 5981TIP3    H142138   0.091   5.957   7.930 -2.2549 -1.0317 -0.3619
 5981TIP3    H242139   0.073   5.946   7.780  0.5884 -2.1257 -0.6915
 5982TIP3   OH242140   0.384   2.745   8.498  0.1075 -0.6995 -0.2927
 5982TIP3    H142141   0.371   2.839   8.504  1.1483 -0.6008  0.7572
 5982TIP3    H242142   0.396   2.728   8.404  0.9819  0.3701 -0.3867
 5983TIP3   OH242143   5.717   4.167   9.848  0.4739  0.2643  0.0644
 5983TIP3    H142144   5.702   4.254   9.886  0.1525  0.2949 -0.1275
 5983TIP3    H242145   5.809   4.148   9.867  0.4813  0.5421  0.3187
 5984TIP3   OH242146   5.344   2.641   7.722 -0.0130 -0.1776 -0.8380
 5984TIP3    H142147   5.311   2.620   7.635  0.1792 -0.4929 -0.8363
 5984TIP3    H242148   5.434   2.672   7.707  0.1366 -0.5477 -0.7243
 5985TIP3   OH242149   6.674   6.281   6.840  0.6266  0.0828  0.0282
 5985TIP3    H142150   6.691   6.211   6.778  0.9047  1.3335 -1.3600
 5985TIP3    H242151   6.715   6.252   6.921  1.5025 -0.9672 -0.7646
 5986TIP3   OH242152   3.643   1.115   6.652 -0.2305 -0.5496  0.2510
 5986TIP3    H142153   3.677   1.159   6.574 -2.0813  1.5450  0.5359
 5986TIP3    H242154   3.618   1.186   6.710  0.1155 -2.0590  2.3619
 5987TIP3   OH242155   4.297   0.887   8.880 -0.7481  0.2041  0.1770
 5987TIP3    H142156   4.271   0.828   8.950 -2.1627  2.9248  2.1563
 5987TIP3    H242157   4.262   0.847   8.800 -1.5642 -1.6124  1.3876
 5988TIP3   OH242158   3.614   4.954   8.637  0.3164 -0.4119 -0.0903
 5988TIP3    H142159   3.583   4.866   8.657  0.0169 -0.6471 -1.5075
 5988TIP3    H242160   3.681   4.971   8.703  0.8664 -1.9697 -0.2060
 5989TIP3   OH242161   1.736   4.327   7.888  0.8208  0.2779 -0.9879
 5989TIP3    H142162   1.693   4.287   7.813  1.2521  0.4239 -1.3117
 5989TIP3    H242163   1.829   4.321   7.870  0.8943  2.0872 -1.4080
 5990TIP3   OH242164   5.045   5.691   9.263  0.7213 -0.2618 -0.1817
 5990TIP3    H142165   4.952   5.678   9.244  0.2667  0.0961  1.6421
 5990TIP3    H242166   5.079   5.737   9.186 -1.1530  1.7613  0.1004
 5991TIP3   OH242167   2.959   0.630   6.379  0.2692 -0.5293  0.1132
 5991TIP3    H142168   2.942   0.712   6.331 -0.4291  0.7651  2.3994
 5991TIP3    H242169   3.054   0.625   6.385  0.3137  0.5051  0.5085
 5992TIP3   OH242170   2.968   4.588   6.801 -0.0433  0.4924 -0.3035
 5992TIP3    H142171   2.928   4.538   6.730 -0.2786 -0.1744  0.2958
 5992TIP3    H242172   3.044   4.630   6.760 -0.0204 -0.0992 -0.8883
 5993TIP3   OH242173   5.236   4.276   9.634 -0.7010 -0.2364  0.4430
 5993TIP3    H142174   5.195   4.256   9.718  1.9806  0.3451  1.9752
 5993TIP3    H242175   5.216   4.369   9.619 -0.3744 -0.0872  0.9230
 5994TIP3   OH242176   5.765   6.018   6.465  0.3906  0.2588  0.3267
 5994TIP3    H142177   5.732   6.090   6.411  0.8283  2.1015  2.3931
 5994TIP3    H242178   5.747   6.045   6.555  1.2399 -1.9085  1.2198
 5995TIP3   OH242179   4.509   4.799   8.955 -0.0958  0.0283 -0.2414
 5995TIP3    H142180   4.445   4.860   8.992 -1.4660 -0.5176 -1.6359
 5995TIP3    H242181   4.465   4.715   8.954 -0.1808  0.0020 -3.0757
 5996TIP3   OH242182   5.867   0.512   6.986 -0.4464 -0.3637  0.3258
 5996TIP3    H142183   5.934   0.492   7.052 -0.1071 -2.7909 -0.6431
 5996TIP3    H242184   5.789   0.466   7.017 -0.8935  0.2222  0.0818
 5997TIP3   OH242185   0.515   2.471   8.866  0.0576 -0.0099  0.0010
 5997TIP3    H142186   0.549   2.407   8.803 -0.2731 -0.6679  0.4711
 5997TIP3    H242187   0.586   2.534   8.877 -0.4394  1.0283 -2.1965
 5998TIP3   OH242188   1.519   1.547   9.962  0.2936  0.5854  0.4311
 5998TIP3    H142189   1.541   1.631  10.001  2.4053  0.4132 -0.2498
 5998TIP3    H242190   1.532   1.484  10.033  1.4546  0.5688  0.2317
 5999TIP3   OH242191   5.330   1.542   6.626 -0.3564  0.4874 -0.2507
 5999TIP3    H142192   5.246   1.535   6.672 -0.8493 -0.6367 -1.2805
 5999TIP3    H242193   5.331   1.467   6.567  0.7503  1.2917 -1.2879
 6000TIP3   OH242194   5.590   0.221   6.754 -0.8486 -0.3198 -0.1596
 6000TIP3    H142195   5.576   0.308   6.715  0.8798 -0.9855 -2.4929
 6000TIP3    H242196   5.645   0.239   6.831  1.0920  0.5809 -1.6629
 6001TIP3   OH242197   0.798   3.788   9.097  0.0353 -0.0002  0.1620
 6001TIP3    H142198   0.894   3.790   9.094  0.0588 -0.8543  0.0078
 6001TIP3    H242199   0.773   3.877   9.119  0.8038  0.6452 -1.4155
 6002TIP3   OH242200   1.573   6.390   7.230 -0.3556  0.2316 -0.3170
 6002TIP3    H142201   1.595   6.467   7.178  1.3947  0.0833  0.1389
 6002TIP3    H242202   1.623   6.319   7.189  1.5741  0.2264  1.8446
 6003TIP3   OH242203   4.492   1.983   8.063  0.5037 -0.0153 -0.1454
 6003TIP3    H142204   4.497   1.986   7.967  0.3737 -3.8479 -0.4419
 6003TIP3    H242205   4.583   1.968   8.090  0.3172 -0.6168  0.1635
 6004TIP3   OH242206   4.487   3.349   9.223  0.2470 -0.2824 -0.1529
 6004TIP3    H142207   4.451   3.266   9.193  0.3443 -1.2229  2.1594
 6004TIP3    H242208   4.556   3.369   9.159 -1.1262 -0.8648 -1.9163
 6005TIP3   OH242209   2.989   3.540   7.353 -0.2947 -0.1287 -0.1935
 6005TIP3    H142210   2.901   3.572   7.334 -0.2841 -0.4569 -0.8426
 6005TIP3    H242211   3.024   3.601   7.418 -0.6160  0.6180 -0.7108
 6006TIP3   OH242212   5.792   3.165   9.601  0.3057 -0.1173 -0.6513
 6006TIP3    H142213   5.784   3.204   9.514 -0.1627 -0.2116 -0.6541
 6006TIP3    H242214   5.861   3.100   9.593  0.3797 -0.0057 -0.9097
 6007TIP3   OH242215   1.159   2.231   6.635  0.9174  0.0075  0.0929
 6007TIP3    H142216   1.142   2.138   6.647  1.5839 -0.0853  0.3776
 6007TIP3    H242217   1.233   2.250   6.693  0.0178  0.9764  0.9638
 6008TIP3   OH242218   5.286   5.348   8.771  0.1274 -0.0083  0.0669
 6008TIP3    H142219   5.343   5.283   8.730 -0.1260  0.2696 -0.7383
 6008TIP3    H242220   5.233   5.298   8.833  1.3293 -0.2496  0.9491
 6009TIP3   OH242221   3.056   3.657   7.920 -0.2458 -0.4042  0.0580
 6009TIP3    H142222   3.145   3.670   7.886 -0.3071 -0.7974 -0.2621
 6009TIP3    H242223   3.033   3.568   7.893  0.1757 -1.2382  2.2262
 6010TIP3   OH242224   3.008   4.754   9.501 -0.0468 -0.0238  0.0491
 6010TIP3    H142225   3.027   4.686   9.565  1.2109  0.8489  0.6349
 6010TIP3    H242226   3.057   4.830   9.531 -1.8989  1.3502 -0.2549
 6011TIP3   OH242227   3.267   6.514   6.654 -0.3176 -0.0367 -0.3528
 6011TIP3    H142228   3.172   6.512   6.642 -0.3212  1.2299 -0.6935
 6011TIP3    H242229   3.288   6.607   6.664  0.9311 -0.2743 -0.6109
 6012TIP3   OH242230   3.741   2.462   8.989  0.2707 -0.2321  0.3160
 6012TIP3    H142231   3.753   2.445   8.896 -1.2060 -0.5380  0.1500
 6012TIP3    H242232   3.757   2.556   8.999 -0.7683  0.0462 -0.4792
 6013TIP3   OH242233   4.975   0.953   8.334  0.3882  0.0043  0.2423
 6013TIP3    H142234   4.977   0.940   8.428  1.2836 -0.5238  0.1579
 6013TIP3    H242235   5.049   1.011   8.316  0.6158 -0.4204 -0.2102
 6014TIP3   OH242236   3.845   3.597  10.370  0.1744 -0.7953  0.2976
 6014TIP3    H142237   3.852   3.625  10.278 -1.3625  1.2046  0.7016
 6014TIP3    H242238   3.930   3.619  10.408  0.0198  0.6752 -0.1239
 6015TIP3   OH242239   5.435   5.802   6.978 -0.3201  0.0094 -0.5048
 6015TIP3    H142240   5.382   5.861   6.924  3.2877  1.4276 -2.8068
 6015TIP3    H242241   5.459   5.730   6.919  1.1814 -0.0337  0.1190
 6016TIP3   OH242242   5.060   5.643   9.555 -0.3636  0.1352 -0.3225
 6016TIP3    H142243   5.076   5.690   9.473 -1.6905 -0.1360 -0.7603
 6016TIP3    H242244   4.971   5.609   9.546 -1.0979  1.3524  1.8356
 6017TIP3   OH242245   0.943   3.928   7.260  0.3138 -0.4251 -0.3573
 6017TIP3    H142246   0.855   3.948   7.292  0.2982 -0.8050 -0.1552
 6017TIP3    H242247   0.929   3.869   7.186  0.4329 -1.4859  0.4374
 6018TIP3   OH242248   3.405   6.075   7.466 -0.5287  0.3636  0.1871
 6018TIP3    H142249   3.387   6.168   7.480 -1.6284  0.3884 -1.1989
 6018TIP3    H242250   3.501   6.070   7.461 -0.3346  1.0913  2.1810
 6019TIP3   OH242251   5.827   1.713   7.675  0.3882  0.1648  0.5730
 6019TIP3    H142252   5.799   1.687   7.587  0.1500 -1.1069  0.9973
 6019TIP3    H242253   5.756   1.683   7.732  2.0797 -2.2705  1.5784
 6020TIP3   OH242254   3.723   4.694   6.419  0.3937  0.0619 -0.0628
 6020TIP3    H142255   3.668   4.760   6.376 -0.1233 -1.1355 -1.2943
 6020TIP3    H242256   3.774   4.744   6.483 -0.0995  1.6357 -0.8432
 6021TIP3   OH242257   0.214   3.173   6.866 -0.2700  0.1006 -0.2719
 6021TIP3    H142258   0.220   3.095   6.922 -0.2514 -0.5038 -1.0926
 6021TIP3    H242259   0.144   3.225   6.906  0.7506  0.4123  1.1706
 6022TIP3   OH242260   6.341   4.647   9.836  0.3907  0.4900 -0.3361
 6022TIP3    H142261   6.384   4.683   9.914 -1.0610  1.1716  0.1740
 6022TIP3    H242262   6.269   4.594   9.870 -0.1615  0.6626 -1.2025
 6023TIP3   OH242263   2.611   5.699   8.114 -0.5276  0.2501  0.0369
 6023TIP3    H142264   2.664   5.656   8.047  1.6255 -0.6917  2.1768
 6023TIP3    H242265   2.671   5.762   8.154 -1.3979  0.0438  1.7423
 6024TIP3   OH242266   1.415   4.163   9.276 -0.1718  0.1811  0.7638
 6024TIP3    H142267   1.411   4.080   9.323  0.8817  0.3927  1.2503
 6024TIP3    H242268   1.346   4.217   9.316  0.0866  0.0350  1.4120
 6025TIP3   OH242269   4.053   6.672   7.675  0.3490 -0.5167  0.0952
 6025TIP3    H142270   3.994   6.742   7.647  0.5983 -0.4132 -0.1757
 6025TIP3    H242271   4.012   6.636   7.754  0.4718  0.2780  0.5352
 6026TIP3   OH242272   6.280   0.011   7.375  0.4912 -0.2497  0.0952
 6026TIP3    H142273   6.297   0.094   7.419  2.2907  0.1711 -1.2827
 6026TIP3    H242274   6.347  -0.049   7.410 -0.8222 -1.1851  1.1222
 6027TIP3   OH242275   1.264   3.346   7.013 -0.5874  0.0558 -0.6086
 6027TIP3    H142276   1.267   3.296   6.931  1.5904  0.6026 -0.9286
 6027TIP3    H242277   1.214   3.425   6.990  1.4705  1.0590 -2.0134
 6028TIP3   OH242278   1.651   0.198   6.937 -0.3104 -0.0235  0.3495
 6028TIP3    H142279   1.714   0.131   6.964 -1.1529 -0.5485  1.0876
 6028TIP3    H242280   1.704   0.276   6.920  0.5411 -0.4831  0.8389
 6029TIP3   OH242281   1.406   2.635  10.431 -0.2871 -0.1432 -0.2438
 6029TIP3    H142282   1.435   2.567  10.491  1.4990  1.9000  1.3647
 6029TIP3    H242283   1.474   2.703  10.437 -1.0884  1.0527 -3.0605
 6030TIP3   OH242284   0.091   3.256   8.215 -0.2274 -0.2813  0.2579
 6030TIP3    H142285   0.077   3.339   8.260  0.1288  0.2488 -0.5927
 6030TIP3    H242286   0.155   3.210   8.269 -0.2942  0.0631  0.6383
 6031TIP3   OH242287   4.451   3.138   9.646 -0.0289  0.6443  0.1860
 6031TIP3    H142288   4.434   3.044   9.654 -1.5000  0.9598  1.2208
 6031TIP3    H242289   4.535   3.143   9.600  0.1686 -1.1685  0.2556
 6032TIP3   OH242290   1.065   1.635   9.703  0.3902  0.0332  0.2635
 6032TIP3    H142291   1.037   1.552   9.665  0.4282 -0.4684  1.2872
 6032TIP3    H242292   1.144   1.613   9.753  1.1799  0.9512 -0.5511
 6033TIP3   OH242293   2.603   5.671   6.491 -0.5306 -0.0390  0.0014
 6033TIP3    H142294   2.587   5.578   6.510 -0.2714  0.0240  0.5693
 6033TIP3    H242295   2.557   5.717   6.562  1.7214  0.1623  1.4486
 6034TIP3   OH242296   2.968   1.363   7.261  0.0973 -0.3149  0.2123
 6034TIP3    H142297   2.875   1.373   7.241  0.0874 -0.9575 -0.0750
 6034TIP3    H242298   2.996   1.450   7.287 -0.5614 -0.0915  0.1916
 6035TIP3   OH242299   2.003   4.040   9.517 -0.6919  0.0639 -0.6163
 6035TIP3    H142300   1.951   4.003   9.588  0.4718 -1.6595 -0.6100
 6035TIP3    H242301   2.093   4.027   9.545 -0.2229 -0.3544 -2.2617
 6036TIP3   OH242302   1.965   1.945   9.985  0.0318  0.3103 -0.2973
 6036TIP3    H142303   2.053   1.914  10.007 -0.3035 -0.6415 -0.2217
 6036TIP3    H242304   1.947   2.014  10.049 -0.2162 -1.1685  1.3065
 6037TIP3   OH242305   1.916   1.604   8.084 -0.2322  0.1175 -0.3735
 6037TIP3    H142306   1.861   1.600   8.006 -0.8776 -1.7258  0.1135
 6037TIP3    H242307   1.861   1.568   8.154  0.7954  0.4367  0.6285
 6038TIP3   OH242308   1.200   3.271   9.542  0.0789 -0.4662  0.0578
 6038TIP3    H142309   1.144   3.248   9.468 -1.1467  2.4396 -0.0325
 6038TIP3    H242310   1.176   3.208   9.610 -1.6109 -0.7574 -0.7541
 6039TIP3   OH242311   1.826   4.144   8.749 -0.5314  0.0404 -0.0734
 6039TIP3    H142312   1.903   4.165   8.802 -1.1186 -0.0274  0.8351
 6039TIP3    H242313   1.752   4.151   8.810 -1.2397  0.0409 -0.9084
 6040TIP3   OH242314   5.016   4.987   7.703 -0.1206 -0.1169  0.0698
 6040TIP3    H142315   5.026   4.914   7.643 -0.9367 -1.0556  1.0385
 6040TIP3    H242316   5.100   4.994   7.748 -0.0068 -0.3892 -0.1043
 6041TIP3   OH242317   6.309   5.004   7.919  0.2090  0.4183 -0.0271
 6041TIP3    H142318   6.311   4.964   7.832  0.6329  2.4847 -1.0054
 6041TIP3    H242319   6.224   4.978   7.955 -0.0884 -0.2298 -1.1492
 6042TIP3   OH242320   1.772   0.720   7.525  0.4832  0.3124  0.7625
 6042TIP3    H142321   1.837   0.788   7.507  0.6323  0.2452  1.0283
 6042TIP3    H242322   1.785   0.699   7.618 -0.4091  0.8050  1.0072
 6043TIP3   OH242323   3.755   1.885   7.422 -0.6973 -0.1994  0.0095
 6043TIP3    H142324   3.705   1.885   7.340 -0.7322 -0.0568  0.0297
 6043TIP3    H242325   3.822   1.952   7.409 -0.5445 -0.3549  0.0032
 6044TIP3   OH242326   1.610   2.614   7.857 -0.0289 -0.2779 -0.0281
 6044TIP3    H142327   1.703   2.591   7.848 -0.1650 -1.0034  0.3881
 6044TIP3    H242328   1.570   2.586   7.775  0.4332  1.6784 -0.9627
 6045TIP3   OH242329   5.860   3.050  10.855 -0.4229  0.4131  0.0186
 6045TIP3    H142330   5.900   3.132  10.826 -1.5338  0.6347 -0.9999
 6045TIP3    H242331   5.766   3.070  10.861 -0.3293  0.3112  3.7109
 6046TIP3   OH242332   1.880   2.295   9.972 -0.2242  0.1774 -0.2100
 6046TIP3    H142333   1.822   2.323   9.901  0.5763 -1.0922 -1.4353
 6046TIP3    H242334   1.965   2.280   9.930  0.3510 -0.3613  1.0637
 6047TIP3   OH242335   0.572   6.592   7.998  0.3242  0.0395  0.7067
 6047TIP3    H142336   0.591   6.550   8.082 -0.5497 -1.1690  0.3379
 6047TIP3    H242337   0.652   6.637   7.974  0.9423 -0.5241  1.6689
 6048TIP3   OH242338   3.433   6.396   6.451 -0.3998 -0.0512 -0.0099
 6048TIP3    H142339   3.372   6.438   6.510  0.9135  0.0877  1.2978
 6048TIP3    H242340   3.491   6.466   6.422 -0.2201 -0.3636 -0.4283
 6049TIP3   OH242341   3.763   2.939   7.223 -0.5997  0.2491 -0.0599
 6049TIP3    H142342   3.836   3.001   7.213  0.7736 -0.9409  1.8581
 6049TIP3    H242343   3.695   2.989   7.267 -0.3218  0.9535 -0.4199
 6050TIP3   OH242344   5.327   1.802   7.875  0.3047  0.1584  0.2352
 6050TIP3    H142345   5.261   1.838   7.935 -0.5549 -0.8216 -0.0878
 6050TIP3    H242346   5.287   1.811   7.788  1.0299  0.4696 -0.0693
 6051TIP3   OH242347   6.197   1.008   6.720  0.8125  0.1982  0.7819
 6051TIP3    H142348   6.229   0.930   6.676 -0.0281  0.4065 -0.2478
 6051TIP3    H242349   6.141   0.975   6.790  0.4738 -0.1367  0.3590
 6052TIP3   OH242350   1.027   4.322   7.741 -0.1552  0.5653 -1.0224
 6052TIP3    H142351   0.996   4.231   7.739 -0.2046  0.5273  0.4540
 6052TIP3    H242352   0.980   4.365   7.669 -0.2256 -0.5388 -1.6490
 6053TIP3   OH242353   2.925   1.774   9.844  0.3676  0.2729 -0.1359
 6053TIP3    H142354   2.976   1.693   9.843  1.1472  0.7542 -0.3999
 6053TIP3    H242355   2.972   1.831   9.904 -1.2355 -0.1001  1.5797
 6054TIP3   OH242356   3.128   1.681   7.932  0.1138  0.5004  0.0672
 6054TIP3    H142357   3.176   1.687   8.015  0.0438 -2.0193  0.3744
 6054TIP3    H242358   3.049   1.632   7.954  0.1198 -0.2723 -1.5069
 6055TIP3   OH242359   0.056   6.558   9.361 -0.1171 -0.2752  0.3136
 6055TIP3    H142360  -0.029   6.513   9.357 -0.8568  0.9483  1.3550
 6055TIP3    H242361   0.056   6.600   9.448  0.3632  1.9972 -0.7192
 6056TIP3   OH242362   4.364   0.415   8.785  0.2125 -0.6704  0.1695
 6056TIP3    H142363   4.395   0.471   8.856 -0.9388 -1.5916  1.4610
 6056TIP3    H242364   4.434   0.417   8.720  1.7022 -0.4900  1.7183
 6057TIP3   OH242365   4.463   5.480   7.279  1.2956 -0.6362 -0.5503
 6057TIP3    H142366   4.487   5.542   7.211 -0.3738  0.8532  0.1632
 6057TIP3    H242367   4.417   5.410   7.233  2.3599 -0.9110 -1.2344
 6058TIP3   OH242368   5.648   0.614   8.029  0.3590  0.1401  0.3880
 6058TIP3    H142369   5.703   0.542   7.999 -2.0972 -2.1198  0.9987
 6058TIP3    H242370   5.636   0.598   8.122  0.8503  2.1786  0.8591
 6059TIP3   OH242371   2.066   1.933   6.284  0.1190 -0.0177 -0.0235
 6059TIP3    H142372   2.143   1.989   6.289 -0.1743  0.5103 -1.0491
 6059TIP3    H242373   2.016   1.952   6.363  0.3945  0.6245 -0.0047
 6060TIP3   OH242374   5.391   0.687   7.997 -0.3358  0.3512  0.0183
 6060TIP3    H142375   5.413   0.774   8.028  1.5759 -1.4584  4.6689
 6060TIP3    H242376   5.476   0.647   7.976 -0.9682 -0.9928 -0.1076
 6061TIP3   OH242377   1.801   2.363   8.004  0.1521  0.2119  0.1813
 6061TIP3    H142378   1.718   2.350   7.957  0.9315 -2.2556 -0.6940
 6061TIP3    H242379   1.798   2.453   8.035 -3.3524 -0.0945  1.1531
 6062TIP3   OH242380   1.419   3.871   6.234  0.1843  0.1464 -0.4160
 6062TIP3    H142381   1.456   3.943   6.184 -0.4525  1.2121  0.5900
 6062TIP3    H242382   1.495   3.826   6.272  0.5587  0.8847 -0.2663
 6063TIP3   OH242383   3.278   1.597   8.363 -0.3311 -0.8922  0.4812
 6063TIP3    H142384   3.245   1.572   8.449 -0.8988  1.8229  1.1300
 6063TIP3    H242385   3.345   1.531   8.343  0.6438 -0.9584  3.5205
 6064TIP3   OH242386   3.805   5.495   6.487  0.3401 -0.5577  0.2649
 6064TIP3    H142387   3.765   5.581   6.480  2.6575  0.7060  1.4247
 6064TIP3    H242388   3.756   5.451   6.557  0.0437  0.3593  0.6438
 6065TIP3   OH242389   3.608   2.789   8.568 -0.0905  0.2856 -0.1172
 6065TIP3    H142390   3.567   2.703   8.561  0.2427  0.0531  0.6811
 6065TIP3    H242391   3.538   2.851   8.549  0.1376 -0.1851 -2.8683
 6066TIP3   OH242392   5.169   1.163   8.314 -0.2323  0.4409  0.3519
 6066TIP3    H142393   5.251   1.213   8.315 -1.0820  1.9554 -0.7082
 6066TIP3    H242394   5.100   1.230   8.320 -1.4231 -0.6331 -0.6386
 6067TIP3   OH242395   4.422   0.254   6.999  0.1734  0.2343 -0.5037
 6067TIP3    H142396   4.416   0.164   7.030 -0.9566  0.3068 -0.4881
 6067TIP3    H242397   4.506   0.257   6.953  0.4082 -0.7131 -0.1679
 6068TIP3   OH242398   0.291   2.228   9.285  0.5554  0.2040 -0.3278
 6068TIP3    H142399   0.321   2.295   9.223  0.4996 -0.2163 -0.8242
 6068TIP3    H242400   0.285   2.149   9.232  1.4842 -0.4054  0.4564
 6069TIP3   OH242401   1.398   0.174   6.613  0.6374  0.0302 -0.0832
 6069TIP3    H142402   1.401   0.194   6.520  1.1896 -0.6587 -0.2255
 6069TIP3    H242403   1.489   0.179   6.642  0.2163  2.8611  1.0286
 6070TIP3   OH242404   6.585   2.484   7.365 -0.2284 -0.2966  0.1417
 6070TIP3    H142405   6.626   2.537   7.433  0.6497 -1.4100  0.5065
 6070TIP3    H242406   6.596   2.536   7.285 -1.9301  1.3707  0.9067
 6071TIP3   OH242407   0.012   1.406   8.204 -0.2829 -1.0882  0.1344
 6071TIP3    H142408  -0.035   1.438   8.127  1.1448 -0.3862 -0.4858
 6071TIP3    H242409   0.054   1.484   8.240  2.1155 -1.9643 -0.5837
 6072TIP3   OH242410   1.651   4.938   9.668 -0.2207 -0.1505 -0.0569
 6072TIP3    H142411   1.678   4.937   9.576 -0.6418  1.3151 -0.2307
 6072TIP3    H242412   1.670   4.850   9.700  1.3542 -0.2440 -1.1344
 6073TIP3   OH242413   5.991   1.999   7.368  0.0576 -0.1035  0.2292
 6073TIP3    H142414   6.084   2.004   7.389  0.0168 -1.9819  1.0005
 6073TIP3    H242415   5.949   2.052   7.436  0.4903  0.1146  0.3336
 6074TIP3   OH242416   4.014   6.002   7.515  0.5090  0.0754  0.0927
 6074TIP3    H142417   4.005   6.080   7.570  0.0402 -0.7659  1.2611
 6074TIP3    H242418   3.939   5.947   7.539  0.6303 -0.5802 -0.9666
 6075TIP3   OH242419   4.197   2.957   6.600  0.3964 -0.3167  0.0481
 6075TIP3    H142420   4.233   2.903   6.670 -1.3363 -0.2743  1.0123
 6075TIP3    H242421   4.256   2.943   6.526  2.7028  0.1873  1.6919
 6076TIP3   OH242422   5.734   2.534   7.240  0.0898  0.2125 -0.2904
 6076TIP3    H142423   5.724   2.482   7.160 -0.9820  0.2942 -0.2281
 6076TIP3    H242424   5.652   2.521   7.287  1.7345 -2.0828  2.1662
 6077TIP3   OH242425   1.072   4.614   7.440 -0.1113 -0.0360  0.0508
 6077TIP3    H142426   1.049   4.705   7.424 -0.6078 -0.2027 -0.2320
 6077TIP3    H242427   1.001   4.581   7.495  0.0860 -0.2385  0.1841
 6078TIP3   OH242428   2.831   0.025   8.337 -1.1095 -0.1721  0.1163
 6078TIP3    H142429   2.921   0.015   8.309 -0.6898 -1.1533  1.6776
 6078TIP3    H242430   2.822   0.118   8.358  0.0848 -0.3461  1.5663
 6079TIP3   OH242431   5.957   1.115   8.308  0.3255 -0.0720  0.1821
 6079TIP3    H142432   5.946   1.211   8.305  0.3078 -0.0718  0.2547
 6079TIP3    H242433   5.869   1.082   8.326  0.5742 -0.0277  1.6102
 6080TIP3   OH242434   4.947   1.693   8.116 -0.1212  0.0801 -0.1698
 6080TIP3    H142435   4.921   1.692   8.024  1.2809 -0.4585 -0.5901
 6080TIP3    H242436   5.035   1.731   8.116 -0.1507  0.1921  0.9643
 6081TIP3   OH242437   5.855   3.881   7.266 -0.3880  0.0338  0.1740
 6081TIP3    H142438   5.903   3.962   7.250  1.3220 -0.7320  1.1353
 6081TIP3    H242439   5.782   3.907   7.323  0.3043  0.8535  0.7065
 6082TIP3   OH242440   6.510   4.076   9.428 -0.0190 -0.3177  0.4837
 6082TIP3    H142441   6.513   4.077   9.524  0.0828  0.2958  0.4791
 6082TIP3    H242442   6.578   4.139   9.402 -0.6605  0.1933  0.0255
 6083TIP3   OH242443   2.514   2.089   8.635  0.7429 -0.1644 -0.8795
 6083TIP3    H142444   2.461   2.042   8.570 -0.5783  0.9374 -0.6356
 6083TIP3    H242445   2.518   2.030   8.710  3.5730 -2.1487 -2.3648
 6084TIP3   OH242446   6.378   1.124   7.035 -0.0365  0.3417  0.1639
 6084TIP3    H142447   6.384   1.043   7.085 -1.3050 -0.0560 -0.2719
 6084TIP3    H242448   6.343   1.189   7.097  0.4497  0.4119  0.3646
 6085TIP3   OH242449   2.322   1.601   7.650  0.3536  0.0359 -0.2772
 6085TIP3    H142450   2.368   1.537   7.596  0.8096  0.0796  0.0598
 6085TIP3    H242451   2.338   1.573   7.740 -1.9000 -1.1175 -0.1405
 6086TIP3   OH242452   0.775   5.708   8.193 -0.3251 -0.5861  0.0096
 6086TIP3    H142453   0.785   5.724   8.099 -1.6745 -1.2435 -0.2629
 6086TIP3    H242454   0.865   5.694   8.224  0.5257  2.9009 -0.5179
 6087TIP3   OH242455   0.042   1.350   7.426 -0.8398  0.1864 -0.4274
 6087TIP3    H142456  -0.053   1.356   7.442 -1.0484  0.2795 -1.6494
 6087TIP3    H242457   0.050   1.324   7.334  0.2750 -2.8101  0.3792
 6088TIP3   OH242458   2.051   0.009   7.531  0.0813 -0.0471 -0.0156
 6088TIP3    H142459   2.134   0.005   7.577 -0.7049  0.7236  1.5705
 6088TIP3    H242460   2.044  -0.074   7.484  2.6719  0.7133 -1.9354
 6089TIP3   OH242461   6.090   2.470   7.339 -1.0005  0.1762 -0.4981
 6089TIP3    H142462   6.070   2.465   7.246 -2.1200 -2.3086 -0.1819
 6089TIP3    H242463   6.171   2.419   7.349 -1.0930  0.1138 -0.0464
 6090TIP3   OH242464   1.858   6.216   8.329  0.5068 -0.3355  0.4591
 6090TIP3    H142465   1.849   6.303   8.369 -0.3773 -1.3884  2.7504
 6090TIP3    H242466   1.923   6.228   8.260 -1.4547  2.7024 -1.0874
 6091TIP3   OH242467   2.453   4.165   6.812  0.2890 -0.1940  0.5333
 6091TIP3    H142468   2.413   4.251   6.815 -2.6175 -1.4111  0.4049
 6091TIP3    H242469   2.446   4.132   6.902 -0.6396 -1.0500  0.1770
 6092TIP3   OH242470   3.407   2.861   7.621  0.1185  0.1574  0.2589
 6092TIP3    H142471   3.433   2.805   7.548 -1.1539  1.0472 -0.9172
 6092TIP3    H242472   3.382   2.944   7.581  1.2360  1.3495  1.9038
 6093TIP3   OH242473   5.017   2.881   7.210  0.4997  0.1952 -0.4038
 6093TIP3    H142474   4.982   2.793   7.220  1.2185 -0.1604 -0.9236
 6093TIP3    H242475   4.944   2.939   7.232  0.3310 -0.5166  1.0061
 6094TIP3   OH242476   2.240   1.880  10.086  0.1370 -0.7231  0.3453
 6094TIP3    H142477   2.323   1.863  10.043  0.7101 -0.4580  1.3232
 6094TIP3    H242478   2.228   1.807  10.146  0.5611  0.1339  1.5149
 6095TIP3   OH242479   1.122   4.204   7.232  0.2175 -0.1574 -0.6685
 6095TIP3    H142480   1.105   4.151   7.310  0.9427  0.6940  0.0856
 6095TIP3    H242481   1.108   4.144   7.159 -2.4935 -0.4555 -0.0075
 6096TIP3   OH242482   5.928   0.003   7.022 -0.0909 -0.5761 -0.1567
 6096TIP3    H142483   5.966   0.011   7.110  2.5542  1.4413 -1.3581
 6096TIP3    H242484   5.904   0.092   6.998 -1.6100 -1.2302 -1.1918
 6097TIP3   OH242485   4.019   1.355   9.434 -0.4981  0.1932 -0.5559
 6097TIP3    H142486   4.101   1.401   9.418 -0.1288 -0.3753 -0.3348
 6097TIP3    H242487   3.999   1.373   9.526  0.1524 -0.8453 -0.1855
 6098TIP3   OH242488   0.907   1.558   7.933  0.3764 -0.1695 -0.6679
 6098TIP3    H142489   0.946   1.548   7.846  0.0840 -0.5078 -0.7615
 6098TIP3    H242490   0.819   1.522   7.924  0.5689 -0.8156 -0.0588
 6099TIP3   OH242491   3.267   1.601   6.604 -0.6463 -0.5579 -0.1466
 6099TIP3    H142492   3.181   1.580   6.640 -0.7466 -1.1716 -0.7111
 6099TIP3    H242493   3.317   1.520   6.613 -0.2996 -0.3614 -0.2967
 6100TIP3   OH242494   2.283   4.762   8.330  0.1437  0.3133  0.5338
 6100TIP3    H142495   2.195   4.725   8.322 -0.0347  0.7498  0.4937
 6100TIP3    H242496   2.301   4.761   8.424 -0.3764  1.3272  0.6504
 6101TIP3   OH242497   0.235   3.874   9.897  0.0452 -0.2277  0.2868
 6101TIP3    H142498   0.232   3.861   9.992 -2.1369 -1.9644  0.0559
 6101TIP3    H242499   0.270   3.792   9.863 -1.9430 -0.7714 -0.5422
 6102TIP3   OH242500   3.467   3.950   8.992  0.0249  0.4588  0.8025
 6102TIP3    H142501   3.549   3.929   8.946 -1.1529 -0.1259 -1.1883
 6102TIP3    H242502   3.486   4.031   9.040  1.4916  0.9088 -0.4472
 6103TIP3   OH242503   5.067   3.317   8.770 -0.3027  0.4099  0.4440
 6103TIP3    H142504   5.091   3.335   8.861 -0.2914 -1.1442  0.7803
 6103TIP3    H242505   5.030   3.399   8.739  1.7668  1.7004  1.1263
 6104TIP3   OH242506   1.538   1.218   8.477 -0.2440  0.0711  0.3083
 6104TIP3    H142507   1.487   1.299   8.472  0.5244  0.5836  0.7745
 6104TIP3    H242508   1.614   1.234   8.421 -1.2158 -1.1798 -1.4777
 6105TIP3   OH242509   5.004   1.740   9.248 -1.0480  0.1476 -0.1027
 6105TIP3    H142510   5.085   1.712   9.292 -1.4087  0.7018  0.9364
 6105TIP3    H242511   4.959   1.794   9.312 -2.6262 -0.7670 -0.3909
 6106TIP3   OH242512   1.913   2.435   9.259 -0.5006  0.5328  0.2982
 6106TIP3    H142513   1.940   2.343   9.262  1.2720  1.0151 -0.1084
 6106TIP3    H242514   1.987   2.481   9.219 -2.5293  1.7046 -2.4612
 6107TIP3   OH242515   1.004   3.218   8.545 -0.2813 -0.4009  0.1596
 6107TIP3    H142516   1.043   3.206   8.458  0.0175 -1.8275  0.4660
 6107TIP3    H242517   1.075   3.196   8.606 -1.1183 -1.5704  0.7394
 6108TIP3   OH242518   6.562   4.107  10.186  0.5790 -0.2849  0.2465
 6108TIP3    H142519   6.575   4.161  10.108 -0.8227 -4.8263 -3.5836
 6108TIP3    H242520   6.649   4.071  10.204  0.3704 -2.0424 -1.7858
 6109TIP3   OH242521   0.641   0.527   8.347  0.0783  0.0223  0.0345
 6109TIP3    H142522   0.613   0.502   8.436 -0.0289 -1.2942 -0.3514
 6109TIP3    H242523   0.616   0.453   8.292  1.9002 -0.0430 -0.7799
 6110TIP3   OH242524   5.383   5.420   9.478 -0.1654 -0.9485  0.1429
 6110TIP3    H142525   5.460   5.472   9.456 -0.6059  0.5136  1.7892
 6110TIP3    H242526   5.327   5.425   9.401  0.0713  0.5688  0.0379
 6111TIP3   OH242527   5.302   0.361   6.522 -0.2643 -0.5497  0.1744
 6111TIP3    H142528   5.210   0.337   6.512 -0.1841 -0.8445  0.1361
 6111TIP3    H242529   5.304   0.455   6.505 -0.2929 -0.8311 -1.5355
 6112TIP3   OH242530   4.939   3.841   9.280 -0.1685 -0.8989  0.4221
 6112TIP3    H142531   4.918   3.934   9.271  0.3336 -0.5053  2.6509
 6112TIP3    H242532   5.001   3.823   9.210 -0.1208  0.5079  0.0830
 6113TIP3   OH242533   4.075   5.874   6.429 -0.1304  0.3158 -0.0270
 6113TIP3    H142534   4.061   5.872   6.524 -0.8646 -1.7890 -0.1363
 6113TIP3    H242535   3.993   5.842   6.392  0.8411 -0.8048 -1.2786
 6114TIP3   OH242536   4.799   2.910   9.655  0.1635 -0.1521 -0.5092
 6114TIP3    H142537   4.797   2.927   9.561 -3.1319  1.8047 -0.2059
 6114TIP3    H242538   4.724   2.852   9.671 -0.0331  0.4811  1.0424
 6115TIP3   OH242539   1.280   4.519   8.163 -0.3800  0.2815 -0.3831
 6115TIP3    H142540   1.343   4.549   8.229 -1.4387  2.4220 -0.2796
 6115TIP3    H242541   1.198   4.563   8.186 -1.9926 -2.4391 -0.4995
 6116TIP3   OH242542   5.085   6.683   7.111  0.0084 -0.5259  0.7275
 6116TIP3    H142543   5.053   6.641   7.032 -0.5633 -0.0049  0.6707
 6116TIP3    H242544   5.037   6.641   7.182  0.6746 -1.1382  0.8161
 6117TIP3   OH242545   4.124   2.078   7.568  0.4004 -0.0936  0.1041
 6117TIP3    H142546   4.194   2.125   7.522 -0.6675  1.1765 -0.2865
 6117TIP3    H242547   4.052   2.073   7.505 -0.8572  1.0896  1.3540
 6118TIP3   OH242548   0.658   3.116   9.861 -0.4141  0.4310  0.2081
 6118TIP3    H142549   0.648   3.030   9.819 -1.1082  0.5768  0.0742
 6118TIP3    H242550   0.732   3.156   9.815  0.4842 -0.4331  0.8446
 6119TIP3   OH242551   1.020   2.171   8.152 -0.4043 -0.0922 -0.2448
 6119TIP3    H142552   1.035   2.152   8.245  1.1540 -1.4379 -0.7189
 6119TIP3    H242553   0.951   2.238   8.152 -0.7623 -0.3860  1.8464
 6120TIP3   OH242554   3.095   0.172   6.438  0.3433 -0.6894  0.4155
 6120TIP3    H142555   3.104   0.250   6.384  1.1699 -0.6132  0.6560
 6120TIP3    H242556   3.183   0.135   6.442 -0.1937 -2.1840 -0.5161
 6121TIP3   OH242557   3.301   1.690   7.129  0.2823  0.2137 -0.2745
 6121TIP3    H142558   3.242   1.657   7.061  1.4224  0.6796 -1.5351
 6121TIP3    H242559   3.268   1.778   7.148 -1.2227 -0.6241  1.2488
 6122TIP3   OH242560   5.275   3.404   6.865 -0.0674 -0.1192 -0.4694
 6122TIP3    H142561   5.290   3.494   6.894 -0.3681  0.3880 -1.8579
 6122TIP3    H242562   5.181   3.390   6.880  0.4053 -1.1229  2.1679
 6123TIP3   OH242563   5.657   4.329   9.514 -0.1582  0.0222 -0.0597
 6123TIP3    H142564   5.702   4.377   9.583 -0.6700 -0.5563  0.6886
 6123TIP3    H242565   5.727   4.290   9.462  0.2266  0.2250  0.3008
 6124TIP3   OH242566   2.238   2.032   7.720 -0.4097 -0.7840 -0.1020
 6124TIP3    H142567   2.302   2.085   7.766 -0.6671  1.5465 -2.2375
 6124TIP3    H242568   2.153   2.065   7.750 -0.5764  0.6861 -2.0638
 6125TIP3   OH242569   0.977   2.361   8.548 -0.1140  0.2553  0.5788
 6125TIP3    H142570   0.930   2.429   8.500 -0.6029  0.4964  1.3602
 6125TIP3    H242571   1.033   2.409   8.609  0.4979 -0.0392  0.2489
 6126TIP3   OH242572   0.146   6.317   6.463 -0.5074  0.6221  0.0762
 6126TIP3    H142573   0.099   6.289   6.384 -1.9625  0.9963  0.7718
 6126TIP3    H242574   0.079   6.360   6.516 -0.5766 -2.8201  3.2036
 6127TIP3   OH242575   3.009   1.895   9.037  0.8397 -0.0119 -0.3401
 6127TIP3    H142576   3.018   1.801   9.052  1.3961  0.1548  0.3956
 6127TIP3    H242577   3.054   1.910   8.953  1.2043 -0.3175 -0.2031
 6128TIP3   OH242578   4.987   2.729   8.293 -0.0907 -0.0719 -0.0439
 6128TIP3    H142579   4.894   2.745   8.279  0.4082  2.5940 -0.7293
 6128TIP3    H242580   4.999   2.636   8.270 -2.0796  0.2099 -2.6340
 6129TIP3   OH242581   1.102   4.942   8.205  0.4975 -0.4584  0.5420
 6129TIP3    H142582   1.120   4.877   8.273 -1.3971 -0.9845  0.6088
 6129TIP3    H242583   1.102   4.893   8.123  0.6635 -0.2446  0.4145
 6130TIP3   OH242584   2.279   4.627   7.941  0.0749  0.3360  0.3161
 6130TIP3    H142585   2.223   4.555   7.970  1.1416 -0.6246  0.0861
 6130TIP3    H242586   2.339   4.643   8.014 -0.3862  1.2401  0.5029
 6131TIP3   OH242587   3.755   0.005   9.637 -0.4704  0.0722 -0.2938
 6131TIP3    H142588   3.715  -0.071   9.679  0.5258  0.3259  1.1928
 6131TIP3    H242589   3.686   0.041   9.582 -1.4323 -1.0295  0.1475
 6132TIP3   OH242590   1.985   3.463   7.885 -0.4748 -0.3235 -0.4283
 6132TIP3    H142591   2.057   3.511   7.927 -1.3056 -1.3316  2.4377
 6132TIP3    H242592   2.028   3.393   7.836  0.5593  0.6064 -0.9022
 6133TIP3   OH242593   1.278   3.650   9.940 -0.2597 -0.3225 -0.0303
 6133TIP3    H142594   1.291   3.702   9.861 -0.5222 -1.1263 -0.6173
 6133TIP3    H242595   1.363   3.651   9.985 -0.3678  0.9144  0.1702
 6134TIP3   OH242596   3.138   5.602   7.933 -0.6129  0.5147 -0.8503
 6134TIP3    H142597   3.132   5.660   8.008  2.0842  0.5753 -0.5787
 6134TIP3    H242598   3.167   5.518   7.969 -0.4704  0.1844 -1.6927
 6135TIP3   OH242599   2.699   0.439   8.035 -0.5214  0.4905 -0.1721
 6135TIP3    H142600   2.780   0.467   7.992 -0.1086  1.7163  1.3563
 6135TIP3    H242601   2.643   0.516   8.034 -0.2856  0.7272  1.9754
 6136TIP3   OH242602   3.684   1.536   7.626 -0.1020  0.8066 -0.1338
 6136TIP3    H142603   3.617   1.601   7.647  0.3083  0.7674  1.3713
 6136TIP3    H242604   3.767   1.581   7.638  0.2778 -0.4220  2.9085
 6137TIP3   OH242605   6.533   2.438   7.908 -0.1904  0.4506 -0.7530
 6137TIP3    H142606   6.627   2.440   7.928 -0.2606 -1.1513 -0.1158
 6137TIP3    H242607   6.491   2.426   7.993 -0.7138 -2.6953 -1.3377
 6138TIP3   OH242608   6.675   2.639   7.155  0.4949  0.1251 -0.5718
 6138TIP3    H142609   6.646   2.616   7.066 -2.6230  1.3332 -0.0114
 6138TIP3    H242610   6.660   2.733   7.162  0.5798  0.0423  1.2457
 6139TIP3   OH242611   2.162   5.293   8.853  0.1676 -0.2468  0.2534
 6139TIP3    H142612   2.236   5.259   8.802 -0.6141 -1.3071 -0.2232
 6139TIP3    H242613   2.202   5.344   8.923  1.4040 -1.6116  0.5866
 6140TIP3   OH242614   0.817   1.593   6.689  0.2254  0.2710 -0.5660
 6140TIP3    H142615   0.810   1.498   6.694 -0.7945  0.3548 -0.1940
 6140TIP3    H242616   0.742   1.626   6.739  0.8973  1.2790 -0.1813
 6141TIP3   OH242617   1.832   2.111   7.620  0.2177  0.0824 -0.2219
 6141TIP3    H142618   1.904   2.050   7.634 -0.6149 -0.2415  4.6973
 6141TIP3    H242619   1.871   2.197   7.634  0.1698  0.1499 -0.4958
 6142TIP3   OH242620   2.364   2.618   9.663  0.1940  0.2733 -0.2811
 6142TIP3    H142621   2.380   2.583   9.750 -2.8211 -0.9195 -0.0773
 6142TIP3    H242622   2.314   2.698   9.678 -1.4737 -0.6123 -0.8604
 6143TIP3   OH242623   2.287   3.828   8.311 -0.2395 -0.1697 -0.3382
 6143TIP3    H142624   2.246   3.848   8.396  1.1377  0.4049  0.2270
 6143TIP3    H242625   2.373   3.870   8.316  1.3910 -3.2040 -0.5526
 6144TIP3   OH242626   1.563   2.727  10.759 -0.4545  0.2412  0.2016
 6144TIP3    H142627   1.588   2.774  10.679 -2.2692 -0.5329 -0.8720
 6144TIP3    H242628   1.569   2.634  10.736 -1.6271  0.0101  0.7331
 6145TIP3   OH242629   2.937   5.452   9.056  0.3404 -0.0523 -0.1092
 6145TIP3    H142630   2.936   5.496   9.141  1.6304 -0.9763  0.4151
 6145TIP3    H242631   2.932   5.524   8.993  0.3658  0.7127  0.7315
 6146TIP3   OH242632   2.698   1.731   7.336 -0.0089 -0.0873 -0.2616
 6146TIP3    H142633   2.705   1.773   7.422 -0.4147  1.5344 -0.9904
 6146TIP3    H242634   2.604   1.728   7.319  0.0570 -0.6514 -0.5432
 6147TIP3   OH242635   4.932   2.631   8.040  0.4842  0.2068 -0.0309
 6147TIP3    H142636   5.021   2.655   8.013  0.0242 -0.5124 -2.5099
 6147TIP3    H242637   4.917   2.547   7.996 -0.7113 -0.7211  2.0253
 6148TIP3   OH242638   0.337   0.015   9.138  0.0751 -0.2641  0.0016
 6148TIP3    H142639   0.352   0.053   9.225  0.7786  0.9971 -0.6504
 6148TIP3    H242640   0.409  -0.048   9.127 -0.5307 -1.1039  0.6790
 6149TIP3   OH242641   3.502   0.952   7.203 -0.1445 -0.5396  0.3024
 6149TIP3    H142642   3.413   0.932   7.174 -0.5266 -0.1201  1.1333
 6149TIP3    H242643   3.490   1.022   7.267  0.6142 -1.6373  1.7025
 6150TIP3   OH242644   4.192   5.017   6.916 -0.4250 -0.0600 -0.0945
 6150TIP3    H142645   4.128   5.071   6.964 -1.0119 -0.6682 -0.1787
 6150TIP3    H242646   4.230   4.961   6.983 -0.0128  0.2587 -0.0555
 6151TIP3   OH242647   6.034   2.976   6.575 -0.6772  0.0558  0.2439
 6151TIP3    H142648   5.994   2.992   6.660  0.6572 -1.1453  1.1382
 6151TIP3    H242649   6.123   2.947   6.595 -0.4961 -0.7721 -1.5488
 6152TIP3   OH242650   6.606   1.651   7.995 -0.4530  0.6349  0.3347
 6152TIP3    H142651   6.698   1.675   7.992 -0.2980  0.1233  0.7510
 6152TIP3    H242652   6.564   1.705   7.928 -0.1486  2.1105  1.2713
 6153TIP3   OH242653   3.223   2.175   8.742  0.0198 -0.4550 -0.2195
 6153TIP3    H142654   3.269   2.098   8.710 -1.1374 -0.8752 -0.9665
 6153TIP3    H242655   3.247   2.245   8.681  0.1227 -0.5270 -0.2614
 6154TIP3   OH242656   4.062   4.149   9.114 -0.1006 -0.3085  0.0455
 6154TIP3    H142657   3.993   4.147   9.047  0.7967  0.7458 -0.9715
 6154TIP3    H242658   4.140   4.120   9.067  0.4515 -0.0274  0.7859
 6155TIP3   OH242659   0.124   2.904   8.192  0.8524 -0.5436 -0.4775
 6155TIP3    H142660   0.068   2.910   8.270  2.5145 -0.2086  0.7691
 6155TIP3    H242661   0.192   2.841   8.217  0.8358 -1.2368 -2.0780
 6156TIP3   OH242662   0.374   1.975   8.416  0.3497  0.4211  0.7695
 6156TIP3    H142663   0.468   1.996   8.423  0.9216 -0.9613 -1.5973
 6156TIP3    H242664   0.340   2.041   8.355  0.0572  0.1928  0.6842
 6157TIP3   OH242665   2.261   5.025   6.890 -0.4358 -0.4809 -0.4624
 6157TIP3    H142666   2.344   5.062   6.860 -1.5050  1.3414 -1.3251
 6157TIP3    H242667   2.212   5.007   6.810 -1.5297  0.0819  0.0546
 6158TIP3   OH242668   2.882   6.616   7.655  0.1028  0.6446 -0.0113
 6158TIP3    H142669   2.800   6.659   7.631  0.2839  0.8204 -0.3299
 6158TIP3    H242670   2.858   6.526   7.674 -0.1670  0.6999 -0.0967
 6159TIP3   OH242671   4.660   5.155   7.766 -0.0612 -0.2235 -0.3556
 6159TIP3    H142672   4.568   5.179   7.780  0.0349 -0.4365  0.7643
 6159TIP3    H242673   4.702   5.237   7.740 -0.2624  0.2665  0.7785
 6160TIP3   OH242674   6.149   5.860   7.764  0.2868  0.3607 -0.2850
 6160TIP3    H142675   6.163   5.952   7.785 -1.8484  0.4236  1.2149
 6160TIP3    H242676   6.212   5.812   7.817  2.1658  0.9375 -1.8943
 6161TIP3   OH242677   4.046   5.899   7.209 -0.9495  1.0170 -0.5324
 6161TIP3    H142678   4.077   5.953   7.282 -2.1347  0.6788  0.2457
 6161TIP3    H242679   4.021   5.816   7.249 -2.6156  1.1871 -1.1344
 6162TIP3   OH242680   1.953   4.724   7.210 -0.0217  0.0933  0.2712
 6162TIP3    H142681   1.981   4.816   7.206 -0.4973  0.2103 -2.0219
 6162TIP3    H242682   1.903   4.718   7.292 -3.3096  2.9710 -1.2069
 6163TIP3   OH242683   1.739   3.761   7.220 -0.1084 -0.0969  0.1748
 6163TIP3    H142684   1.730   3.667   7.211  0.5126 -0.0826 -0.7638
 6163TIP3    H242685   1.653   3.792   7.248 -0.4670 -0.8702 -0.0693
 6164TIP3   OH242686   2.662   4.913   6.647 -0.2336 -0.3031  0.0863
 6164TIP3    H142687   2.754   4.915   6.622  0.2504 -0.9925  1.6964
 6164TIP3    H242688   2.653   4.836   6.703 -1.7563 -0.1554  0.0981
 6165TIP3   OH242689   1.241   1.338   8.232 -0.1963 -0.2102  0.1335
 6165TIP3    H142690   1.272   1.274   8.296 -0.5049 -0.0300  0.4660
 6165TIP3    H242691   1.166   1.296   8.189 -1.7586  0.7022  1.8162
 6166TIP3   OH242692   1.096   4.491   7.178 -0.1577 -0.8144  0.3106
 6166TIP3    H142693   1.118   4.406   7.216  2.6235 -0.2807  0.0903
 6166TIP3    H242694   1.117   4.555   7.246  0.8986 -0.1316 -0.6107
 6167TIP3   OH242695   3.648   1.426   8.460  0.0838  0.1066  0.2352
 6167TIP3    H142696   3.725   1.375   8.435 -0.2945 -0.0692 -0.6395
 6167TIP3    H242697   3.602   1.372   8.523 -0.1746 -0.5233 -0.4833
 6168TIP3   OH242698   0.679   5.310   6.377  0.2318  0.3240 -0.3168
 6168TIP3    H142699   0.656   5.398   6.347 -0.6548  0.8082  1.6124
 6168TIP3    H242700   0.772   5.316   6.401 -0.0008  0.9480  0.4579
 6169TIP3   OH242701   0.866   0.953  15.306 -0.2819  0.0591 -0.0713
 6169TIP3    H142702   0.906   0.972  15.221 -1.2965 -0.8257 -0.7729
 6169TIP3    H242703   0.879   0.858  15.318  0.2036  0.2389  0.9652
 6170TIP3   OH242704   5.485   6.242   8.503  0.3161 -0.5944  0.0658
 6170TIP3    H142705   5.535   6.302   8.448  0.1889 -0.3413  0.2226
 6170TIP3    H242706   5.501   6.156   8.465 -1.1338 -0.2560 -1.4101
 6171TIP3   OH242707   3.088   3.992   9.231  0.0925 -0.0116 -0.2703
 6171TIP3    H142708   3.031   4.067   9.220 -0.4411 -0.3989 -0.2057
 6171TIP3    H242709   3.170   4.028   9.265 -0.6200  0.3939  1.1136
 6172TIP3   OH242710   0.854   2.402   8.110 -0.6015 -0.0570  0.3681
 6172TIP3    H142711   0.889   2.471   8.166  0.1593  0.8569 -1.1711
 6172TIP3    H242712   0.802   2.449   8.045 -1.3855 -1.0878  0.2266
 6173TIP3   OH242713   0.851   2.789   9.099 -0.4255 -0.6178 -0.3583
 6173TIP3    H142714   0.933   2.740   9.102  0.3971  0.7543  0.7010
 6173TIP3    H242715   0.822   2.793   9.190  0.5047  2.3223 -0.0795
 6174TIP3   OH242716   5.546   5.598   7.862  0.0473  0.3747 -0.1402
 6174TIP3    H142717   5.554   5.630   7.951 -0.7111  1.9518 -0.6013
 6174TIP3    H242718   5.452   5.582   7.851  0.1453  0.1270 -0.6241
 6175TIP3   OH242719   3.229   2.911   7.132 -0.4227 -0.1996 -0.5498
 6175TIP3    H142720   3.190   2.955   7.056  1.3176  0.6829 -0.9750
 6175TIP3    H242721   3.220   2.974   7.203  0.0701 -0.0534 -0.6136
 6176TIP3   OH242722   4.213   2.361   6.319  0.1520 -0.3471 -0.0556
 6176TIP3    H142723   4.190   2.273   6.290  0.7635 -0.9096  1.1226
 6176TIP3    H242724   4.137   2.391   6.370 -0.4326  0.1883 -1.1869
 6177TIP3   OH242725   6.320   3.676   6.711  0.1837  0.2765 -0.0652
 6177TIP3    H142726   6.353   3.626   6.786 -0.3439  1.3377  0.9133
 6177TIP3    H242727   6.226   3.661   6.713  0.2301 -0.1657 -0.8989
 6178TIP3   OH242728   0.823   0.337   8.548  0.4349 -0.3019  0.5947
 6178TIP3    H142729   0.740   0.297   8.576 -0.5111 -0.4473 -2.1593
 6178TIP3    H242730   0.890   0.273   8.573 -0.4867 -1.0975  1.1100
 6179TIP3   OH242731   5.590   2.766   7.384  0.1385 -0.3907 -0.3224
 6179TIP3    H142732   5.657   2.833   7.398 -1.0755  0.8574 -0.1924
 6179TIP3    H242733   5.553   2.787   7.298  0.5752 -1.6713 -0.8346
 6180TIP3   OH242734   4.375   5.878   7.226 -0.0183 -0.0087  0.0086
 6180TIP3    H142735   4.352   5.798   7.274  1.0073  0.2631  0.9733
 6180TIP3    H242736   4.367   5.948   7.291 -0.0244  0.5567 -0.5976
 6181TIP3   OH242737   0.794   4.630   7.583 -0.0495  0.0414  0.2948
 6181TIP3    H142738   0.772   4.545   7.622 -0.1272 -0.3908 -0.6443
 6181TIP3    H242739   0.827   4.682   7.656  2.0892 -1.5152  0.5400
 6182TIP3   OH242740   6.539   3.027  10.116 -0.0389 -0.3497 -0.1050
 6182TIP3    H142741   6.515   3.095  10.053 -0.4237 -0.5079 -0.1360
 6182TIP3    H242742   6.500   3.056  10.199 -1.0263 -0.9839 -0.3221
 6183TIP3   OH242743   0.149   1.949   8.579  0.1510  0.4442  0.6344
 6183TIP3    H142744   0.108   2.032   8.555  0.0623  0.3330  0.3965
 6183TIP3    H242745   0.224   1.940   8.520 -0.5752 -0.2474 -0.2204
 6184TIP3   OH242746   2.217   0.510   6.812 -0.3273  0.1159 -0.5654
 6184TIP3    H142747   2.209   0.449   6.886  1.9411 -0.1794 -0.4936
 6184TIP3    H242748   2.283   0.573   6.840 -2.2156  2.3500 -0.8796
 6185TIP3   OH242749   3.582   5.111   7.834  0.1089 -0.2202 -0.2063
 6185TIP3    H142750   3.510   5.122   7.895  0.9610  0.4724  0.7201
 6185TIP3    H242751   3.588   5.195   7.789  0.2388 -0.3303 -0.3959
 6186TIP3   OH242752   2.621   0.690   7.153 -0.3077  0.4413  0.3021
 6186TIP3    H142753   2.636   0.602   7.187 -1.3918  0.3034  0.4760
 6186TIP3    H242754   2.709   0.727   7.141  0.1426 -0.1040  1.6841
 6187TIP3   OH242755   0.099   2.428   8.990 -0.7982  0.1669  0.5319
 6187TIP3    H142756   0.184   2.396   8.960 -1.8553 -0.2884 -2.3000
 6187TIP3    H242757   0.119   2.506   9.041  1.2715  1.1059 -1.5411
 6188TIP3   OH242758   0.571   0.028   8.867  0.3893  0.5984  0.5356
 6188TIP3    H142759   0.535  -0.060   8.858  0.1340  0.8170 -0.7694
 6188TIP3    H242760   0.644   0.017   8.928  1.4256 -0.8572 -0.8658
 6189TIP3   OH242761   2.488   2.911   7.097 -0.1393  0.0036 -0.4575
 6189TIP3    H142762   2.468   2.931   7.005 -0.9380 -1.2605 -0.5896
 6189TIP3    H242763   2.583   2.924   7.104  0.0221 -0.4157 -1.6052
 6190TIP3   OH242764   1.210   1.520   7.411  0.1721 -0.1073  0.1425
 6190TIP3    H142765   1.290   1.574   7.408 -0.6701  1.1615 -2.1460
 6190TIP3    H242766   1.192   1.499   7.319 -0.3066 -3.2648  0.8398
 6191TIP3   OH242767   2.643   3.379   7.328  0.3194 -0.3309 -0.7928
 6191TIP3    H142768   2.557   3.339   7.320  0.9490 -1.4804 -2.0823
 6191TIP3    H242769   2.681   3.340   7.407 -0.3200  0.1665 -0.2327
 6192TIP3   OH242770   1.538   0.651   6.530 -0.2463  0.2243 -0.0756
 6192TIP3    H142771   1.619   0.601   6.524 -2.0703 -3.0472 -0.2731
 6192TIP3    H242772   1.522   0.660   6.623 -0.2366 -0.2062 -0.0297
 6193TIP3   OH242773   5.501   1.562   8.518 -0.0241  0.1726 -0.0540
 6193TIP3    H142774   5.507   1.595   8.607  1.2332  0.2026 -0.1372
 6193TIP3    H242775   5.409   1.537   8.508 -1.1298  3.6562 -0.0181
 6194TIP3   OH242776   0.105   2.026   7.544 -1.2353  0.1184  0.0644
 6194TIP3    H142777   0.151   2.109   7.560  0.3357 -0.4768 -1.0652
 6194TIP3    H242778   0.099   1.985   7.630 -0.1843  0.4992  0.3389
 6195TIP3   OH242779   2.327   1.517   6.786 -0.2886 -0.3412  0.5361
 6195TIP3    H142780   2.391   1.550   6.723 -0.0004 -0.1266  0.9370
 6195TIP3    H242781   2.321   1.423   6.767  0.3738 -0.4194  0.6967
 6196TIP3   OH242782   3.909   1.252   6.626  0.4598  0.2733  0.1406
 6196TIP3    H142783   3.860   1.306   6.688  3.2883  0.9082  1.9800
 6196TIP3    H242784   3.899   1.297   6.542 -2.4087  0.0762  0.2664
 6197TIP3   OH242785   5.114   5.862   7.691  0.4976  0.0982  0.1039
 6197TIP3    H142786   5.026   5.894   7.707  0.3776 -0.0023 -0.3748
 6197TIP3    H242787   5.126   5.867   7.597  0.8664 -0.2476  0.1279
 6198TIP3   OH242788   1.894   4.288   9.668  0.0974 -0.1079  0.1237
 6198TIP3    H142789   1.815   4.342   9.666  0.3222  0.2309  0.3456
 6198TIP3    H242790   1.913   4.275   9.761  1.6303  1.7909  0.1371
 6199TIP3   OH242791   2.411   5.759   7.445 -0.3681  0.2435 -0.4201
 6199TIP3    H142792   2.396   5.703   7.368 -0.3753  0.2932 -0.4552
 6199TIP3    H242793   2.407   5.848   7.410 -2.1397  0.3335 -0.0727
 6200TIP3   OH242794   4.879   3.009   6.388 -0.0261 -0.0957 -0.4364
 6200TIP3    H142795   4.972   2.998   6.410  0.3531  3.0568  0.0102
 6200TIP3    H242796   4.880   3.045   6.299 -0.9026 -0.8689 -0.7742
 6201TIP3   OH242797   0.622   6.038   7.829 -0.1111 -0.0943 -0.0204
 6201TIP3    H142798   0.556   6.077   7.772  0.7438  0.0330 -0.9645
 6201TIP3    H242799   0.628   6.097   7.904 -1.5631 -0.4954  0.4375
 6202TIP3   OH242800   4.740   0.136   8.143  0.6916 -0.2837 -0.4760
 6202TIP3    H142801   4.683   0.127   8.220 -0.4964  1.3910 -1.0921
 6202TIP3    H242802   4.826   0.158   8.179  0.3801 -0.4528  0.4023
 6203TIP3   OH242803   1.195   3.142   8.726  0.1176  0.0624  0.1272
 6203TIP3    H142804   1.179   3.162   8.818  1.0571 -0.3610  0.3963
 6203TIP3    H242805   1.288   3.162   8.713  0.2973 -1.0490 -0.4053
 6204TIP3   OH242806   2.452   5.802   7.894 -0.0137 -0.3585 -0.6544
 6204TIP3    H142807   2.480   5.764   7.977  0.5797  0.1733 -0.6046
 6204TIP3    H242808   2.515   5.872   7.877 -1.7736  1.4447 -0.1257
 6205TIP3   OH242809   6.669   2.810   9.504 -0.4393  1.0295  0.2303
 6205TIP3    H142810   6.698   2.833   9.415  0.7342 -2.6675 -0.5527
 6205TIP3    H242811   6.607   2.738   9.491  0.5893 -0.3537  2.3874
 6206TIP3   OH242812   0.829   4.479   7.869 -0.7148 -0.0727  0.4311
 6206TIP3    H142813   0.900   4.421   7.896 -0.9013 -1.2592 -1.4725
 6206TIP3    H242814   0.809   4.530   7.947  1.8279 -0.0974  1.1842
 6207TIP3   OH242815   4.033   3.498   7.522  0.1808  0.1390 -0.4931
 6207TIP3    H142816   4.083   3.450   7.588  0.7588  0.8178 -0.4322
 6207TIP3    H242817   3.947   3.456   7.523  0.1599  0.1716  0.7294
 6208TIP3   OH242818   2.676   2.499   8.753  0.0299  0.1261  0.0215
 6208TIP3    H142819   2.636   2.584   8.736  1.3985  0.9289  0.6251
 6208TIP3    H242820   2.611   2.451   8.805  0.0583  1.6093  1.4889
 6209TIP3   OH242821   5.170   3.056   9.481  0.4389  0.1912  1.0317
 6209TIP3    H142822   5.130   3.075   9.566 -2.3041  0.1686 -0.1698
 6209TIP3    H242823   5.205   3.141   9.451  0.2566  0.4671  1.5878
 6210TIP3   OH242824   2.468   1.633   8.603  0.3095  0.1376  0.4067
 6210TIP3    H142825   2.521   1.629   8.523 -1.7824 -0.9434 -1.0451
 6210TIP3    H242826   2.418   1.714   8.595 -0.2375 -0.1986  0.3911
 6211TIP3   OH242827   1.197   4.577   6.934 -0.3275 -0.1000 -0.2294
 6211TIP3    H142828   1.158   4.556   7.019  3.2240 -0.8860  1.3558
 6211TIP3    H242829   1.178   4.501   6.879  0.1140 -1.0773  0.9261
 6212TIP3   OH242830   1.134   6.451   7.359 -0.1013  0.3132  0.3833
 6212TIP3    H142831   1.055   6.501   7.379  1.3218  3.1791 -0.6939
 6212TIP3    H242832   1.179   6.442   7.444 -2.4890 -3.3975  1.4919
 6213TIP3   OH242833   2.474   6.227   8.593  0.4284  0.3413  0.4657
 6213TIP3    H142834   2.467   6.303   8.536  0.1053  0.4307  0.6257
 6213TIP3    H242835   2.384   6.195   8.603  0.8094 -2.1569 -2.4329
 6214TIP3   OH242836   6.687   1.632   8.378  0.5240 -0.1842  0.2732
 6214TIP3    H142837   6.665   1.664   8.465  1.1503  1.4529 -0.1399
 6214TIP3    H242838   6.635   1.686   8.319  1.6826  0.1489 -0.4637
 6215TIP3   OH242839   1.536   4.270   7.685  0.5147 -0.2376 -0.4080
 6215TIP3    H142840   1.496   4.291   7.769  1.2540  1.6264 -0.4646
 6215TIP3    H242841   1.462   4.258   7.625 -0.0015  0.8570 -0.0140
 6216TIP3   OH242842   5.032   6.230   8.940 -0.5518 -0.0633 -0.5799
 6216TIP3    H142843   5.001   6.210   9.029 -0.4073 -0.9036 -0.7083
 6216TIP3    H242844   4.966   6.190   8.883 -1.2201  1.3917 -0.8656
 6217TIP3   OH242845   0.943   3.477   7.638 -0.1466 -0.5877  0.1055
 6217TIP3    H142846   0.939   3.570   7.658 -0.2317 -0.1818 -1.6263
 6217TIP3    H242847   0.861   3.441   7.673  0.6411 -0.3791  2.2868
 6218TIP3   OH242848   0.929   6.643   6.342 -0.6485 -0.8114  0.1144
 6218TIP3    H142849   0.878   6.566   6.320  0.3541 -1.1278 -1.2398
 6218TIP3    H242850   0.916   6.703   6.268 -0.8503  0.0338  0.8173
 6219TIP3   OH242851   2.979   3.270   8.169  0.3408  0.1679  0.0558
 6219TIP3    H142852   2.982   3.178   8.144 -0.6105 -0.0183  0.5844
 6219TIP3    H242853   3.055   3.309   8.126  0.3989 -0.7325 -0.6921
 6220TIP3   OH242854   2.165   0.358   8.899  0.2973 -0.4825 -0.2462
 6220TIP3    H142855   2.227   0.293   8.865  0.2679 -0.7564  0.2126
 6220TIP3    H242856   2.161   0.340   8.993  2.0373  1.6729  0.3197
 6221TIP3   OH242857   0.282   0.093   8.890 -0.2276  0.2310  0.0718
 6221TIP3    H142858   0.354   0.041   8.854 -0.1951 -0.7552  1.4804
 6221TIP3    H242859   0.286   0.077   8.984 -1.0365  1.7886  0.4051
 6222TIP3   OH242860   4.117   3.315   9.696 -0.4343 -0.1287 -0.3532
 6222TIP3    H142861   4.077   3.395   9.662 -0.9876  0.7826  2.1847
 6222TIP3    H242862   4.057   3.245   9.669 -0.5989  0.4553 -1.5607
 6223TIP3   OH242863   1.273   6.480   7.593 -0.1542 -0.3312 -1.0223
 6223TIP3    H142864   1.250   6.413   7.657  0.3052  0.2850 -0.1981
 6223TIP3    H242865   1.362   6.506   7.615 -2.0941  4.9863  2.8457
 6224TIP3   OH242866   1.805   2.076   8.107 -1.0661  0.0912 -0.5628
 6224TIP3    H142867   1.748   2.037   8.041 -0.3593 -0.6201 -0.7628
 6224TIP3    H242868   1.789   2.170   8.099 -2.0844 -0.0834 -0.7263
 6225TIP3   OH242869   3.592   1.324   8.022  0.3226 -0.3167 -0.1800
 6225TIP3    H142870   3.537   1.397   7.993 -0.8546 -1.3462 -0.6448
 6225TIP3    H242871   3.597   1.266   7.946 -0.1500 -1.5245  0.6849
 6226TIP3   OH242872   5.382   0.820   8.399  0.7298  0.0879  0.1247
 6226TIP3    H142873   5.328   0.871   8.459 -0.1623 -0.7218  0.0399
 6226TIP3    H242874   5.333   0.820   8.317  0.2839 -1.5798  0.3607
 6227TIP3   OH242875   4.136   2.034   8.337 -0.2500  0.2261 -0.5221
 6227TIP3    H142876   4.065   2.098   8.334  1.0056  1.8940  2.0165
 6227TIP3    H242877   4.110   1.974   8.407  0.1147 -0.1121 -0.6768
 6228TIP3   OH242878   5.444   2.754   7.132 -0.3190 -0.3693 -0.4948
 6228TIP3    H142879   5.531   2.715   7.120 -0.1300 -0.8621  1.9420
 6228TIP3    H242880   5.384   2.680   7.132 -0.2731 -0.4614  1.3817
 6229TIP3   OH242881   3.815   5.890   7.675  0.2260  0.0387 -0.3221
 6229TIP3    H142882   3.735   5.838   7.666  0.2628  0.0390 -0.6662
 6229TIP3    H242883   3.858   5.854   7.752  0.3102 -0.5225 -0.6248
 6230TIP3   OH242884   4.599   1.035   8.998 -0.1484  0.4329  0.2585
 6230TIP3    H142885   4.606   1.069   9.087 -0.4762 -2.2358  1.4150
 6230TIP3    H242886   4.509   1.004   8.991  0.6724 -2.2473  0.2398
 6231TIP3   OH242887   4.008   5.478   6.685  0.0793 -0.0855  0.1131
 6231TIP3    H142888   3.975   5.392   6.710  1.4251 -0.9313 -0.8625
 6231TIP3    H242889   3.943   5.512   6.624 -0.0092 -0.8279 -0.2153
 6232TIP3   OH242890   4.340   0.971   7.105 -0.2547  0.4131  0.7370
 6232TIP3    H142891   4.370   0.880   7.116  0.0706  0.4578  0.2585
 6232TIP3    H242892   4.391   1.020   7.169  0.4377  0.4295  0.1891
 6233TIP3   OH242893   1.187   5.961   9.383 -0.1110 -0.4118  0.9637
 6233TIP3    H142894   1.242   6.033   9.354 -1.0964 -0.1375 -0.2860
 6233TIP3    H242895   1.100   6.000   9.396 -0.6212 -1.3262  0.4141
 6234TIP3   OH242896   1.748   5.509   7.058  0.1254  0.1590 -0.1802
 6234TIP3    H142897   1.731   5.577   7.124  0.3622 -0.2038  0.2569
 6234TIP3    H242898   1.724   5.550   6.975  2.3903  1.5884 -0.2080
 6235TIP3   OH242899   0.089   4.186   8.934  0.1590 -0.4509 -0.0520
 6235TIP3    H142900   0.086   4.134   9.014  2.0314 -0.6661 -0.0860
 6235TIP3    H242901   0.124   4.126   8.868  0.5199  0.2998 -0.5580
 6236TIP3   OH242902   5.802   5.203   8.899 -0.0396 -0.3275 -0.3174
 6236TIP3    H142903   5.837   5.252   8.973  0.9177 -2.0360  0.4292
 6236TIP3    H242904   5.799   5.266   8.827  0.0861  1.0798  0.8751
 6237TIP3   OH242905   6.420   5.034   9.925 -0.6030 -0.6108 -0.2482
 6237TIP3    H142906   6.428   5.126   9.901 -2.0610  0.2430  2.1823
 6237TIP3    H242907   6.491   5.018   9.986 -0.6830 -0.9271 -0.2353
 6238TIP3   OH242908   4.381   4.577   8.985 -0.2375  0.2317 -0.0402
 6238TIP3    H142909   4.407   4.486   8.971  0.0378  0.0076  1.6532
 6238TIP3    H242910   4.286   4.577   8.974 -0.3383 -0.4481  0.7053
 6239TIP3   OH242911   1.507   0.653   7.656 -0.2157  0.0654 -0.3993
 6239TIP3    H142912   1.499   0.563   7.686  0.4354  0.0744 -0.1869
 6239TIP3    H242913   1.584   0.687   7.702 -1.2103  1.1359  0.5462
 6240TIP3   OH242914   4.988   6.519   8.913 -0.2959 -0.0662 -0.1666
 6240TIP3    H142915   4.981   6.440   8.966  0.1558  0.2827  0.4265
 6240TIP3    H242916   4.951   6.588   8.969 -0.0062  0.2692 -0.3887
 6241TIP3   OH242917   4.559   4.556   6.782 -0.4419 -0.0551 -0.0044
 6241TIP3    H142918   4.569   4.461   6.793  0.7799  0.2225  1.8179
 6241TIP3    H242919   4.480   4.578   6.831 -2.2690 -0.3871 -2.5776
 6242TIP3   OH242920   1.361   4.703   9.351 -0.4119  0.1092  0.1073
 6242TIP3    H142921   1.445   4.656   9.345 -1.4511 -1.8784  0.4314
 6242TIP3    H242922   1.373   4.763   9.425  1.1554  0.8662 -0.6889
 6243TIP3   OH242923   1.993   3.815   9.341 -0.1859 -0.4694  0.8301
 6243TIP3    H142924   2.033   3.876   9.404  1.8208  0.3122 -1.0558
 6243TIP3    H242925   2.042   3.734   9.352  0.1230 -0.3518  0.3427
 6244TIP3   OH242926   0.875   3.003   8.690  0.0162 -0.2535 -0.1257
 6244TIP3    H142927   0.834   3.000   8.777 -0.2141  1.1508 -0.1624
 6244TIP3    H242928   0.861   3.093   8.660 -0.4274 -0.8693 -1.8799
 6245TIP3   OH242929   4.106   2.931   9.073  0.5282 -0.2704  0.2773
 6245TIP3    H142930   4.091   2.869   9.145  0.7536 -2.4769 -1.4776
 6245TIP3    H242931   4.049   3.005   9.093 -0.5999 -1.5041  1.9181
 6246TIP3   OH242932   6.113   3.374   8.822 -0.2547 -1.2322 -0.0192
 6246TIP3    H142933   6.148   3.292   8.788  0.7444 -1.3113  1.1445
 6246TIP3    H242934   6.185   3.436   8.813 -0.7839 -0.6413 -0.2677
 6247TIP3   OH242935   3.488   5.653   8.018 -0.8432 -0.4668  0.2577
 6247TIP3    H142936   3.557   5.586   8.016  0.6633  0.9879  0.4047
 6247TIP3    H242937   3.533   5.731   8.051 -2.8347  0.2862  1.3734
 6248TIP3   OH242938   5.083   2.112   8.196  0.4326 -0.1107  0.3284
 6248TIP3    H142939   5.149   2.109   8.265  0.3251 -1.1985  0.4078
 6248TIP3    H242940   5.014   2.168   8.231  0.1866 -0.9810  1.3013
 6249TIP3   OH242941   6.443   6.719   7.622  0.2955 -0.0185 -0.4544
 6249TIP3    H142942   6.481   6.644   7.669 -2.1204 -1.6098 -0.8121
 6249TIP3    H242943   6.514   6.752   7.568  1.3920 -2.3012 -0.5449
 6250TIP3   OH242944   3.772   2.121   7.655 -0.3279  0.5827  0.7830
 6250TIP3    H142945   3.816   2.042   7.688  0.0831  0.5550  0.1891
 6250TIP3    H242946   3.840   2.188   7.657  0.0139  0.3515 -0.8960
 6251TIP3   OH242947   6.387   2.385   8.137 -0.0864  0.3089  0.3217
 6251TIP3    H142948   6.412   2.409   8.226  1.2223 -1.0438  0.3483
 6251TIP3    H242949   6.409   2.293   8.130 -0.2690  0.3731 -1.3889
 6252TIP3   OH242950   5.308   4.701   9.737  0.1184 -0.5541 -0.1154
 6252TIP3    H142951   5.336   4.782   9.778 -0.1007 -0.1055 -0.8326
 6252TIP3    H242952   5.235   4.670   9.792  1.1043 -1.0171  0.9690
 6253TIP3   OH242953   4.472   2.266   8.379  0.1900  0.2158  0.0872
 6253TIP3    H142954   4.462   2.193   8.440  1.1231 -1.1376 -1.3069
 6253TIP3    H242955   4.566   2.282   8.375 -0.0490  2.4307  1.3361
 6254TIP3   OH242956   5.565   6.573   7.273 -0.2605 -0.5215 -0.1392
 6254TIP3    H142957   5.553   6.620   7.355 -1.3947  0.0971 -0.6279
 6254TIP3    H242958   5.630   6.506   7.292  0.2886  0.2918  0.9752
 6255TIP3   OH242959   6.577   3.090   9.807  0.3074  0.3303  0.3073
 6255TIP3    H142960   6.615   3.107   9.720 -0.9817  3.4140  0.2005
 6255TIP3    H242961   6.622   3.012   9.838  2.7425  0.6435 -2.0358
 6256TIP3   OH242962   2.715   3.348   9.078 -0.7664 -0.0490 -0.0133
 6256TIP3    H142963   2.692   3.259   9.051 -2.7334 -0.3654  2.2839
 6256TIP3    H242964   2.661   3.404   9.023 -1.9627 -0.4697  0.7028
 6257TIP3   OH242965   2.331   5.453   8.970  0.1835  0.1483  0.2982
 6257TIP3    H142966   2.340   5.492   9.057  1.6598 -0.8533  0.6393
 6257TIP3    H242967   2.326   5.528   8.911 -0.9950  0.8443  1.2413
 6258TIP3   OH242968   2.706   1.435   7.185 -0.4822 -0.1350  0.1193
 6258TIP3    H142969   2.706   1.461   7.092 -0.6787 -1.0587 -0.1454
 6258TIP3    H242970   2.646   1.496   7.227  1.0477  1.5288  0.0078
 6259TIP3   OH242971   3.345   4.361   6.836 -0.1689  0.0541 -0.3715
 6259TIP3    H142972   3.359   4.382   6.744  1.9908  1.1235  0.1331
 6259TIP3    H242973   3.421   4.308   6.860 -1.3684 -1.3547  0.5069
 6260TIP3   OH242974   6.114   1.145  10.071  0.6300 -0.2915  0.1377
 6260TIP3    H142975   6.054   1.162   9.998 -0.8511 -0.6975  1.1940
 6260TIP3    H242976   6.201   1.143  10.032  0.1483  1.9668 -1.2368
 6261TIP3   OH242977   5.238   5.943   6.606 -0.0266 -0.1888 -0.1541
 6261TIP3    H142978   5.224   5.857   6.646  0.8886 -0.3286 -0.1139
 6261TIP3    H242979   5.151   5.982   6.602 -0.3674 -0.8720  0.3945
 6262TIP3   OH242980   1.972   1.662   6.526 -0.3681  0.4933 -0.2639
 6262TIP3    H142981   2.041   1.700   6.471 -0.6371  1.0165 -0.2481
 6262TIP3    H242982   2.018   1.620   6.598 -0.0691  1.1013 -0.0902
 6263TIP3   OH242983   6.444   3.350   8.299 -0.3848 -0.1346  0.3459
 6263TIP3    H142984   6.520   3.406   8.312 -0.3954  0.9183 -3.1277
 6263TIP3    H242985   6.370   3.401   8.333 -0.0369  0.7217 -0.1599
 6264TIP3   OH242986   3.650   5.776   9.164 -0.3763  0.1858  0.6306
 6264TIP3    H142987   3.730   5.824   9.143 -0.6942  0.6357  0.4340
 6264TIP3    H242988   3.649   5.772   9.260 -0.8265  1.4336  0.7088
 6265TIP3   OH242989   5.348   3.801   8.607  0.0253 -0.2045 -0.2840
 6265TIP3    H142990   5.327   3.893   8.620 -0.4843 -0.2792 -0.5630
 6265TIP3    H242991   5.438   3.792   8.639 -0.1201  0.2680  0.2668
 6266TIP3   OH242992   5.635   5.193   7.661 -0.4880 -0.0264  0.2288
 6266TIP3    H142993   5.541   5.188   7.681 -0.4963  0.9974  0.5101
 6266TIP3    H242994   5.659   5.104   7.634 -1.4913 -0.3468  0.3585
 6267TIP3   OH242995   0.444   1.772   9.906  0.9087 -0.0382  0.4138
 6267TIP3    H142996   0.477   1.753   9.994  1.0568  1.2702  0.6595
 6267TIP3    H242997   0.521   1.797   9.856  0.9029 -1.3034 -0.2544
 6268TIP3   OH242998   3.798   1.985   9.902 -0.8381 -0.0908  0.1768
 6268TIP3    H142999   3.826   1.906   9.947 -2.1808 -1.0306 -0.5821
 6268TIP3    H243000   3.704   1.976   9.892 -0.7446  0.5392 -1.8972
 6269TIP3   OH243001   2.918   6.545   8.805 -0.3207  0.1424  0.1437
 6269TIP3    H143002   2.986   6.478   8.812 -0.0493  0.0714 -2.1849
 6269TIP3    H243003   2.966   6.628   8.801 -0.4435  0.2013 -0.1555
 6270TIP3   OH243004   1.373   3.089   7.083  0.6429 -0.1795  0.3219
 6270TIP3    H143005   1.437   3.040   7.032  1.0485 -0.1621  0.8062
 6270TIP3    H243006   1.321   3.136   7.017 -0.0662 -1.6140 -0.1736
 6271TIP3   OH243007   5.504   4.104   9.686  0.0803  0.3396  0.3333
 6271TIP3    H143008   5.556   4.098   9.766 -0.3791 -2.4113  0.5460
 6271TIP3    H243009   5.557   4.156   9.626  1.7315  0.0901  1.5094
 6272TIP3   OH243010   5.893   3.376   6.668 -0.1436  0.3138 -1.0921
 6272TIP3    H143011   5.868   3.306   6.608 -0.4502 -2.8616  2.3453
 6272TIP3    H243012   5.810   3.418   6.691 -0.3764 -0.1860 -0.9962
 6273TIP3   OH243013   3.015   2.019   7.590  0.3970 -0.0268 -0.0039
 6273TIP3    H143014   3.053   2.102   7.620 -1.1064  1.0149 -0.7903
 6273TIP3    H243015   3.014   2.027   7.495  0.5694 -1.1320 -0.1081
 6274TIP3   OH243016   5.707   6.403   6.205 -0.0553 -0.4785  0.4143
 6274TIP3    H143017   5.732   6.463   6.134 -2.3337 -0.9250 -0.8762
 6274TIP3    H243018   5.699   6.459   6.282 -0.4826  0.6007 -0.3871
 6275TIP3   OH243019   6.105   3.007   7.448 -0.9397  0.2750  0.3088
 6275TIP3    H143020   6.102   3.102   7.456  0.8447  0.3131  1.1241
 6275TIP3    H243021   6.050   2.974   7.518 -0.6044  0.7037  0.7756
 6276TIP3   OH243022   6.567   0.566   7.432  0.6861 -0.0243  0.1476
 6276TIP3    H143023   6.603   0.487   7.471  0.5849 -0.5085 -0.7047
 6276TIP3    H243024   6.617   0.578   7.351 -0.4642 -0.2296 -0.6220
 6277TIP3   OH243025   6.162   5.171   9.700  0.2398 -0.0998  0.6463
 6277TIP3    H143026   6.112   5.210   9.771 -0.1713 -0.5830  0.6231
 6277TIP3    H243027   6.100   5.164   9.627  0.4337 -0.3732  0.5044
 6278TIP3   OH243028   2.921   5.922   7.432  0.7830  0.4156 -0.3246
 6278TIP3    H143029   2.976   5.932   7.354  0.7820 -0.5275 -0.4539
 6278TIP3    H243030   2.836   5.892   7.398  0.7075  0.2404  0.0148
 6279TIP3   OH243031   3.965   5.135   7.127 -0.3867  0.0326  0.7309
 6279TIP3    H143032   4.041   5.166   7.177 -0.3539  1.3262 -0.0836
 6279TIP3    H243033   3.891   5.180   7.167 -0.3563  1.1126 -0.3869
 6280TIP3   OH243034   5.932   4.327   8.796 -0.0851 -0.1653 -0.0781
 6280TIP3    H143035   5.853   4.373   8.768  0.7458  0.1716 -2.0025
 6280TIP3    H243036   5.937   4.249   8.741  0.7515 -0.3385  0.2184
 6281TIP3   OH243037   4.814   2.643   9.049  0.3785  0.3194 -0.4568
 6281TIP3    H143038   4.760   2.566   9.067  0.8343 -0.2153 -1.2584
 6281TIP3    H243039   4.890   2.633   9.106 -0.1851  0.8870  0.4136
 6282TIP3   OH243040   5.146   2.168   6.687  0.1519  0.1864  0.3803
 6282TIP3    H143041   5.237   2.140   6.687  0.3629  0.7362 -1.5221
 6282TIP3    H243042   5.132   2.207   6.601 -2.1796 -0.8493  0.1975
 6283TIP3   OH243043   0.914   3.467  10.017  0.2763 -0.0272 -0.1072
 6283TIP3    H143044   0.848   3.517   9.968  1.2613  1.9583  0.4876
 6283TIP3    H243045   0.864   3.419  10.082 -0.6198  1.3639  0.2713
 6284TIP3   OH243046   0.274   0.098   6.593  0.1428 -0.4928 -0.3834
 6284TIP3    H143047   0.329   0.172   6.571  0.8190 -0.4409  1.3053
 6284TIP3    H243048   0.205   0.098   6.527 -1.7021  3.5286  1.2285
 6285TIP3   OH243049   4.685   0.278   6.899 -0.4525  0.0807  0.2811
 6285TIP3    H143050   4.774   0.314   6.897 -1.8187  4.0287 -2.2363
 6285TIP3    H243051   4.692   0.193   6.856  2.1358  0.0439  0.6378
 6286TIP3   OH243052   4.682   5.219   9.677  0.7374  0.4103 -0.0145
 6286TIP3    H143053   4.651   5.232   9.766 -0.2305  0.7960 -0.3933
 6286TIP3    H243054   4.652   5.296   9.629 -0.4426 -0.6600 -1.0972
 6287TIP3   OH243055   2.457   5.794   6.745 -0.3320 -0.2378 -0.3289
 6287TIP3    H143056   2.413   5.880   6.745  1.6651  0.8981  1.5967
 6287TIP3    H243057   2.401   5.739   6.800 -1.1606  0.1218 -0.8048
 6288TIP3   OH243058   2.173   5.115   7.461 -0.3466  0.3136  0.2865
 6288TIP3    H143059   2.200   5.050   7.395 -1.3391  1.9005 -1.7851
 6288TIP3    H243060   2.100   5.073   7.507 -1.0739 -0.0333 -1.1201
 6289TIP3   OH243061   3.509   3.284   7.629 -0.2681 -0.3856  0.0071
 6289TIP3    H143062   3.549   3.341   7.563 -1.5514  0.5251 -0.0210
 6289TIP3    H243063   3.477   3.344   7.696  0.1476 -1.2391  0.9946
 6290TIP3   OH243064   0.774   3.325   6.622 -0.3249 -0.2644 -0.0412
 6290TIP3    H143065   0.708   3.394   6.628 -1.3700 -1.3025  1.1620
 6290TIP3    H243066   0.722   3.244   6.618  0.8871 -1.0902  0.5837
 6291TIP3   OH243067   5.638   2.032   9.141 -0.0723  0.1854 -0.1777
 6291TIP3    H143068   5.665   2.120   9.168 -1.6740  0.2790  1.2844
 6291TIP3    H243069   5.709   1.975   9.169  0.3437  0.8490  0.1327
 6292TIP3   OH243070   0.674   0.186   8.090 -0.3448 -0.1932  0.0685
 6292TIP3    H143071   0.764   0.161   8.070 -0.2075  0.0321  0.3824
 6292TIP3    H243072   0.650   0.132   8.165  0.4709  1.5802  1.7144
 6293TIP3   OH243073   2.713   6.464   7.328 -0.2344 -0.6089 -0.5260
 6293TIP3    H143074   2.656   6.490   7.401  0.7259  0.3831 -0.1036
 6293TIP3    H243075   2.658   6.472   7.251 -1.4048 -2.0775  0.1050
 6294TIP3   OH243076   2.550   6.210   9.096  0.0662  0.2601  0.2152
 6294TIP3    H143077   2.520   6.301   9.099  1.4305  0.7909 -0.9536
 6294TIP3    H243078   2.485   6.161   9.147 -1.2912  1.7086 -0.0640
 6295TIP3   OH243079   1.365   3.611   9.294 -0.0441 -0.2615 -0.4263
 6295TIP3    H143080   1.425   3.591   9.365 -1.4731  0.0229  0.9295
 6295TIP3    H243081   1.408   3.579   9.216  1.0600 -1.6936  0.7187
 6296TIP3   OH243082   5.919   0.552   9.227 -0.1009 -0.0780 -0.0697
 6296TIP3    H143083   5.954   0.475   9.271  0.1557  0.3385  0.4652
 6296TIP3    H243084   5.963   0.553   9.142  0.0971 -0.3705  0.0304
 6297TIP3   OH243085   3.518   3.229  10.395  0.4452 -0.1198  0.0455
 6297TIP3    H143086   3.591   3.288  10.413 -0.7543  1.3300  0.3978
 6297TIP3    H243087   3.516   3.221  10.300  1.2934 -0.5078  0.0501
 6298TIP3   OH243088   3.370   4.325   8.002 -0.3698 -0.3451  0.1759
 6298TIP3    H143089   3.346   4.394   8.063 -2.0198 -0.2351 -0.5299
 6298TIP3    H243090   3.433   4.366   7.942  0.6534 -0.2351  1.3042
 6299TIP3   OH243091   0.220   4.433   9.379  0.7461  0.4066 -1.2440
 6299TIP3    H143092   0.138   4.480   9.371  0.7264  0.6928  0.2126
 6299TIP3    H243093   0.284   4.500   9.405  0.4769 -0.4286  2.0480
 6300TIP3   OH243094   2.178   2.714   6.533 -0.5307 -0.6719  0.6525
 6300TIP3    H143095   2.091   2.682   6.508 -0.8700  1.1289 -0.7325
 6300TIP3    H243096   2.160   2.776   6.604 -0.4547 -0.0670  0.1599
 6301TIP3   OH243097   5.411   5.519   6.948 -0.1332  0.2461  0.1740
 6301TIP3    H143098   5.351   5.504   7.021 -1.1303 -0.8461 -0.8379
 6301TIP3    H243099   5.359   5.503   6.869  1.5543 -1.1643 -0.7517
 6302TIP3   OH243100   4.040   2.153   8.065 -0.1489  0.0990  0.0184
 6302TIP3    H143101   4.081   2.128   7.983 -2.6330 -0.9950 -0.9949
 6302TIP3    H243102   4.088   2.104   8.132  0.6054 -0.5892 -1.0003
 6303TIP3   OH243103   4.616   3.904   6.759  0.5585  0.2165  0.2356
 6303TIP3    H143104   4.606   3.809   6.758 -0.0010  0.2680 -0.9934
 6303TIP3    H243105   4.710   3.919   6.758  0.6684 -0.3552 -1.4325
 6304TIP3   OH243106   5.471   4.354   8.936 -0.2481  0.3582  0.0112
 6304TIP3    H143107   5.522   4.279   8.966 -0.0465 -0.0731 -1.3540
 6304TIP3    H243108   5.382   4.336   8.967 -0.4935 -1.1501 -1.4553
 6305TIP3   OH243109   1.733   2.985   7.132  0.0274  0.9305 -0.0028
 6305TIP3    H143110   1.683   3.046   7.187 -0.3689  0.0992  0.5891
 6305TIP3    H243111   1.706   3.004   7.043  0.7989  2.4206  0.0477
 6306TIP3   OH243112   5.540   6.621   7.540  0.2192 -0.3576  0.5152
 6306TIP3    H143113   5.503   6.706   7.564 -0.9337 -0.4257 -0.8388
 6306TIP3    H243114   5.612   6.608   7.601 -0.2214  1.1180  1.4150
 6307TIP3   OH243115   2.103   5.853   7.063 -0.0617 -0.7805 -0.1551
 6307TIP3    H143116   2.198   5.866   7.062 -0.0967  0.2873  2.5589
 6307TIP3    H243117   2.090   5.772   7.111 -0.5317 -1.1001 -0.8060
 6308TIP3   OH243118   5.605   6.063   7.322  0.1317  0.8909 -0.0170
 6308TIP3    H143119   5.559   6.106   7.250  0.5782  0.0026 -0.8626
 6308TIP3    H243120   5.559   6.091   7.400 -3.0034 -1.2522 -0.8984
 6309TIP3   OH243121   2.088   6.100   6.650 -0.5534 -0.0763  0.5457
 6309TIP3    H143122   2.060   6.177   6.701 -1.0925  0.2657 -0.2392
 6309TIP3    H243123   2.013   6.040   6.655 -1.6739  0.9853 -1.8530
 6310TIP3   OH243124   5.624   5.242   9.381  0.0270  0.3883  0.0310
 6310TIP3    H143125   5.696   5.306   9.385  0.8068 -0.5285  2.4722
 6310TIP3    H243126   5.552   5.285   9.426  0.7056 -0.5394  2.1185
 6311TIP3   OH243127   0.543   0.044   8.279  0.6212 -0.4451  0.5058
 6311TIP3    H143128   0.574  -0.014   8.349  0.7434  0.1761  0.9759
 6311TIP3    H243129   0.458   0.009   8.254  0.1667 -0.1621  1.5953
 6312TIP3   OH243130   1.792   2.588   7.665  0.4676  0.3455 -0.1146
 6312TIP3    H143131   1.852   2.653   7.628 -0.5141  0.0484 -2.3722
 6312TIP3    H243132   1.725   2.576   7.598 -1.3695 -0.3742  1.7390
 6313TIP3   OH243133   1.490   0.492   8.654  0.0690 -0.8808  0.0886
 6313TIP3    H143134   1.439   0.557   8.605 -0.1973  0.4144  1.9511
 6313TIP3    H243135   1.558   0.463   8.593 -1.0332 -0.3705 -1.4519
 6314TIP3   OH243136   1.152   5.211   8.713 -0.4154 -0.1098  0.1424
 6314TIP3    H143137   1.090   5.283   8.715  0.5552  0.7340  1.1058
 6314TIP3    H243138   1.231   5.247   8.672 -0.0762 -0.7520  0.2066
 6315TIP3   OH243139   2.017   2.980   8.856  0.1061  0.2490 -0.4984
 6315TIP3    H143140   2.110   2.992   8.872  0.4317 -0.3755 -1.8100
 6315TIP3    H243141   2.009   2.889   8.826 -1.0743 -0.0539  0.5808
 6316TIP3   OH243142   1.010   0.729   7.794 -0.2818  0.0317 -0.0860
 6316TIP3    H143143   1.006   0.775   7.710  0.5093  0.9421  0.3517
 6316TIP3    H243144   1.064   0.652   7.776 -3.0201 -1.7328 -1.2390
 6317TIP3   OH243145   6.405   3.559   7.686 -0.0646  0.4001  0.0793
 6317TIP3    H143146   6.459   3.585   7.761 -0.3436 -1.0254  0.8033
 6317TIP3    H243147   6.439   3.611   7.613  1.9149 -0.0192  0.6450
 6318TIP3   OH243148   2.065   4.288   7.851 -0.0556  0.0710 -0.0604
 6318TIP3    H143149   2.136   4.305   7.789 -0.3700 -0.5413 -0.5942
 6318TIP3    H243150   2.095   4.327   7.933  0.9463 -0.2771 -0.2506
 6319TIP3   OH243151   6.490   0.940   8.105  0.3886 -0.3515 -0.4722
 6319TIP3    H143152   6.549   0.902   8.039 -0.4151  0.6221 -1.8140
 6319TIP3    H243153   6.404   0.903   8.084 -0.2635  1.5319 -1.3298
 6320TIP3   OH243154   0.852   1.268   8.754  0.0241 -0.1357  0.3247
 6320TIP3    H143155   0.897   1.195   8.798 -0.3321 -1.0283 -0.7326
 6320TIP3    H243156   0.923   1.317   8.712  0.1928 -0.4242  0.2661
 6321TIP3   OH243157   2.480   6.182   6.463 -0.2284 -0.0349  0.1380
 6321TIP3    H143158   2.546   6.150   6.524  0.7316 -0.3815 -1.0398
 6321TIP3    H243159   2.496   6.133   6.382 -0.6845  1.2483 -0.7645
 6322TIP3   OH243160   1.614   4.058   7.899  0.1966 -0.3414 -0.0564
 6322TIP3    H143161   1.537   4.006   7.922 -0.3205  0.5589  0.3110
 6322TIP3    H243162   1.667   4.057   7.978 -0.3134  0.5341  0.3167
 6323TIP3   OH243163   1.673   3.717   8.745 -0.2205  0.1350  0.0177
 6323TIP3    H143164   1.666   3.803   8.702 -2.3743  0.1752  0.3325
 6323TIP3    H243165   1.731   3.732   8.819 -0.6318  1.3653  0.1228
 6324TIP3   OH243166   5.483   3.010   9.065 -0.2110  0.0071 -0.6575
 6324TIP3    H143167   5.417   3.069   9.100  0.2138  0.3513 -0.4264
 6324TIP3    H243168   5.564   3.060   9.069  0.1426 -0.5721 -0.5270
 6325TIP3   OH243169   2.974   1.186   7.806  0.3011  0.4665  0.0569
 6325TIP3    H143170   2.962   1.215   7.715  0.3332 -1.9663 -0.7925
 6325TIP3    H243171   2.888   1.151   7.832  0.7332 -0.4436  0.3163
 6326TIP3   OH243172   3.045   5.960   7.183 -0.0780  0.2868  0.2872
 6326TIP3    H143173   3.004   5.920   7.107 -2.1493 -2.2468  2.5462
 6326TIP3    H243174   3.077   6.045   7.151  0.3778 -1.1672 -3.6399
 6327TIP3   OH243175   4.120   1.862   8.958  0.0063 -0.8779 -0.5148
 6327TIP3    H143176   4.184   1.791   8.950 -1.8850 -2.8504  0.5692
 6327TIP3    H243177   4.068   1.856   8.878 -0.3037 -0.8999 -0.3160
 6328TIP3   OH243178   0.607   6.003   7.406  0.5154  0.0761 -0.1047
 6328TIP3    H143179   0.580   5.991   7.315  0.7438 -1.7734  0.0383
 6328TIP3    H243180   0.551   5.943   7.456  0.5680  0.8801  0.9619
 6329TIP3   OH243181   5.764   1.264   7.916 -0.0404  0.4218 -0.5192
 6329TIP3    H143182   5.722   1.178   7.911  1.5500 -0.5139  1.1696
 6329TIP3    H243183   5.856   1.245   7.935  0.3838  2.5086 -0.2451
 6330TIP3   OH243184   1.582   5.575   7.602  0.0241  0.3581 -0.6228
 6330TIP3    H143185   1.591   5.484   7.629 -0.1519 -0.4316 -2.9799
 6330TIP3    H243186   1.511   5.610   7.657  0.4101 -0.7654  0.6285
 6331TIP3   OH243187   6.370   1.128   9.051 -0.0009 -0.1889  0.0418
 6331TIP3    H143188   6.465   1.120   9.044  0.3678 -0.4992  3.6007
 6331TIP3    H243189   6.356   1.218   9.080 -0.5449 -0.7180  1.5352
 6332TIP3   OH243190   2.337   3.325   8.833 -0.6564  0.0354 -0.4220
 6332TIP3    H143191   2.316   3.238   8.868  0.4291 -0.4553 -0.9390
 6332TIP3    H243192   2.259   3.350   8.783 -1.5270 -0.0244  0.8718
 6333TIP3   OH243193   6.064   5.722   7.512  0.1912 -0.4770 -0.3539
 6333TIP3    H143194   5.978   5.762   7.501  0.6425  0.3750 -0.9211
 6333TIP3    H243195   6.096   5.756   7.595  0.8954  1.0357 -1.1846
 6334TIP3   OH243196   1.541   5.998   9.084 -0.7824 -0.1291  0.5031
 6334TIP3    H143197   1.476   5.938   9.120 -1.4728  0.3932  0.1411
 6334TIP3    H243198   1.496   6.082   9.078  0.3274  0.5796  1.5164
 6335TIP3   OH243199   2.574   4.827   8.359 -0.6233  0.1847  0.2240
 6335TIP3    H143200   2.494   4.822   8.306 -0.0397  2.3784 -1.0094
 6335TIP3    H243201   2.549   4.880   8.435 -0.4313  0.6402 -0.0260
 6336TIP3   OH243202   0.846   6.456   8.527 -0.6897  0.0365 -0.1998
 6336TIP3    H143203   0.871   6.371   8.563 -0.9113 -0.1943 -0.5869
 6336TIP3    H243204   0.892   6.520   8.583 -0.6587 -0.3270  0.1985
 6337TIP3   OH243205   1.584   1.673   6.313 -0.3430  0.2133 -0.3823
 6337TIP3    H143206   1.646   1.734   6.274 -0.5977 -0.1739 -1.4187
 6337TIP3    H243207   1.499   1.717   6.306 -0.1408  1.0943  1.7526
 6338TIP3   OH243208   2.408   3.456   9.498 -0.4339 -0.4566 -0.5543
 6338TIP3    H143209   2.458   3.534   9.520  0.5036 -0.7257 -1.6016
 6338TIP3    H243210   2.404   3.406   9.580 -1.6449  0.9689  0.3053
 6339TIP3   OH243211   5.159   4.062   8.823 -0.3090  0.0967 -0.1739
 6339TIP3    H143212   5.199   4.136   8.777  1.0813 -1.9263 -2.5262
 6339TIP3    H243213   5.233   4.010   8.854 -1.1653 -1.3269 -0.3907
 6340TIP3   OH243214   0.364   1.926   7.161  0.7523  0.4525  0.1833
 6340TIP3    H143215   0.277   1.918   7.198  0.8914 -1.6141  0.1480
 6340TIP3    H243216   0.404   1.840   7.173  1.6267  0.3604 -2.6546
 6341TIP3   OH243217   5.782   4.802   9.310 -0.2364  0.5696 -0.1532
 6341TIP3    H143218   5.703   4.754   9.286 -0.3815  1.2993 -1.2670
 6341TIP3    H243219   5.835   4.740   9.359 -1.1971 -0.1439  0.0088
 6342TIP3   OH243220   0.475   5.594   7.047 -0.2939 -0.3872  0.3261
 6342TIP3    H143221   0.465   5.616   7.140  2.3463  0.1755  0.5625
 6342TIP3    H243222   0.402   5.535   7.028 -0.7158 -0.7713  2.8408
 6343TIP3   OH243223   2.078   4.711   7.524 -0.2671 -0.1178 -0.1280
 6343TIP3    H143224   2.103   4.746   7.610 -0.6773 -0.6882  0.2319
 6343TIP3    H243225   2.072   4.617   7.537  0.2450 -0.2745 -0.9409
 6344TIP3   OH243226   6.476   6.500   7.407 -0.1516 -0.0668 -0.0331
 6344TIP3    H143227   6.544   6.567   7.406  0.9027 -1.1138 -0.6307
 6344TIP3    H243228   6.450   6.491   7.315 -0.3230 -0.4528  0.0527
 6345TIP3   OH243229   1.472   0.706   9.509 -0.3736 -0.4032 -0.1008
 6345TIP3    H143230   1.559   0.705   9.550 -0.2885 -0.8500 -0.2776
 6345TIP3    H243231   1.411   0.697   9.582 -0.2187 -1.3385 -0.0689
 6346TIP3   OH243232   3.582   0.967   7.978  0.8787  0.1862  0.4077
 6346TIP3    H143233   3.577   1.055   7.940 -3.0965  0.5521  1.3024
 6346TIP3    H243234   3.560   0.908   7.906  0.4670  0.2227  0.5017
 6347TIP3   OH243235   6.149   6.564   6.975  0.2978 -0.1139  0.7071
 6347TIP3    H143236   6.228   6.613   6.996  0.6386 -0.4762  0.2980
 6347TIP3    H243237   6.080   6.629   6.972  0.7072  0.3127  0.3748
 6348TIP3   OH243238   3.999   4.863   7.965  0.1310  0.0099 -0.3051
 6348TIP3    H143239   3.914   4.905   7.979  0.0345 -0.6584  1.4429
 6348TIP3    H243240   3.989   4.813   7.884 -0.5987  1.2058 -0.9835
 6349TIP3   OH243241   3.117   6.466   8.337 -0.1522 -0.0924 -0.1427
 6349TIP3    H143242   3.178   6.461   8.411 -1.3278 -1.3557  0.7852
 6349TIP3    H243243   3.036   6.427   8.369 -0.6951 -0.7279 -2.1047
 6350TIP3   OH243244   0.567   4.976   8.875  0.7165 -0.0336 -0.0251
 6350TIP3    H143245   0.512   4.911   8.830  1.4537 -0.8583  0.2325
 6350TIP3    H243246   0.512   5.007   8.947 -0.3579  1.0683 -1.2671
 6351TIP3   OH243247   3.058   3.596   7.634 -0.7623  0.4828 -0.2833
 6351TIP3    H143248   2.985   3.636   7.681 -0.9175  0.2995 -0.3714
 6351TIP3    H243249   3.112   3.671   7.607 -1.2476  0.6606 -0.7780
 6352TIP3   OH243250   1.244   2.297   6.366  1.0291 -0.2027 -0.6543
 6352TIP3    H143251   1.180   2.250   6.312  1.1416 -0.0240 -0.9432
 6352TIP3    H243252   1.218   2.277   6.456  2.7226 -3.1128 -0.7003
 6353TIP3   OH243253   3.053   3.081   6.608 -0.2599 -0.3669 -0.1507
 6353TIP3    H143254   2.965   3.045   6.597 -0.8024  1.0789 -0.8633
 6353TIP3    H243255   3.050   3.165   6.563  1.4463 -0.1985 -0.0224
 6354TIP3   OH243256   3.828   0.631   8.796  0.1893  0.7630 -0.0494
 6354TIP3    H143257   3.819   0.535   8.800  0.2264  0.6662 -1.7145
 6354TIP3    H243258   3.778   0.662   8.872  1.1313 -0.6063  1.1879
 6355TIP3   OH243259   6.203   5.293   7.507  0.0886  0.2681 -0.3802
 6355TIP3    H143260   6.138   5.361   7.490  0.9366  1.4490  0.9524
 6355TIP3    H243261   6.206   5.242   7.425 -0.0743  2.2384 -1.6885
 6356TIP3   OH243262   5.518   4.620   9.571  0.3034 -0.2010 -0.3675
 6356TIP3    H143263   5.442   4.656   9.616  2.5197  1.9593  1.9289
 6356TIP3    H243264   5.542   4.543   9.623  0.9254  0.3633  0.1852
 6357TIP3   OH243265   1.296   6.683   7.308  0.1368  0.3192 -0.1873
 6357TIP3    H143266   1.240   6.610   7.283  0.5661 -0.5634  1.2795
 6357TIP3    H243267   1.344   6.651   7.385  0.8758  1.8916  0.0486
 6358TIP3   OH243268   3.651   4.941   8.356  0.4435  0.1692  0.0780
 6358TIP3    H143269   3.627   4.970   8.444 -0.2665 -0.7419  0.1976
 6358TIP3    H243270   3.721   4.877   8.371  1.8076  1.5258 -0.1692
 6359TIP3   OH243271   2.626   5.693   9.080  0.6865  0.3542  0.2742
 6359TIP3    H143272   2.606   5.784   9.058 -0.7610 -0.0201 -0.0899
 6359TIP3    H243273   2.635   5.693   9.175  0.1566  0.7986  0.3297
 6360TIP3   OH243274   0.850   3.327   8.020 -0.3590  0.3795  0.5601
 6360TIP3    H143275   0.892   3.252   7.980 -0.1965 -0.0646  1.5402
 6360TIP3    H243276   0.921   3.374   8.065 -0.5788  0.7155  0.5652
 6361TIP3   OH243277   4.757   4.656   6.997  0.1895 -0.2403  0.0631
 6361TIP3    H143278   4.718   4.713   7.063 -0.8850 -0.6595 -0.1760
 6361TIP3    H243279   4.687   4.645   6.932  1.1938  0.1261 -1.1259
 6362TIP3   OH243280   5.187   0.208   8.171  0.1822  0.1209 -0.6659
 6362TIP3    H143281   5.170   0.220   8.264  0.2135 -1.1272 -0.4778
 6362TIP3    H243282   5.108   0.238   8.127 -1.0451 -2.0212 -0.0443
 6363TIP3   OH243283   4.972   4.733   7.135 -0.1262 -0.2729 -0.5328
 6363TIP3    H143284   5.031   4.703   7.066 -1.5098 -0.1659 -1.8175
 6363TIP3    H243285   4.884   4.721   7.098 -0.8503  1.5426  0.4743
 6364TIP3   OH243286   1.510   2.834   6.994 -0.2263 -0.5779  0.0646
 6364TIP3    H143287   1.489   2.836   6.901  2.9050  3.5479 -0.8366
 6364TIP3    H243288   1.597   2.793   6.999  0.8968  1.7211  0.6696
 6365TIP3   OH243289   4.329   4.632   7.368  0.2211  0.2172 -0.3003
 6365TIP3    H143290   4.384   4.710   7.359 -0.6485  0.6284 -2.7816
 6365TIP3    H243291   4.241   4.666   7.380  0.0830 -0.4209  0.5778
 6366TIP3   OH243292   0.531   1.780   7.693  0.3375  0.8373 -0.0193
 6366TIP3    H143293   0.608   1.723   7.701 -1.6451 -1.8958  0.7815
 6366TIP3    H243294   0.529   1.829   7.775  0.2032 -0.4918  0.7948
 6367TIP3   OH243295   2.422   4.228   8.195 -0.2915 -0.2733 -0.2184
 6367TIP3    H143296   2.478   4.248   8.119  0.7745 -1.6854  0.1626
 6367TIP3    H243297   2.414   4.312   8.240  0.5343  0.2206 -0.9332
 6368TIP3   OH243298   1.784   3.808   8.395 -0.4135 -0.2174  0.4037
 6368TIP3    H143299   1.729   3.808   8.473  0.3209  0.5485  0.9493
 6368TIP3    H243300   1.828   3.893   8.396  0.8774 -0.8406  0.0812
 6369TIP3   OH243301   1.287   4.199   9.048 -0.1730 -0.2647  0.1308
 6369TIP3    H143302   1.263   4.115   9.008  0.0114 -0.2107 -0.0947
 6369TIP3    H243303   1.337   4.175   9.125  1.4171 -0.3569 -0.8871
 6370TIP3   OH243304   3.835   2.727   8.380 -1.2087 -0.0390  0.0112
 6370TIP3    H143305   3.812   2.814   8.347 -1.9128 -0.7588 -1.4818
 6370TIP3    H243306   3.798   2.725   8.468 -1.3728  1.0984 -0.0159
 6371TIP3   OH243307   2.368   5.823   9.276  0.5344 -0.4899  0.1309
 6371TIP3    H143308   2.455   5.785   9.276 -0.2617 -2.5077  2.0340
 6371TIP3    H243309   2.382   5.917   9.263  2.8416 -0.9206 -0.9293
 6372TIP3   OH243310   3.601   1.289   7.707  0.0693 -0.1012 -0.4701
 6372TIP3    H143311   3.681   1.249   7.741  0.0748 -0.3185 -0.7429
 6372TIP3    H243312   3.629   1.373   7.672  0.3612 -0.6133 -1.5128
 6373TIP3   OH243313   6.602   0.855   8.568  0.4937  0.2159 -0.0821
 6373TIP3    H143314   6.540   0.817   8.630  2.4491 -1.8107  0.7467
 6373TIP3    H243315   6.555   0.930   8.530 -2.6144 -1.4913  0.0838
 6374TIP3   OH243316   0.140   1.948   7.818 -0.3248 -0.4683 -0.2695
 6374TIP3    H143317   0.172   1.871   7.866 -0.4271  0.2246  0.9339
 6374TIP3    H243318   0.089   1.997   7.882 -0.1652  0.6775 -0.9938
 6375TIP3   OH243319   5.109   1.420   7.172  0.3655  0.6908 -0.2152
 6375TIP3    H143320   5.089   1.514   7.170  2.3880  1.1612 -0.2889
 6375TIP3    H243321   5.166   1.406   7.097 -0.4656 -0.7742 -0.6252
 6376TIP3   OH243322   2.820   2.644   7.164  0.2276  0.0896  1.0066
 6376TIP3    H143323   2.909   2.647   7.132 -0.2487  3.6025 -0.3840
 6376TIP3    H243324   2.767   2.623   7.087 -0.2978 -0.0125  1.3879
 6377TIP3   OH243325   0.684   0.517   9.328 -0.0833  0.3631 -0.3042
 6377TIP3    H143326   0.756   0.576   9.306 -0.2438  0.0386 -1.7656
 6377TIP3    H243327   0.722   0.429   9.320 -0.6963  0.1810 -1.3311
 6378TIP3   OH243328   2.418   0.283   8.544  0.1650 -0.3976  0.2791
 6378TIP3    H143329   2.424   0.218   8.474  0.0253 -2.1021  1.7942
 6378TIP3    H243330   2.463   0.360   8.509 -1.4414 -0.5364 -2.3755
 6379TIP3   OH243331   5.143   3.767  10.237  0.1251  0.3256  0.0825
 6379TIP3    H143332   5.122   3.745  10.328 -1.8984 -0.4462 -0.5090
 6379TIP3    H243333   5.178   3.687  10.200 -2.3011 -0.4896 -0.6669
 6380TIP3   OH243334   3.609   5.107   8.932 -0.1137  0.5924  0.1425
 6380TIP3    H143335   3.620   5.107   9.027  0.3269  0.2122  0.1001
 6380TIP3    H243336   3.696   5.083   8.899 -0.1765  1.0686 -0.3664
 6381TIP3   OH243337   4.034   2.296   8.949  0.4144  0.0585 -0.0934
 6381TIP3    H143338   4.019   2.354   8.874 -0.2193 -0.0865 -0.0838
 6381TIP3    H243339   3.962   2.234   8.946  0.8271 -0.4426  0.1776
 6382TIP3   OH243340   3.624   4.263   6.850 -0.1082  0.2170 -0.5233
 6382TIP3    H143341   3.700   4.249   6.793  0.0110 -1.5322  0.0282
 6382TIP3    H243342   3.612   4.180   6.896 -1.1591  1.0943  0.8637
 6383TIP3   OH243343   3.852   1.248   8.398  0.2170 -0.1461  0.2571
 6383TIP3    H143344   3.866   1.168   8.448 -1.2950 -0.3905  0.3254
 6383TIP3    H243345   3.926   1.251   8.337  0.7087 -1.1792  0.7776
 6384TIP3   OH243346   3.626   0.525   7.031  0.7106 -0.0288 -0.1975
 6384TIP3    H143347   3.578   0.567   6.960 -1.5413 -0.5604  0.8829
 6384TIP3    H243348   3.601   0.575   7.109  0.6134 -1.3275  0.6363
 6385TIP3   OH243349   4.414   4.347   9.676 -0.4020 -0.5565  0.1353
 6385TIP3    H143350   4.481   4.412   9.695 -0.8671  0.3617 -1.2706
 6385TIP3    H243351   4.420   4.285   9.749  0.6387  0.5693  1.0449
 6386TIP3   OH243352   2.171   1.540   7.349  0.2781 -0.0792 -0.1587
 6386TIP3    H143353   2.153   1.625   7.390  2.2509 -0.0522  0.7733
 6386TIP3    H243354   2.131   1.476   7.407 -2.2771  0.1757 -1.4835
 6387TIP3   OH243355   1.342   2.884   8.182 -0.0690  0.3088 -1.0640
 6387TIP3    H143356   1.369   2.974   8.201  0.0744  0.3954 -1.6616
 6387TIP3    H243357   1.425   2.836   8.175 -0.1563 -0.0758  0.1718
 6388TIP3   OH243358   0.225   2.315   9.923 -0.3032 -0.2206 -0.2533
 6388TIP3    H143359   0.259   2.395   9.963  0.0517  0.5047 -1.9400
 6388TIP3    H243360   0.158   2.285   9.985 -1.2566  1.9979 -0.1069
 6389TIP3   OH243361   6.447   0.704   9.173 -0.3533  0.1593 -0.6555
 6389TIP3    H143362   6.425   0.793   9.200 -1.6524 -0.0290 -1.0152
 6389TIP3    H243363   6.382   0.682   9.106 -0.7823 -1.4727  0.2304
 6390TIP3   OH243364   1.693   2.186   8.428  0.1903  0.1231 -0.6576
 6390TIP3    H143365   1.635   2.229   8.365  1.3648  0.1035 -1.7905
 6390TIP3    H243366   1.641   2.180   8.508 -0.8330  1.4882 -1.1821
 6391TIP3   OH243367   0.423   2.550   6.880  0.1298 -0.4618  0.1178
 6391TIP3    H143368   0.501   2.593   6.916 -0.6046  1.0690 -0.0264
 6391TIP3    H243369   0.453   2.461   6.858  1.8403  0.0900  0.0135
 6392TIP3   OH243370   1.878   2.231   8.957 -0.1103 -0.0900  0.3955
 6392TIP3    H143371   1.930   2.211   9.035  0.4485  0.6115  0.2116
 6392TIP3    H243372   1.794   2.186   8.972  1.0410 -2.4930 -0.0031
 6393TIP3   OH243373   6.067   6.175   9.230 -0.4093  0.2647 -0.2351
 6393TIP3    H143374   6.075   6.248   9.169 -0.1053  0.6193  0.2178
 6393TIP3    H243375   6.151   6.129   9.224  0.5365  1.5954  1.5126
 6394TIP3   OH243376   0.545   4.804   8.252 -0.7050  0.5944 -0.1845
 6394TIP3    H143377   0.500   4.781   8.334 -0.4221  0.6848 -0.0016
 6394TIP3    H243378   0.635   4.824   8.279 -0.3427 -0.3517 -0.6550
 6395TIP3   OH243379   0.324   4.119   7.386  0.3278  0.4286 -0.2564
 6395TIP3    H143380   0.293   4.209   7.397  0.6840  0.4774  0.4060
 6395TIP3    H243381   0.419   4.126   7.381  0.4136  0.0319  0.5639
 6396TIP3   OH243382   5.420   2.282  16.048 -0.8744 -0.0980  0.5663
 6396TIP3    H143383   5.486   2.230  16.095 -1.1983 -1.1741 -0.1284
 6396TIP3    H243384   5.349   2.293  16.111 -0.1997  0.7449  1.1968
 6397TIP3   OH243385   5.601   2.653   9.815 -0.2495 -0.2760 -0.2634
 6397TIP3    H143386   5.636   2.620   9.897 -1.7195 -3.5602 -0.8079
 6397TIP3    H243387   5.674   2.647   9.753  0.8747  2.2507  0.6714
 6398TIP3   OH243388   0.625   6.171   8.333  0.0156  0.5027  0.2576
 6398TIP3    H143389   0.631   6.077   8.351  1.7933 -0.0382 -2.3975
 6398TIP3    H243390   0.712   6.205   8.356 -0.3815  1.3529  0.5336
 6399TIP3   OH243391   2.637   5.155   9.903  0.0217  0.2877 -0.7517
 6399TIP3    H143392   2.554   5.185   9.939  0.0501  0.3978 -0.7763
 6399TIP3    H243393   2.614   5.088   9.839  0.0242 -0.6631  0.2108
 6400TIP3   OH243394   0.510   0.142   7.877  0.1540  0.0325  0.0850
 6400TIP3    H143395   0.539   0.139   7.968 -0.3405 -1.6252  0.2134
 6400TIP3    H243396   0.590   0.133   7.826  0.3554  0.2596  0.3508
 6401TIP3   OH243397   1.470   6.629   6.743  0.2880  0.2589 -0.1235
 6401TIP3    H143398   1.555   6.672   6.731  0.4584  0.5178  1.7232
 6401TIP3    H243399   1.406   6.701   6.736  0.3400  0.3028 -0.1469
 6402TIP3   OH243400   1.949   4.452   8.984 -0.3057  0.2014  0.5770
 6402TIP3    H143401   1.912   4.461   8.896 -1.9605 -1.1205  1.0811
 6402TIP3    H243402   1.957   4.358   8.997  0.4233  0.3931  1.6717
 6403TIP3   OH243403   2.675   1.978   7.021  0.0144 -0.3680  0.1223
 6403TIP3    H143404   2.655   2.034   7.096 -0.8795  0.0026 -0.3711
 6403TIP3    H243405   2.631   1.896   7.041  0.7246 -0.6567  0.5170
 6404TIP3   OH243406   3.624   3.338   9.337 -0.3323 -0.2694  0.5107
 6404TIP3    H143407   3.708   3.384   9.335  0.1084 -1.0607 -0.8819
 6404TIP3    H243408   3.636   3.270   9.403 -1.3646  2.1616  3.4033
 6405TIP3   OH243409   2.809   3.271   7.523 -0.1472  0.2061  0.4882
 6405TIP3    H143410   2.768   3.332   7.584 -0.4567  1.6840 -1.1247
 6405TIP3    H243411   2.876   3.227   7.576 -1.0404  0.7170  2.1236
 6406TIP3   OH243412   1.906   2.510   8.358  0.7434  0.8480  0.0231
 6406TIP3    H143413   1.887   2.566   8.433  0.9970  1.1450 -0.1328
 6406TIP3    H243414   1.939   2.429   8.397 -2.0453 -0.2265  0.3677
 6407TIP3   OH243415   2.416   4.244   9.910 -0.3426  0.2372 -0.3122
 6407TIP3    H143416   2.437   4.295   9.831 -0.3892 -1.2462 -1.3297
 6407TIP3    H243417   2.322   4.229   9.905 -0.5052  0.9334  0.5368
 6408TIP3   OH243418   2.062   5.852   8.676  0.0656 -0.1209 -0.4305
 6408TIP3    H143419   1.978   5.866   8.720  1.0904  1.3312  1.2386
 6408TIP3    H243420   2.095   5.771   8.715  0.3229  0.3965  0.4660
 6409TIP3   OH243421   3.677   0.812   6.696 -0.3731 -0.3900 -0.2494
 6409TIP3    H143422   3.710   0.879   6.636 -2.3644  0.9444  0.0795
 6409TIP3    H243423   3.641   0.861   6.769  0.5812 -1.9522  1.3420
 6410TIP3   OH243424   1.786   0.458   7.407  0.4146  0.5914 -0.0079
 6410TIP3    H143425   1.722   0.446   7.336 -0.8015 -1.2507  1.2998
 6410TIP3    H243426   1.809   0.551   7.403  1.2749  0.3797 -3.4834
 6411TIP3   OH243427   2.007   3.589   6.638  0.1109  0.3893 -0.5597
 6411TIP3    H143428   2.036   3.637   6.716 -1.8930  2.6253 -1.0523
 6411TIP3    H243429   1.926   3.547   6.666  1.0331 -1.4901 -0.6033
 6412TIP3   OH243430   4.004   4.154   6.990  0.3186  0.0770 -0.4006
 6412TIP3    H143431   4.062   4.102   6.933  0.1010 -0.7044  0.0777
 6412TIP3    H243432   3.940   4.192   6.930 -0.5525 -1.5988 -0.5919
 6413TIP3   OH243433   4.078   2.884   9.558  0.2739 -1.2815  0.0262
 6413TIP3    H143434   4.154   2.928   9.596 -0.1001  0.6157 -1.2668
 6413TIP3    H243435   4.031   2.847   9.633  0.7706  0.3257  1.1770
 6414TIP3   OH243436   0.331   1.511   9.431  0.5392  0.8457  0.3089
 6414TIP3    H143437   0.243   1.496   9.466  0.8182 -1.1146  0.2837
 6414TIP3    H243438   0.316   1.541   9.341 -0.0992  0.3223  0.2332
 6415TIP3   OH243439   2.208   6.622   6.601  0.0928  0.3354 -0.3841
 6415TIP3    H143440   2.281   6.560   6.598  1.4231  1.7405  0.9873
 6415TIP3    H243441   2.162   6.602   6.682 -1.1570 -0.6013 -1.2842
 6416TIP3   OH243442   4.629   5.440   6.891 -0.0710 -0.4132 -0.0519
 6416TIP3    H143443   4.545   5.395   6.881  0.0137 -0.7155  0.5272
 6416TIP3    H243444   4.619   5.491   6.972  0.0170  0.1946 -0.4227
 6417TIP3   OH243445   2.409   0.892   8.775  0.1499  0.0619 -0.0208
 6417TIP3    H143446   2.340   0.851   8.724  0.2565 -1.5357  1.0584
 6417TIP3    H243447   2.385   0.985   8.777 -1.4292 -0.3015 -0.4904
 6418TIP3   OH243448   4.237   3.468   8.818  0.1976  0.3371  0.3413
 6418TIP3    H143449   4.167   3.446   8.757 -0.3980  1.6530  0.5224
 6418TIP3    H243450   4.195   3.520   8.886  1.1622  0.2624  1.0252
 6419TIP3   OH243451   4.448   2.248   8.800 -0.1625  0.3025 -0.2080
 6419TIP3    H143452   4.519   2.300   8.836 -0.9296  1.2256  0.0333
 6419TIP3    H243453   4.421   2.295   8.721 -1.3137  0.6743  0.3764
 6420TIP3   OH243454   5.954   5.263   7.147  0.5941 -0.0427  0.0324
 6420TIP3    H143455   5.939   5.202   7.219 -1.0977  1.4663  1.0473
 6420TIP3    H243456   6.049   5.274   7.143  0.7385 -0.3407  1.9093
 6421TIP3   OH243457   1.625   0.342   7.647 -0.0250  0.1767 -0.4349
 6421TIP3    H143458   1.582   0.300   7.574 -0.9212 -1.8051  1.1425
 6421TIP3    H243459   1.719   0.338   7.626 -0.3290  0.7816 -1.9918
 6422TIP3   OH243460   1.591   6.483   8.761 -0.2431 -0.0407 -0.1956
 6422TIP3    H143461   1.592   6.568   8.717  0.3338  0.5519  0.9262
 6422TIP3    H243462   1.501   6.473   8.792 -0.1335  0.5226  0.3270
 6423TIP3   OH243463   5.670   3.542   9.495 -0.3237  0.7452 -0.0765
 6423TIP3    H143464   5.628   3.502   9.419  0.6413  2.0019 -1.3126
 6423TIP3    H243465   5.639   3.633   9.495 -1.1186  0.5159  1.6648
 6424TIP3   OH243466   2.564   4.323   7.262 -0.0449 -0.1627 -0.0940
 6424TIP3    H143467   2.571   4.272   7.343 -0.7931  1.5668  1.1274
 6424TIP3    H243468   2.635   4.386   7.267  0.6165 -0.7562 -1.3882
 6425TIP3   OH243469   2.632   3.202   6.808  0.7405 -0.5589 -0.2167
 6425TIP3    H143470   2.642   3.175   6.899  0.1552  1.5162  0.5144
 6425TIP3    H243471   2.717   3.238   6.784  0.0752  1.5843  0.4991
 6426TIP3   OH243472   4.848   5.376   9.075 -0.3774  0.8893  0.3275
 6426TIP3    H143473   4.778   5.352   9.135  1.0239 -0.1441  1.6126
 6426TIP3    H243474   4.927   5.372   9.127  0.8246  0.6192 -1.4167
 6427TIP3   OH243475   4.006   0.960   7.190 -0.5017  0.3428  0.1694
 6427TIP3    H143476   4.086   0.914   7.216 -0.4279  0.1820 -0.3230
 6427TIP3    H243477   4.026   1.052   7.205 -0.0178  0.3515 -0.4431
 6428TIP3   OH243478   6.393   0.671   7.629 -0.0514 -0.1724  0.0471
 6428TIP3    H143479   6.466   0.633   7.580 -0.2829  0.7786 -1.0881
 6428TIP3    H243480   6.433   0.732   7.690  0.1061  0.5138 -0.7275
 6429TIP3   OH243481   2.457   2.420   8.919  0.3575  0.2977 -0.3971
 6429TIP3    H143482   2.413   2.505   8.918  1.3875  0.8539  0.1336
 6429TIP3    H243483   2.462   2.397   9.012 -1.3869 -1.1550 -0.6032
 6430TIP3   OH243484   4.496   4.965   8.056 -0.2578  0.4482  0.5752
 6430TIP3    H143485   4.405   4.992   8.048 -0.1459  0.4929 -0.7728
 6430TIP3    H243486   4.504   4.888   7.999  1.0273  1.7257 -1.0872
 6431TIP3   OH243487   5.522   2.261   6.861  0.4557 -0.0318 -0.3639
 6431TIP3    H143488   5.478   2.338   6.826  0.6266 -0.3698 -1.3633
 6431TIP3    H243489   5.478   2.187   6.819  2.2328 -0.3649 -1.7651
 6432TIP3   OH243490   2.358   3.229   9.760 -0.5088 -0.0372  0.3525
 6432TIP3    H143491   2.286   3.171   9.784 -1.0966  0.9422  1.0123
 6432TIP3    H243492   2.423   3.171   9.719 -0.5427 -1.3615  2.0757
 6433TIP3   OH243493   5.434   1.320   9.247 -0.3904  0.1943  0.3463
 6433TIP3    H143494   5.468   1.409   9.255 -0.0077  0.5279 -3.1149
 6433TIP3    H243495   5.353   1.320   9.298 -0.1210  2.3889  0.8417
 6434TIP3   OH243496   0.594   2.510   7.817  0.5732 -0.5026 -0.9193
 6434TIP3    H143497   0.674   2.483   7.772  0.7637 -1.5311  0.0122
 6434TIP3    H243498   0.526   2.453   7.781  0.5479 -0.6679 -0.6136
 6435TIP3   OH243499   4.633   4.517   7.963 -0.2777  0.3337 -0.0712
 6435TIP3    H143500   4.577   4.472   7.900  0.2869  0.2025 -0.4778
 6435TIP3    H243501   4.576   4.532   8.039 -0.6264 -0.5514 -0.1508
 6436TIP3   OH243502   4.822   3.390   7.873  0.1089 -0.1156 -0.2522
 6436TIP3    H143503   4.909   3.425   7.895  0.9792 -2.4029  0.1801
 6436TIP3    H243504   4.839   3.323   7.807 -1.5097  0.3105 -1.1603
 6437TIP3   OH243505   1.621   0.566   8.386 -0.2494  0.1063 -0.5404
 6437TIP3    H143506   1.676   0.614   8.325  0.3426  2.1834  1.4545
 6437TIP3    H243507   1.532   0.595   8.366 -0.1810 -0.1053 -1.1474
 6438TIP3   OH243508   6.404   5.989   7.590  0.3024 -0.1833 -0.2686
 6438TIP3    H143509   6.442   6.066   7.547 -0.1950  0.1252 -0.1628
 6438TIP3    H243510   6.355   6.025   7.664  2.7508 -0.8161  1.8071
 6439TIP3   OH243511   1.289   6.415   6.669  0.4644  0.5077  0.1594
 6439TIP3    H143512   1.364   6.466   6.699  0.3001  0.8937 -0.0720
 6439TIP3    H243513   1.280   6.345   6.733  3.2438 -1.7682 -1.6257
 6440TIP3   OH243514   6.413   3.141   7.436  0.0402  0.4288 -0.6746
 6440TIP3    H143515   6.386   3.049   7.435 -2.1262  1.0087 -1.9276
 6440TIP3    H243516   6.437   3.158   7.527  0.6978 -1.4116 -0.4663
 6441TIP3   OH243517   1.542   1.280   6.672 -0.1432  0.3121 -0.0792
 6441TIP3    H143518   1.480   1.222   6.629  0.1574 -1.1271  1.3406
 6441TIP3    H243519   1.560   1.238   6.756  1.7661  1.3496  0.0875
 6442TIP3   OH243520   5.648   0.741   8.874  0.1281 -0.3016  0.0276
 6442TIP3    H143521   5.614   0.799   8.942  0.3597  0.6249 -0.6430
 6442TIP3    H243522   5.725   0.785   8.840  0.5451 -1.1958 -0.2153
 6443TIP3   OH243523   5.622   1.226   9.721  0.1250 -0.3303 -0.6579
 6443TIP3    H143524   5.693   1.289   9.709  1.3464 -1.9062 -2.2763
 6443TIP3    H243525   5.661   1.156   9.774 -1.5094  0.6445  2.0126
 6444TIP3   OH243526   0.794   1.672   7.670 -0.4172 -0.2058  0.1305
 6444TIP3    H143527   0.870   1.615   7.666 -1.3402 -1.6490  1.6798
 6444TIP3    H243528   0.827   1.753   7.711  0.4525 -0.4845 -0.0104
 6445TIP3   OH243529   3.293   3.131   7.571  0.4750 -0.3890  0.0031
 6445TIP3    H143530   3.298   3.112   7.664  0.4376  0.0267  0.0940
 6445TIP3    H243531   3.349   3.208   7.559  0.4232 -0.3961 -0.3039
 6446TIP3   OH243532   1.272   1.797   7.240 -0.5703 -0.8522 -0.1281
 6446TIP3    H143533   1.196   1.837   7.198 -0.1292  0.4330  0.2497
 6446TIP3    H243534   1.262   1.817   7.333 -0.3793 -1.7139  0.0913
 6447TIP3   OH243535   1.817   4.617   6.968  0.2094  0.4250 -0.0611
 6447TIP3    H143536   1.725   4.596   6.985 -0.2055  1.9043 -0.3355
 6447TIP3    H243537   1.850   4.650   7.052 -0.0932  1.8098 -0.4665
 6448TIP3   OH243538   5.616   2.065   7.966  0.3177 -0.2905 -0.5277
 6448TIP3    H143539   5.615   1.999   8.034 -0.6869  0.6825  0.4329
 6448TIP3    H243540   5.524   2.077   7.942  0.5877 -0.0545 -1.5103
 6449TIP3   OH243541   2.394   6.414   6.578 -0.1927 -0.0654  0.3988
 6449TIP3    H143542   2.387   6.361   6.500 -1.1374 -0.2869  0.6274
 6449TIP3    H243543   2.456   6.367   6.634 -1.0093 -0.9252  0.5939
 6450TIP3   OH243544   1.693   4.552   7.614 -0.4212  0.0380  0.3591
 6450TIP3    H143545   1.601   4.565   7.593 -0.7374 -1.1001  0.9045
 6450TIP3    H243546   1.693   4.531   7.708  0.3787 -0.0653  0.3463
 6451TIP3   OH243547   4.199   5.373   6.495  1.1288 -0.3691  0.1584
 6451TIP3    H143548   4.268   5.437   6.513  0.7290 -0.0831  0.7365
 6451TIP3    H243549   4.126   5.401   6.551  0.6926 -0.9065 -0.1318
 6452TIP3   OH243550   1.639   2.270   7.793 -0.3697 -0.0391  0.1563
 6452TIP3    H143551   1.547   2.270   7.767 -0.8617  2.1387  1.5820
 6452TIP3    H243552   1.680   2.205   7.736 -2.5655 -0.3054 -1.2599
 6453TIP3   OH243553   2.980   2.207   9.410  0.1417 -0.3324 -0.0891
 6453TIP3    H143554   3.016   2.121   9.390 -1.8143 -1.3549  0.5653
 6453TIP3    H243555   2.908   2.218   9.348 -1.4457 -0.4501  1.6496
 6454TIP3   OH243556   3.474   6.678   7.138  0.3638  0.1396  0.1205
 6454TIP3    H143557   3.473   6.706   7.229 -1.0538  0.9585 -0.1240
 6454TIP3    H243558   3.470   6.759   7.087  2.4154 -0.2214 -0.7271
 6455TIP3   OH243559   6.039   0.043   7.268 -0.5804  0.1827 -0.2729
 6455TIP3    H143560   6.132   0.041   7.289 -0.7290 -0.4016  0.3612
 6455TIP3    H243561   6.003   0.109   7.327 -0.5426  0.5342 -0.6399
 6456TIP3   OH243562   1.733   1.460   7.383 -0.4482 -0.3616  0.0319
 6456TIP3    H143563   1.759   1.379   7.337 -1.8831 -0.0814 -1.3635
 6456TIP3    H243564   1.654   1.488   7.338  0.6993  2.5419 -0.3848
 6457TIP3   OH243565   0.561   0.771   8.281 -0.0724 -0.5562 -0.0832
 6457TIP3    H143566   0.579   0.693   8.333 -2.7608 -0.9958  0.3306
 6457TIP3    H243567   0.552   0.841   8.346 -0.8990 -0.6015 -0.1292
 6458TIP3   OH243568   2.896   4.917   7.162  0.4316  0.1272  0.2781
 6458TIP3    H143569   2.926   4.986   7.221 -1.1527  0.4008  0.8093
 6458TIP3    H243570   2.976   4.871   7.136  1.1429 -0.7406  3.5263
 6459TIP3   OH243571   2.817   5.534   6.739  0.4095 -0.2367  0.1966
 6459TIP3    H143572   2.802   5.571   6.825 -0.6779 -1.2782  0.4783
 6459TIP3    H243573   2.730   5.525   6.700  0.8832  0.3410 -1.0753
 6460TIP3   OH243574   2.080   3.260   7.710  0.2537  0.0985  0.0744
 6460TIP3    H143575   2.096   3.173   7.745 -0.1180  0.0889  0.2265
 6460TIP3    H243576   2.053   3.246   7.619 -0.2376  0.0233  0.2294
 6461TIP3   OH243577   2.105   5.500   9.446  0.7681  0.1725 -0.5895
 6461TIP3    H143578   2.052   5.501   9.367  1.1901  0.4730 -0.8730
 6461TIP3    H243579   2.101   5.590   9.479  0.1205 -0.0757  0.0630
 6462TIP3   OH243580   0.106   2.211   6.930  0.0069  0.3098 -0.1827
 6462TIP3    H143581   0.147   2.297   6.943 -0.7910  0.6361  0.2471
 6462TIP3    H243582   0.079   2.212   6.838  0.3283  0.3737 -0.2776
 6463TIP3   OH243583   4.832   2.430   6.960 -0.4883 -0.0700  0.0704
 6463TIP3    H143584   4.903   2.435   6.896 -0.2938  0.5481  0.3319
 6463TIP3    H243585   4.758   2.472   6.917 -0.8178 -1.0471 -0.3487
 6464TIP3   OH243586   0.619   0.167   8.628 -0.6352 -0.0404  0.6724
 6464TIP3    H143587   0.639   0.143   8.718  2.4533  0.3155  0.1803
 6464TIP3    H243588   0.616   0.084   8.581  2.5344 -0.0793  0.3348
 6465TIP3   OH243589   0.311   1.607   8.557 -0.2370  0.0578  0.5698
 6465TIP3    H143590   0.313   1.530   8.500 -2.2336 -1.4366  2.3594
 6465TIP3    H243591   0.383   1.593   8.618 -1.1154 -0.9040  1.4302
 6466TIP3   OH243592   5.359   3.303   9.433  0.2796 -0.2029  0.9319
 6466TIP3    H143593   5.405   3.296   9.516 -0.6955  1.5912  1.6898
 6466TIP3    H243594   5.382   3.390   9.400 -1.3229  0.1274  0.6060
 6467TIP3   OH243595   4.852   5.084   7.187 -0.6321  0.8829  0.5243
 6467TIP3    H143596   4.801   5.095   7.106 -0.5986 -0.0801  0.3632
 6467TIP3    H243597   4.796   5.120   7.255 -0.6727  1.6882  0.0777
 6468TIP3   OH243598   3.856   1.084   7.434  0.0303 -0.1250  0.2484
 6468TIP3    H143599   3.891   1.076   7.345 -1.7036 -1.2533 -0.4083
 6468TIP3    H243600   3.803   1.164   7.432 -0.6370 -0.5611  0.0005
 6469TIP3   OH243601   1.290   0.907   6.959 -0.1322 -0.0196  0.6491
 6469TIP3    H143602   1.247   0.832   7.001  0.1240 -0.0295  0.8978
 6469TIP3    H243603   1.333   0.953   7.031  0.1261  0.0881  0.4255
 6470TIP3   OH243604   0.537   4.768   7.528  0.0556 -0.2253 -0.2081
 6470TIP3    H143605   0.608   4.724   7.481 -0.9094 -2.3337  0.1975
 6470TIP3    H243606   0.472   4.788   7.461 -0.2862 -1.0815 -0.1410
 6471TIP3   OH243607   2.608   3.036   9.476 -0.0672 -0.5223 -0.4456
 6471TIP3    H143608   2.562   2.978   9.536 -0.8424  0.8304  0.3097
 6471TIP3    H243609   2.680   3.073   9.528 -0.0696 -0.1820 -0.6823
 6472TIP3   OH243610   4.027   3.520   8.083 -0.0931 -0.3061 -0.2365
 6472TIP3    H143611   4.122   3.508   8.075  0.0439  0.8719 -0.5769
 6472TIP3    H243612   4.009   3.601   8.035 -1.3273 -0.7102 -0.4958
 6473TIP3   OH243613   1.881   1.490   7.608  0.2041  0.2841 -0.6427
 6473TIP3    H143614   1.965   1.452   7.586 -0.3146 -1.4775  0.2577
 6473TIP3    H243615   1.833   1.494   7.525  1.2137  1.4838 -1.1902
 6474TIP3   OH243616   1.822   2.507   6.806  0.4650 -0.2899 -0.0394
 6474TIP3    H143617   1.776   2.436   6.761 -0.0773  0.3429 -0.4966
 6474TIP3    H243618   1.769   2.524   6.884  1.3422 -1.3078  0.8264
 6475TIP3   OH243619   5.767   6.490   7.730 -0.7008 -0.1588 -0.3470
 6475TIP3    H143620   5.827   6.557   7.696 -1.3487 -0.3886 -2.0327
 6475TIP3    H243621   5.770   6.420   7.665 -0.1421 -1.7522  1.3064
 6476TIP3   OH243622   3.281   6.073   6.769 -0.6918 -0.3103  0.3191
 6476TIP3    H143623   3.344   6.093   6.700  0.0116 -0.9037  0.7719
 6476TIP3    H243624   3.243   5.989   6.743  0.0323 -0.8540  0.9407
 6477TIP3   OH243625   4.462   1.146   7.295 -0.0315  0.3038 -0.3723
 6477TIP3    H143626   4.412   1.189   7.364 -1.0060 -1.0472 -0.1863
 6477TIP3    H243627   4.541   1.115   7.340  0.1166  0.8532 -0.2470
 6478TIP3   OH243628   2.622   5.665   8.426 -0.0198 -0.4750 -0.5130
 6478TIP3    H143629   2.550   5.716   8.390  0.3127  0.6031  0.2931
 6478TIP3    H243630   2.640   5.599   8.359 -1.4630 -0.5034 -0.9183
 6479TIP3   OH243631   6.248   0.133   6.538 -0.2579  1.0426 -0.2609
 6479TIP3    H143632   6.309   0.150   6.609 -0.0885  0.7398 -0.3307
 6479TIP3    H243633   6.185   0.205   6.542 -0.0684  1.1950 -0.0028
 6480TIP3   OH243634   0.861   1.948   7.737  0.3677 -0.8886  0.6344
 6480TIP3    H143635   0.799   2.020   7.748  0.1585 -0.0616 -3.9103
 6480TIP3    H243636   0.945   1.983   7.767 -0.2963  0.0496  1.4393
 6481TIP3   OH243637   2.229   1.593   9.948 -0.1813 -0.1078 -0.1386
 6481TIP3    H143638   2.308   1.642   9.925 -0.3871 -0.1641 -0.9956
 6481TIP3    H243639   2.172   1.656   9.992  0.9067 -0.4013  1.8242
 6482TIP3   OH243640   2.925   2.943  10.079 -0.0284 -0.2067 -0.4216
 6482TIP3    H143641   2.963   2.862  10.045  1.3017  0.3645 -0.3575
 6482TIP3    H243642   2.906   2.925  10.171 -0.7148 -0.7627 -0.6625
 6483TIP3   OH243643   6.117   0.692   7.532  0.1940  0.3517  0.5058
 6483TIP3    H143644   6.108   0.620   7.470 -2.0148 -0.0316  1.1876
 6483TIP3    H243645   6.201   0.676   7.575  0.0824 -1.4272  0.1494
 6484TIP3   OH243646   6.397   4.262   7.723 -0.4135 -0.2595 -0.1591
 6484TIP3    H143647   6.349   4.224   7.797  0.7501  1.5994  1.6522
 6484TIP3    H243648   6.476   4.208   7.716 -0.2498 -0.0930  0.3543
 6485TIP3   OH243649   0.548   6.073   6.552  0.1963 -0.2604  0.0681
 6485TIP3    H143650   0.550   5.978   6.544  1.4854 -0.1852 -0.8435
 6485TIP3    H243651   0.528   6.089   6.644  1.6341 -1.4325  0.6145
 6486TIP3   OH243652   5.938   5.565   8.975 -0.2077  0.2978  0.1620
 6486TIP3    H143653   6.019   5.600   9.012 -0.8721  0.0803  1.9342
 6486TIP3    H243654   5.882   5.641   8.963  0.6883  0.6425 -2.3992
 6487TIP3   OH243655   0.723   6.514   6.694  0.5176  0.1238  0.8878
 6487TIP3    H143656   0.726   6.454   6.768  0.9027 -0.0536  0.7275
 6487TIP3    H243657   0.814   6.541   6.681  0.1417  2.3033  2.2228
 6488TIP3   OH243658   6.510   4.177   7.436  0.1301 -0.4947 -0.3333
 6488TIP3    H143659   6.455   4.246   7.472  0.4875  0.0531 -0.8075
 6488TIP3    H243660   6.465   4.096   7.459  1.0725 -0.2818  2.5653
 6489TIP3   OH243661   0.623   0.741   7.969  0.2685 -0.0095  0.2649
 6489TIP3    H143662   0.621   0.836   7.959 -2.0702  0.0391  0.5979
 6489TIP3    H243663   0.708   0.715   7.935  0.2398  2.0175 -1.5529
 6490TIP3   OH243664   1.748   4.066   7.667  0.5157  0.1099 -0.8103
 6490TIP3    H143665   1.694   4.065   7.747  1.6882 -1.2997  0.0133
 6490TIP3    H243666   1.739   4.155   7.634 -1.6606  0.1493 -0.2741
 6491TIP3   OH243667   3.964   0.254   9.397 -0.5348 -0.2490  0.0840
 6491TIP3    H143668   3.975   0.166   9.434 -0.1001  0.4860  1.8186
 6491TIP3    H243669   4.052   0.291   9.396 -0.7259  0.1885 -0.5780
 6492TIP3   OH243670   1.739   0.222   7.928 -0.3479  0.5472 -0.1569
 6492TIP3    H143671   1.732   0.206   7.834 -0.2681 -1.9033  0.1991
 6492TIP3    H243672   1.828   0.195   7.950 -1.1532 -1.3664  0.9898
 6493TIP3   OH243673   2.006   4.358   8.431 -0.6862 -0.2974 -0.1350
 6493TIP3    H143674   1.923   4.341   8.475  0.2495 -0.1836  1.8354
 6493TIP3    H243675   2.036   4.273   8.400 -1.5745 -0.3147 -0.9770
 6494TIP3   OH243676   1.643   1.728   6.870 -1.1008 -0.1880  0.3326
 6494TIP3    H143677   1.699   1.760   6.800 -2.5300 -0.5985 -1.0483
 6494TIP3    H243678   1.692   1.655   6.909 -0.3447 -0.0247 -0.2878
 6495TIP3   OH243679   2.312   0.046   7.714  0.1363 -0.5544  0.1563
 6495TIP3    H143680   2.269   0.097   7.782  2.4919  0.1384  1.2189
 6495TIP3    H243681   2.379  -0.005   7.760  1.2353 -0.7197 -1.5141
 6496TIP3   OH243682   1.361   4.586   8.506 -0.3943  0.3789 -0.3048
 6496TIP3    H143683   1.454   4.606   8.495 -0.3859 -0.1268 -1.2875
 6496TIP3    H243684   1.353   4.494   8.478 -0.8024 -0.3188  1.9275
 6497TIP3   OH243685   2.967   1.092   6.365  0.5461  0.5654 -0.1089
 6497TIP3    H143686   2.915   1.167   6.336 -0.9834 -0.7413 -0.9524
 6497TIP3    H243687   2.903   1.030   6.399  1.5401 -1.0563 -1.0399
 6498TIP3   OH243688   0.978   1.891   8.613  0.3727 -0.0997  0.0053
 6498TIP3    H143689   0.910   1.835   8.575  0.1289 -0.3608  0.8082
 6498TIP3    H243690   1.049   1.831   8.634  0.9422  0.1974 -0.9894
 6499TIP3   OH243691   6.100   3.665   9.768 -0.1870 -0.0674  0.3146
 6499TIP3    H143692   6.013   3.660   9.729 -0.0839 -1.4952  0.1808
 6499TIP3    H243693   6.139   3.579   9.750  1.3319  0.6033  0.1887
 6500TIP3   OH243694   0.376   2.449   9.478 -0.3956 -0.4120  0.1679
 6500TIP3    H143695   0.343   2.371   9.522 -2.8171  0.4756  0.0419
 6500TIP3    H243696   0.301   2.508   9.472  1.2453  1.7968 -0.0928
 6501TIP3   OH243697   6.521   6.632   9.054  0.8453 -0.0970 -0.5245
 6501TIP3    H143698   6.480   6.563   9.003 -1.1494 -0.3473  1.2503
 6501TIP3    H243699   6.449   6.691   9.077  1.7177  0.2874  1.4964
 6502TIP3   OH243700   3.272   4.562   8.612  0.1542 -0.0818  0.2729
 6502TIP3    H143701   3.179   4.554   8.591  0.0386  1.3782  0.1402
 6502TIP3    H243702   3.316   4.509   8.545 -0.5731 -0.9851  0.4846
 6503TIP3   OH243703   0.695   5.545   6.834 -0.2097 -0.1900  0.0310
 6503TIP3    H143704   0.619   5.555   6.892 -0.6983 -0.7207 -0.5079
 6503TIP3    H243705   0.662   5.495   6.760  0.5024  0.1640 -0.5375
 6504TIP3   OH243706   1.843   4.147   8.251  0.4792  0.1907  0.9985
 6504TIP3    H143707   1.912   4.109   8.196 -0.6687  0.7469 -0.9226
 6504TIP3    H243708   1.847   4.095   8.332  1.9236 -0.9968  0.2390
 6505TIP3   OH243709   3.831   3.388   7.291 -0.4050  0.1261  0.4442
 6505TIP3    H143710   3.788   3.342   7.363  1.7039 -1.8056  0.5639
 6505TIP3    H243711   3.788   3.355   7.212  1.1613 -2.3076  0.5166
 6506TIP3   OH243712   2.392   6.519   6.854 -0.2106 -0.1251 -0.2695
 6506TIP3    H143713   2.321   6.469   6.894  0.1095  1.1757  2.1193
 6506TIP3    H243714   2.453   6.452   6.822 -1.1630 -1.2477  0.1928
 6507TIP3   OH243715   6.157   6.606   6.525  0.1567  0.4139  0.0846
 6507TIP3    H143716   6.073   6.579   6.563  1.5259 -2.5886  1.2430
 6507TIP3    H243717   6.153   6.702   6.525 -2.8984  0.3993  0.8907
 6508TIP3   OH243718   0.494   2.921   6.923  0.1634  0.3743 -0.0766
 6508TIP3    H143719   0.485   2.946   7.015  0.2986 -1.3320  0.4297
 6508TIP3    H243720   0.519   2.829   6.925 -1.9700 -0.3546 -1.8468
 6509TIP3   OH243721   1.549   4.614   9.104 -0.0440 -0.2501 -0.3542
 6509TIP3    H143722   1.564   4.706   9.084  1.8126 -0.1557  1.1680
 6509TIP3    H243723   1.559   4.608   9.199  2.7374 -2.4710 -0.6663
 6510TIP3   OH243724   3.757   2.402   7.852 -0.8088 -0.0246 -0.1936
 6510TIP3    H143725   3.754   2.316   7.896 -0.4547 -0.2700 -0.6491
 6510TIP3    H243726   3.782   2.463   7.922  0.0862 -0.4642 -0.1242
 6511TIP3   OH243727   0.874   1.237  10.019  0.6482  0.1854 -0.7733
 6511TIP3    H143728   0.960   1.251   9.979  0.3939  1.6352 -0.8366
 6511TIP3    H243729   0.860   1.142  10.012  2.8719 -0.3144  0.5618
 6512TIP3   OH243730   0.217   4.177   6.784  0.3248 -0.0760  0.2996
 6512TIP3    H143731   0.274   4.101   6.798  0.6522 -0.2890 -1.8606
 6512TIP3    H243732   0.271   4.239   6.734 -0.9628  0.1523 -0.8945
 6513TIP3   OH243733   1.169   3.810   8.458  0.7763  0.1679  0.5480
 6513TIP3    H143734   1.218   3.744   8.507  1.9604  0.7316  0.1701
 6513TIP3    H243735   1.099   3.761   8.415  1.3534 -0.7650  0.6319
 6514TIP3   OH243736   4.127   2.089   6.251  0.2418 -0.7015 -0.2193
 6514TIP3    H143737   4.084   2.100   6.166 -1.1817 -0.2129  0.5330
 6514TIP3    H243738   4.076   2.021   6.295  0.7293 -0.6704  0.4023
 6515TIP3   OH243739   4.309   3.466   8.083  0.1570 -0.6598 -0.2973
 6515TIP3    H143740   4.309   3.512   8.167  0.0171 -2.0995  0.5251
 6515TIP3    H243741   4.401   3.461   8.058  0.2262 -0.5092 -0.0728
 6516TIP3   OH243742   0.872   0.904   9.348  0.0791 -0.5023 -0.3089
 6516TIP3    H143743   0.896   0.902   9.441 -0.2445 -0.2679 -0.2191
 6516TIP3    H243744   0.892   0.815   9.317 -0.0906 -0.6709  0.0535
 6517TIP3   OH243745   2.558   1.475   8.791  0.3950  0.5377  0.1888
 6517TIP3    H143746   2.597   1.531   8.859  0.7957  0.2421  0.2036
 6517TIP3    H243747   2.524   1.537   8.726 -1.4466  0.8992  1.4296
 6518TIP3   OH243748   1.280   1.984   9.694  0.7428  1.0019  0.4281
 6518TIP3    H143749   1.315   1.897   9.714 -0.4133  0.3522 -0.3082
 6518TIP3    H243750   1.269   2.025   9.780  0.3021  0.0288  0.8476
 6519TIP3   OH243751   5.532   0.095   7.104  0.2397 -0.0594 -0.4597
 6519TIP3    H143752   5.475   0.056   7.038  1.4975 -0.5965 -1.2752
 6519TIP3    H243753   5.554   0.021   7.162 -0.0125  0.1749 -0.0651
 6520TIP3   OH243754   0.848   1.944   8.090  0.0606 -0.1031 -0.3854
 6520TIP3    H143755   0.912   2.013   8.111  1.7129 -1.9248  0.9051
 6520TIP3    H243756   0.787   1.946   8.163 -0.1439  0.2608 -0.5634
 6521TIP3   OH243757   2.942   1.956   6.530  0.2379 -0.9699  0.1548
 6521TIP3    H143758   3.028   1.949   6.487  1.6261  0.3724  2.4899
 6521TIP3    H243759   2.943   1.889   6.598 -0.6377 -1.0349  0.1152
 6522TIP3   OH243760   3.844   5.148   8.823  0.1232 -0.1620  0.1099
 6522TIP3    H143761   3.886   5.143   8.738 -1.3420 -1.5580 -0.5856
 6522TIP3    H243762   3.833   5.242   8.840 -2.6712  0.2111 -2.8916
 6523TIP3   OH243763   4.897   3.390   8.146  0.9426 -0.0697  0.3903
 6523TIP3    H143764   4.910   3.483   8.161  1.0687  0.0433 -0.4089
 6523TIP3    H243765   4.810   3.384   8.105  0.2393 -0.4535  1.8472
 6524TIP3   OH243766   0.727   1.328   6.784  0.5310 -0.4233  0.0647
 6524TIP3    H143767   0.814   1.303   6.816  1.0709  1.0421 -0.1469
 6524TIP3    H243768   0.729   1.305   6.691  0.4627 -0.9425  0.1884
 6525TIP3   OH243769   2.177   3.937   8.939  0.6106 -0.0954  0.2998
 6525TIP3    H143770   2.212   3.848   8.947  1.3260  0.1818  0.3156
 6525TIP3    H243771   2.252   3.991   8.914  0.1717  0.4998  0.2230
 6526TIP3   OH243772   5.075   6.393   7.589  0.1700  0.5502  0.0965
 6526TIP3    H143773   5.170   6.404   7.584  0.5584 -1.4493  1.9258
 6526TIP3    H243774   5.056   6.322   7.527  0.6770 -2.4631  3.0830
 6527TIP3   OH243775   4.085   3.909   9.766  0.0431  0.0216 -0.1569
 6527TIP3    H143776   4.130   3.826   9.780 -1.5847 -1.0233 -0.7950
 6527TIP3    H243777   3.997   3.884   9.738 -0.1629  1.9628 -1.4482
 6528TIP3   OH243778   5.514   6.586   6.834 -0.7480 -0.7842 -0.1543
 6528TIP3    H143779   5.444   6.646   6.864 -0.3808  0.1449 -1.0910
 6528TIP3    H243780   5.471   6.501   6.829 -1.3965 -0.5381  0.8351
 6529TIP3   OH243781   5.829   5.123   6.631  0.5751  0.2378 -0.7858
 6529TIP3    H143782   5.860   5.154   6.716 -0.5637 -0.4476 -0.0939
 6529TIP3    H243783   5.755   5.180   6.610  0.3393 -0.1108 -0.9209
 6530TIP3   OH243784   4.047   6.152   6.507  0.1027  0.5543  0.2506
 6530TIP3    H143785   4.068   6.068   6.467 -1.2819  0.8835 -1.2967
 6530TIP3    H243786   4.076   6.144   6.598  1.0071 -1.1691 -0.1483
 6531TIP3   OH243787   3.323   4.745   9.390 -0.9850  0.1206  0.3528
 6531TIP3    H143788   3.351   4.676   9.450  1.0576 -0.0277 -0.6954
 6531TIP3    H243789   3.253   4.704   9.338  0.4254 -1.3701 -0.5021
 6532TIP3   OH243790   2.157   2.038   8.177  0.2669 -0.2171 -0.3394
 6532TIP3    H143791   2.174   1.962   8.121 -0.7042 -0.3942 -0.4267
 6532TIP3    H243792   2.183   2.010   8.264  0.6542 -0.3724 -0.5060
 6533TIP3   OH243793   0.859   0.695   8.290 -0.6730 -0.5294  0.3487
 6533TIP3    H143794   0.795   0.623   8.286 -1.3862  0.1241 -0.3638
 6533TIP3    H243795   0.841   0.748   8.212 -0.8206  0.9570  1.3523
 6534TIP3   OH243796   4.517   0.407   6.638 -0.2912 -0.4866 -0.1673
 6534TIP3    H143797   4.559   0.419   6.723 -1.0768 -1.2525  0.3451
 6534TIP3    H243798   4.582   0.362   6.584  0.2336  0.0656 -0.0091
 6535TIP3   OH243799   2.400   3.135   6.637  0.0252 -0.4016  0.9833
 6535TIP3    H143800   2.361   3.221   6.616  0.6271 -0.1431  0.9132
 6535TIP3    H243801   2.458   3.153   6.711  0.0064 -0.7879  1.0915
 6536TIP3   OH243802   6.101   3.289   7.450 -0.3794 -0.1963 -0.1468
 6536TIP3    H143803   6.190   3.319   7.430 -0.1068 -1.0359 -0.2278
 6536TIP3    H243804   6.045   3.360   7.420  0.2623  0.3565 -0.0756
 6537TIP3   OH243805   3.628   5.565   6.736  0.4756 -0.2246  0.0868
 6537TIP3    H143806   3.597   5.590   6.823  1.3773 -0.2826  0.4315
 6537TIP3    H243807   3.551   5.575   6.680 -0.3779 -1.1487  1.0610
 6538TIP3   OH243808   6.180   4.553   7.146  0.2705  0.4091 -0.1585
 6538TIP3    H143809   6.153   4.463   7.166  0.8132  0.5516  1.3342
 6538TIP3    H243810   6.256   4.543   7.089 -0.8001 -0.0328 -1.5670
 6539TIP3   OH243811   0.439   6.567   7.557  0.2691 -0.3365 -0.0247
 6539TIP3    H143812   0.375   6.598   7.493  1.3085 -0.0682 -0.9692
 6539TIP3    H243813   0.484   6.646   7.586  1.0628 -0.6501 -0.3686
 6540TIP3   OH243814   3.899   1.912   8.781 -0.5300  0.2345 -0.3699
 6540TIP3    H143815   3.882   2.002   8.806 -1.1548 -0.1254  0.5281
 6540TIP3    H243816   3.883   1.910   8.686 -0.8953  0.9681 -0.3286
 6541TIP3   OH243817   5.018   5.420   7.274 -0.4555  0.5369 -0.1350
 6541TIP3    H143818   5.002   5.480   7.347  1.4346  0.0654  0.7277
 6541TIP3    H243819   5.021   5.333   7.314 -2.2599 -0.0868 -1.2338
 6542TIP3   OH243820   4.148   1.112   9.390  0.3549 -0.7465 -0.4851
 6542TIP3    H143821   4.135   1.202   9.421  1.0434 -0.4543 -0.9980
 6542TIP3    H243822   4.089   1.059   9.443 -0.8186  0.1341 -0.8678
 6543TIP3   OH243823   4.109   3.335   8.317 -0.2308  0.0451  0.1128
 6543TIP3    H143824   4.084   3.395   8.247  0.1888 -1.4715 -1.3931
 6543TIP3    H243825   4.051   3.259   8.305  2.0358 -1.6607 -0.7191
 6544TIP3   OH243826   5.673   4.410   9.960  0.1231 -0.1082 -0.0350
 6544TIP3    H143827   5.698   4.492  10.001 -2.1833 -0.6545  2.7701
 6544TIP3    H243828   5.580   4.420   9.939 -0.5223 -2.3106  1.4513
 6545TIP3   OH243829   2.050   5.039   9.153 -0.4517  0.1958  0.1941
 6545TIP3    H143830   1.994   5.058   9.228 -0.4460 -1.9599  0.7947
 6545TIP3    H243831   2.107   5.116   9.147 -0.9551  0.7645  1.9200
 6546TIP3   OH243832   4.920   1.279   6.507  0.2047  0.3314 -0.1319
 6546TIP3    H143833   4.958   1.207   6.557  0.3685 -0.0667 -0.8142
 6546TIP3    H243834   4.943   1.260   6.416 -0.1736  0.9856 -0.3721
 6547TIP3   OH243835   4.851   4.277   6.696 -0.6640 -0.2053  0.3602
 6547TIP3    H143836   4.807   4.279   6.611  1.9981 -0.8116 -1.1760
 6547TIP3    H243837   4.932   4.326   6.682 -0.4544  0.2497  2.7777
 6548TIP3   OH243838   3.305   1.549   7.763  0.4542  0.6981 -0.2218
 6548TIP3    H143839   3.232   1.594   7.805  1.0089  1.7731 -0.3948
 6548TIP3    H243840   3.358   1.517   7.836 -0.7709 -1.1275 -0.0668
 6549TIP3   OH243841   2.513   6.635   9.437 -0.2428  0.5367 -0.1915
 6549TIP3    H143842   2.435   6.689   9.432  1.1949  2.8752  1.0704
 6549TIP3    H243843   2.515   6.604   9.527  0.7541  1.3026  0.0672
 6550TIP3   OH243844   0.216   5.920   9.489  0.7346  0.3344 -0.4356
 6550TIP3    H143845   0.227   5.931   9.583  0.3348  0.1416 -0.3637
 6550TIP3    H243846   0.128   5.953   9.471  1.3252  1.6739 -0.9635
 6551TIP3   OH243847   5.366   2.161   9.429  0.2279 -0.0573 -0.2213
 6551TIP3    H143848   5.288   2.192   9.474 -0.1043 -1.3861  0.1652
 6551TIP3    H243849   5.349   2.068   9.413  2.2218 -0.6797  0.9622
 6552TIP3   OH243850   0.319   2.184   7.296  0.1731  0.2671 -0.4389
 6552TIP3    H143851   0.328   2.146   7.208 -0.3526 -1.4393  0.2094
 6552TIP3    H243852   0.227   2.211   7.301  0.2574  0.5681 -0.4762
 6553TIP3   OH243853   5.416   0.860   6.393 -0.3727  0.4854  0.2171
 6553TIP3    H143854   5.481   0.913   6.440  1.3785  0.3550 -1.9146
 6553TIP3    H243855   5.384   0.917   6.324  0.2815 -0.6405 -1.0583
 6554TIP3   OH243856   5.868   1.736   8.372  0.2025 -0.1865  0.0451
 6554TIP3    H143857   5.832   1.648   8.385  1.8749 -1.0748 -0.9629
 6554TIP3    H243858   5.873   1.745   8.276  3.8351 -0.7105  0.0475
 6555TIP3   OH243859   4.593   3.574   7.538 -0.0180 -0.2214  0.5500
 6555TIP3    H143860   4.574   3.500   7.597 -1.4224  0.5378  1.1084
 6555TIP3    H243861   4.522   3.572   7.474  0.7438 -0.2163 -0.2998
 6556TIP3   OH243862   4.020   1.669   9.286 -0.1523  0.2796  0.2873
 6556TIP3    H143863   3.930   1.637   9.283  0.6835 -2.2075 -1.6458
 6556TIP3    H243864   4.062   1.616   9.352  0.0197  1.2104  0.9483
 6557TIP3   OH243865   0.979   0.923   7.044 -0.0244  0.3004  0.4294
 6557TIP3    H143866   0.969   0.924   6.949  0.5114 -0.5420  0.3484
 6557TIP3    H243867   0.918   0.989   7.075 -0.2811  0.5193 -0.4942
 6558TIP3   OH243868   5.649   4.453   8.695 -0.1254 -0.4318 -0.1576
 6558TIP3    H143869   5.602   4.455   8.611  0.9634 -0.5443 -0.7791
 6558TIP3    H243870   5.587   4.412   8.755 -1.1223  0.1240 -0.7749
 6559TIP3   OH243871   0.966   3.656  10.391 -0.8217 -0.2570  0.4637
 6559TIP3    H143872   0.874   3.631  10.384 -0.7592 -0.6546  1.0015
 6559TIP3    H243873   0.994   3.674  10.301 -1.8912  1.5506  0.4439
 6560TIP3   OH243874   2.467   3.317   8.169  0.3528  0.0902 -0.1204
 6560TIP3    H143875   2.428   3.246   8.118  0.3536  0.0541 -0.0706
 6560TIP3    H243876   2.541   3.346   8.115  0.2729  0.1420 -0.2030
 6561TIP3   OH243877   0.342   4.338  10.025 -0.1674  0.2127  0.0196
 6561TIP3    H143878   0.315   4.272  10.088 -0.3419 -0.0203 -0.2932
 6561TIP3    H243879   0.384   4.288   9.954  0.7861  0.5365  0.3350
 6562TIP3   OH243880   6.595   2.894   7.028  0.1917 -0.5972 -0.1127
 6562TIP3    H143881   6.613   2.960   6.961  0.9445  1.5381  2.0640
 6562TIP3    H243882   6.502   2.907   7.051  0.2024 -0.6410 -0.0418
 6563TIP3   OH243883   1.020   2.052   7.004  0.2028 -0.1587  0.1617
 6563TIP3    H143884   1.104   2.011   7.025  0.1356 -0.3652  0.0275
 6563TIP3    H243885   1.030   2.143   7.033  0.5806 -0.1036 -0.1318
 6564TIP3   OH243886   0.779   1.179   9.594  0.3920 -0.0669 -0.2654
 6564TIP3    H143887   0.814   1.090   9.593 -0.8621 -0.6220  0.9321
 6564TIP3    H243888   0.687   1.169   9.569 -0.0704  0.6989  0.9853
 6565TIP3   OH243889   1.139   2.654   9.190  0.7827  0.2258 -0.3358
 6565TIP3    H143890   1.156   2.709   9.114  2.0235 -0.3911 -0.5247
 6565TIP3    H243891   1.176   2.702   9.264  0.3688  0.4055 -0.2376
 6566TIP3   OH243892   2.966   6.579   8.071  0.2588  0.2385  0.4579
 6566TIP3    H143893   3.029   6.610   8.136  1.8041 -0.3492 -0.6974
 6566TIP3    H243894   3.018   6.563   7.992 -0.9090 -2.3473  0.0809
 6567TIP3   OH243895   2.854   3.783   6.529 -0.3353  0.1516 -0.4780
 6567TIP3    H143896   2.883   3.841   6.459 -1.5757 -0.5623 -1.6222
 6567TIP3    H243897   2.830   3.842   6.601  4.7328  0.8091  1.0375
 6568TIP3   OH243898   5.369   6.210   8.186  0.7023  0.1535  0.3776
 6568TIP3    H143899   5.454   6.168   8.199  1.1226  0.1283 -1.9740
 6568TIP3    H243900   5.390   6.300   8.161  0.2917 -0.5328 -2.9238
 6569TIP3   OH243901   1.233   4.924   7.537 -0.2676  0.4488  0.4080
 6569TIP3    H143902   1.137   4.922   7.542 -0.3041  1.8975  0.6257
 6569TIP3    H243903   1.253   5.012   7.506  1.0790  1.0440  2.7323
 6570TIP3   OH243904   2.315   2.045   9.208 -0.2289  0.3822 -0.1030
 6570TIP3    H143905   2.343   1.992   9.282 -0.7339  0.7258  0.3400
 6570TIP3    H243906   2.325   2.136   9.238 -1.9833  0.5177  0.1426
 6571TIP3   OH243907   2.715   4.899   8.729  0.1189 -0.2494  0.1092
 6571TIP3    H143908   2.709   4.819   8.782 -0.8398 -0.8642 -0.9012
 6571TIP3    H243909   2.625   4.930   8.723  0.4059  0.5718 -0.0448
 6572TIP3   OH243910   6.631   4.567   9.089 -0.1084  0.0335 -0.3080
 6572TIP3    H143911   6.638   4.590   8.997 -2.1593 -2.0846 -1.1164
 6572TIP3    H243912   6.716   4.528   9.111  1.2089  2.5722 -0.5667
 6573TIP3   OH243913   0.046   2.470   8.076  0.0840 -0.3291 -0.0741
 6573TIP3    H143914   0.136   2.484   8.048  0.5272  0.9095  1.8293
 6573TIP3    H243915   0.007   2.557   8.078 -1.9748 -1.0153 -3.1764
 6574TIP3   OH243916   5.444   3.388   6.651 -0.2958  0.1866 -0.8380
 6574TIP3    H143917   5.374   3.383   6.716  1.1141 -2.3209  0.6260
 6574TIP3    H243918   5.438   3.307   6.601  2.6409 -1.1406  0.6671
 6575TIP3   OH243919   2.933   3.894   9.624  0.2023  0.0175 -0.3011
 6575TIP3    H143920   2.906   3.815   9.578  0.9453  1.0485 -2.7071
 6575TIP3    H243921   2.982   3.863   9.700  0.4975 -1.8364 -1.1898
 6576TIP3   OH243922   3.450   3.334   9.568  0.0429  0.2029  0.1871
 6576TIP3    H143923   3.500   3.381   9.502  1.0314  0.6542  1.2402
 6576TIP3    H243924   3.447   3.393   9.643 -1.1398 -0.2682  0.5362
 6577TIP3   OH243925   6.030   5.199   8.655  0.1184  0.4344  0.4468
 6577TIP3    H143926   5.944   5.233   8.632 -0.0411 -0.2265  0.0584
 6577TIP3    H243927   6.044   5.126   8.595  0.3080 -0.4119  1.4905
 6578TIP3   OH243928   2.982   2.712   9.774 -0.7375 -0.0248 -0.1400
 6578TIP3    H143929   3.013   2.736   9.686 -1.9245 -0.3440 -0.6704
 6578TIP3    H243930   3.038   2.639   9.800 -0.4769 -0.0340 -0.7037
 6579TIP3   OH243931   3.684   0.017   9.232  0.1221  0.5437  0.3856
 6579TIP3    H143932   3.663   0.097   9.281  2.7711  0.1674  2.3141
 6579TIP3    H243933   3.750   0.044   9.169  0.1699  0.0977  0.2413
 6580TIP3   OH243934   2.886   4.474   9.416  0.0231 -0.3659 -0.2747
 6580TIP3    H143935   2.803   4.489   9.372  0.1473  0.1107 -0.3445
 6580TIP3    H243936   2.865   4.412   9.486 -0.3538 -0.3824 -0.4001
 6581TIP3   OH243937   0.604   6.613   8.533  0.6746  0.0862 -0.2109
 6581TIP3    H143938   0.689   6.571   8.516  1.7230  1.6345  0.8424
 6581TIP3    H243939   0.576   6.578   8.618  0.5621  0.0206 -0.2756
 6582TIP3   OH243940   0.657   2.267   8.648 -0.7957  0.6371  0.2602
 6582TIP3    H143941   0.747   2.284   8.619 -0.0001  0.8436  2.6194
 6582TIP3    H243942   0.634   2.184   8.607  0.3735  0.6818 -0.5645
 6583TIP3   OH243943   0.473   5.594   7.385  0.1716  0.3152 -0.0976
 6583TIP3    H143944   0.462   5.508   7.426  0.6206  0.9259  1.3851
 6583TIP3    H243945   0.549   5.632   7.429  0.3264  1.2455 -1.1261
 6584TIP3   OH243946   0.203   3.829   7.615 -0.4388  0.1441  0.0093
 6584TIP3    H143947   0.249   3.753   7.579  1.3897  2.0700 -1.9874
 6584TIP3    H243948   0.127   3.840   7.558  0.4655  1.0197 -1.0739
 6585TIP3   OH243949   4.959   1.451   7.862  0.7764  0.2097 -0.6024
 6585TIP3    H143950   5.035   1.458   7.920 -0.9165  0.0758  1.8016
 6585TIP3    H243951   4.914   1.535   7.872 -1.4931 -1.1164  1.3174
 6586TIP3   OH243952   1.340   1.804   6.264  0.2969 -0.0156  0.4591
 6586TIP3    H143953   1.271   1.864   6.234 -0.4577 -0.7867  0.6088
 6586TIP3    H243954   1.296   1.748   6.328  0.7181 -1.4491 -0.4837
 6587TIP3   OH243955   2.064   4.611   8.495  0.4556 -0.0857 -0.0474
 6587TIP3    H143956   2.073   4.525   8.454  2.6197  0.2681 -0.4293
 6587TIP3    H243957   2.095   4.599   8.585 -0.1737  0.1003  0.2042
 6588TIP3   OH243958   3.718   4.151   9.407 -0.4362 -0.1795 -0.4043
 6588TIP3    H143959   3.782   4.106   9.460  0.6758 -0.3527 -1.8388
 6588TIP3    H243960   3.657   4.190   9.470 -0.4150 -2.1507  0.9097
 6589TIP3   OH243961   1.269   5.879   7.773  0.0357  0.6454 -0.2429
 6589TIP3    H143962   1.270   5.957   7.718  0.0815 -0.3422 -1.7145
 6589TIP3    H243963   1.242   5.910   7.860  0.2131  2.2960 -0.7544
 6590TIP3   OH243964   0.669   2.731   6.804  0.0551 -0.2872  0.3521
 6590TIP3    H143965   0.630   2.784   6.734 -1.0974  0.2635  1.3797
 6590TIP3    H243966   0.687   2.793   6.874  0.7740 -0.9085  0.7274
 6591TIP3   OH243967   5.582   0.290   9.762  0.4769 -0.3875  0.1876
 6591TIP3    H143968   5.599   0.202   9.797  1.4226 -1.2770 -2.3199
 6591TIP3    H243969   5.656   0.342   9.792  1.2767 -1.1269 -0.4619
 6592TIP3   OH243970   5.670   1.629   7.445 -0.1797  0.5670 -0.5519
 6592TIP3    H143971   5.674   1.534   7.455  0.0687  0.7123  0.8863
 6592TIP3    H243972   5.715   1.646   7.362  0.5383 -0.4981 -0.4005
 6593TIP3   OH243973   1.125   3.498   9.212 -0.1987 -0.4105  0.3627
 6593TIP3    H143974   1.176   3.573   9.241 -1.1140 -0.0959  1.2244
 6593TIP3    H243975   1.172   3.422   9.246  0.2656 -0.1890  0.2246
 6594TIP3   OH243976   5.149   4.119   7.962  0.6123  0.4699  0.5782
 6594TIP3    H143977   5.230   4.080   7.929  0.6623 -0.1982  1.4656
 6594TIP3    H243978   5.147   4.206   7.922  1.6985  0.4422  0.4275
 6595TIP3   OH243979   3.478   3.068   6.736  0.4292 -0.2987 -0.2334
 6595TIP3    H143980   3.454   3.005   6.668 -0.7081  1.4742 -1.5847
 6595TIP3    H243981   3.564   3.102   6.708  0.4727 -0.3682 -0.1841
 6596TIP3   OH243982   6.720   1.992   8.172 -0.2198  0.1947  0.0356
 6596TIP3    H143983   6.774   2.054   8.221 -0.5510 -0.1303  0.8250
 6596TIP3    H243984   6.731   1.909   8.218 -0.8457 -0.0309 -0.2120
 6597TIP3   OH243985   3.664   4.322   8.123 -0.4730  0.2070  0.4135
 6597TIP3    H143986   3.574   4.297   8.099  0.0275 -2.1937  0.7869
 6597TIP3    H243987   3.654   4.375   8.202 -1.5564 -0.0395  0.4573
 6598TIP3   OH243988   2.661   1.338   8.290  0.1252  0.5190  0.3826
 6598TIP3    H143989   2.662   1.242   8.292  0.3744  0.5203  0.2558
 6598TIP3    H243990   2.572   1.361   8.319  0.6691  0.3101  2.3850
 6599TIP3   OH243991   0.165   0.603   7.018 -0.4802  0.0735  0.0077
 6599TIP3    H143992   0.210   0.681   6.985 -0.6250  0.3117  0.3729
 6599TIP3    H243993   0.227   0.532   7.003 -1.3437 -0.2255 -2.7956
 6600TIP3   OH243994   2.875   4.614   7.177 -0.0847  0.6744 -0.1851
 6600TIP3    H143995   2.860   4.702   7.142  2.0048  0.2294 -2.4750
 6600TIP3    H243996   2.831   4.556   7.115 -0.6440  0.0115  0.7974
 6601TIP3   OH243997   3.318   2.574   6.851  0.3949  0.0340  0.0417
 6601TIP3    H143998   3.258   2.611   6.787  0.9097  0.0706 -0.4381
 6601TIP3    H243999   3.378   2.645   6.872  2.1110 -0.7624 -1.7627
 6602TIP3   OH244000   0.718   1.406   8.944 -0.1769 -0.1850  0.2472
 6602TIP3    H144001   0.769   1.486   8.952  0.9275 -0.6466 -1.5977
 6602TIP3    H244002   0.761   1.357   8.874 -2.3694 -1.2160 -0.4670
 6603TIP3   OH244003   3.130   0.833   6.926 -0.3945  0.2956 -0.1168
 6603TIP3    H144004   3.050   0.781   6.928  0.2728 -0.7230  0.6448
 6603TIP3    H244005   3.178   0.801   6.850 -1.4384  2.0878 -1.6219
 6604TIP3   OH244006   6.486   3.805   7.236 -0.0367  0.3629  0.4547
 6604TIP3    H144007   6.406   3.846   7.267 -0.7948 -1.0027  0.3665
 6604TIP3    H244008   6.497   3.839   7.147 -0.5050  0.5625  0.4699
 6605TIP3   OH244009   4.410   0.797   9.159  0.4673  0.2094 -0.5728
 6605TIP3    H144010   4.454   0.763   9.237  0.1880 -0.6121 -0.7594
 6605TIP3    H244011   4.396   0.890   9.178 -1.4803 -0.3704  1.2503
 6606TIP3   OH244012   0.345   1.546   9.161 -0.5591 -0.1236 -0.4045
 6606TIP3    H144013   0.378   1.464   9.127  0.4916  0.3966 -0.6990
 6606TIP3    H244014   0.296   1.585   9.089 -0.7826 -0.3336 -0.3680
 6607TIP3   OH244015   5.091   1.498   8.804 -0.1736  0.2458  0.4853
 6607TIP3    H144016   5.016   1.533   8.852  0.5749  1.2801  0.9433
 6607TIP3    H244017   5.107   1.561   8.734 -0.4422 -0.5797 -0.3469
 6608TIP3   OH244018   5.092   4.312   8.388 -0.1527 -0.0592 -0.1001
 6608TIP3    H144019   5.016   4.366   8.404 -0.6141 -0.2205 -1.6329
 6608TIP3    H244020   5.059   4.239   8.336  0.5350 -1.6061  1.5218
 6609TIP3   OH244021   1.653   1.192   6.970 -0.1017 -0.6818  0.2162
 6609TIP3    H144022   1.702   1.137   6.908 -0.9412 -0.6015 -0.5369
 6609TIP3    H244023   1.708   1.194   7.049  1.5815  0.2202 -0.9185
 6610TIP3   OH244024   5.528   1.988  15.217  0.2201 -0.0679  0.2038
 6610TIP3    H144025   5.521   2.022  15.128  1.4888 -1.1241 -0.3310
 6610TIP3    H244026   5.489   2.056  15.272  0.5773  1.1799 -1.0345
 6611TIP3   OH244027   6.247   4.484   8.036 -0.3167  0.0020 -0.3140
 6611TIP3    H144028   6.223   4.392   8.042 -0.1228 -0.0563 -0.4273
 6611TIP3    H244029   6.227   4.509   7.946 -0.1674  0.0119 -0.3453
 6612TIP3   OH244030   1.980   3.723   7.296 -0.0245  0.6921 -0.2372
 6612TIP3    H144031   1.985   3.762   7.383  0.8497  0.4193 -0.1552
 6612TIP3    H244032   1.891   3.743   7.265 -0.0034  1.6579  0.3005
 6613TIP3   OH244033   3.311   3.942   8.418 -0.4021 -0.0593  0.4709
 6613TIP3    H144034   3.372   3.878   8.455  0.0898 -0.2179 -0.5781
 6613TIP3    H244035   3.296   4.004   8.489  1.4216  0.2884  0.6151
 6614TIP3   OH244036   1.778   0.663   9.257 -0.1690 -0.3160 -0.0581
 6614TIP3    H144037   1.849   0.726   9.245 -0.4476 -0.1002 -0.6305
 6614TIP3    H244038   1.813   0.598   9.318 -0.2347  0.9480  1.3922
 6615TIP3   OH244039   2.485   1.442   7.474  0.5723  0.0078 -0.5610
 6615TIP3    H144040   2.576   1.411   7.475 -0.2241 -2.5124 -0.0321
 6615TIP3    H244041   2.467   1.459   7.381  0.6614 -2.5992 -1.1372
 6616TIP3   OH244042   2.478   0.056   9.913 -0.0042 -0.2837 -0.0432
 6616TIP3    H144043   2.466   0.104   9.831 -0.9494  0.1908  0.3548
 6616TIP3    H244044   2.571   0.064   9.932  0.3487 -0.9068 -1.3643
 6617TIP3   OH244045   3.257   6.323   6.898 -0.2982  0.3994 -0.0168
 6617TIP3    H144046   3.290   6.245   6.854 -3.0694 -0.0901 -1.4656
 6617TIP3    H244047   3.219   6.376   6.828 -3.0066  0.5994  1.4568
 6618TIP3   OH244048   0.379   0.137   7.608 -0.0902  0.0187  0.2642
 6618TIP3    H144049   0.348   0.152   7.519 -0.7960 -1.0776  0.3044
 6618TIP3    H244050   0.463   0.182   7.612 -0.1683  0.2951 -0.8761
 6619TIP3   OH244051   1.157   2.615   8.088  0.2411 -0.2901  0.3635
 6619TIP3    H144052   1.079   2.632   8.140 -0.6164  1.6069 -1.4423
 6619TIP3    H244053   1.224   2.671   8.127 -0.5559  1.5852 -0.8655
 6620TIP3   OH244054   1.237   4.142   8.042  0.5609  0.0743  0.3929
 6620TIP3    H144055   1.300   4.070   8.039  0.3948 -0.0639  0.0023
 6620TIP3    H244056   1.280   4.214   7.997  1.2333  0.6464  1.9181
 6621TIP3   OH244057   2.942   5.346   9.327  0.0879 -0.6620 -0.5369
 6621TIP3    H144058   3.018   5.296   9.358  0.2063 -0.9894 -1.3258
 6621TIP3    H244059   2.979   5.429   9.296  0.2419 -1.1200 -1.6296
 6622TIP3   OH244060   2.104   3.697   6.888 -0.2671 -0.1291 -0.0169
 6622TIP3    H144061   2.050   3.775   6.892  1.4841  1.1268  0.5431
 6622TIP3    H244062   2.075   3.644   6.963 -2.2167 -0.5952 -1.0402
 6623TIP3   OH244063   0.025   2.848   9.788 -0.3753 -0.2872 -0.1110
 6623TIP3    H144064  -0.014   2.773   9.832  0.8495 -0.8330  0.0916
 6623TIP3    H244065   0.002   2.838   9.696  1.0315 -1.7732 -0.3450
 6624TIP3   OH244066   0.380   6.334   8.047  0.0543 -0.3804  0.0534
 6624TIP3    H144067   0.394   6.384   7.966 -1.6149 -1.2720 -0.8372
 6624TIP3    H244068   0.286   6.339   8.061 -0.0816 -2.7271  0.2853
 6625TIP3   OH244069   3.378   5.700   8.343 -0.4123 -0.1252 -0.4464
 6625TIP3    H144070   3.435   5.767   8.381  1.6155 -1.1285 -1.5640
 6625TIP3    H244071   3.382   5.715   8.248 -1.2862 -0.7873 -0.6064
 6626TIP3   OH244072   5.959   3.885   9.948 -0.2503  0.2259  0.3475
 6626TIP3    H144073   6.031   3.830   9.981 -1.8170 -1.1871  1.5668
 6626TIP3    H244074   5.921   3.833   9.876 -0.2301  0.8435 -0.1145
 6627TIP3   OH244075   6.364   5.191   8.338  0.0485  0.4649  0.2662
 6627TIP3    H144076   6.282   5.219   8.299  0.8562  0.3026 -1.6319
 6627TIP3    H244077   6.361   5.225   8.428 -1.7202  1.1355 -0.0213
 6628TIP3   OH244078   3.887   6.114   7.914 -0.4566 -0.0206 -0.3075
 6628TIP3    H144079   3.879   6.024   7.881 -1.5018  0.2030 -0.7156
 6628TIP3    H244080   3.805   6.130   7.959  0.3819  0.1863  1.1943
 6629TIP3   OH244081   2.330   0.865   6.553 -0.0200  0.5693 -0.0186
 6629TIP3    H144082   2.411   0.838   6.509 -0.2226  1.2638 -0.8424
 6629TIP3    H244083   2.356   0.879   6.644  0.2865 -1.4146  0.2397
 6630TIP3   OH244084   4.901   2.019   7.411 -0.1798 -0.0179 -0.0730
 6630TIP3    H144085   4.973   2.030   7.473  0.3350 -1.0563 -0.4504
 6630TIP3    H244086   4.823   2.039   7.462  0.2512 -0.5860  0.8451
 6631TIP3   OH244087   0.827   0.679   6.923 -0.6305 -0.3311  0.1601
 6631TIP3    H144088   0.813   0.658   7.016  1.4982  0.5380  0.7478
 6631TIP3    H244089   0.778   0.760   6.910 -0.7869 -0.3524  0.5854
 6632TIP3   OH244090   0.903   3.941   6.832  0.0854 -0.3726  0.1294
 6632TIP3    H144091   0.901   4.022   6.883  1.6313  0.4862 -1.0721
 6632TIP3    H244092   0.992   3.937   6.797  0.0537 -2.6346  0.1748
 6633TIP3   OH244093   3.717   3.400  10.024 -0.1056  0.3820 -0.1013
 6633TIP3    H144094   3.751   3.364   9.942  1.0109 -1.4940  1.1265
 6633TIP3    H244095   3.670   3.328  10.064 -1.6235  1.6126  0.4318
 6634TIP3   OH244096   1.372   4.876   9.559 -0.6540 -0.0134 -0.1014
 6634TIP3    H144097   1.367   4.963   9.519 -2.0392  0.2335  0.5689
 6634TIP3    H244098   1.453   4.879   9.611  1.3203 -0.4169 -2.9012
 6635TIP3   OH244099   4.625   6.337   6.748  0.3179  0.1932 -0.3057
 6635TIP3    H144100   4.583   6.331   6.662  1.1501 -0.6114 -0.6635
 6635TIP3    H244101   4.556   6.312   6.810 -0.4574  1.3283 -0.6752
 6636TIP3   OH244102   2.170   4.711   9.258  0.0698  1.2416 -0.0288
 6636TIP3    H144103   2.078   4.727   9.278  0.0688  0.2002  0.8670
 6636TIP3    H244104   2.202   4.660   9.332  1.3619  1.5410 -0.3537
 6637TIP3   OH244105   6.504   0.141   9.604  0.0718  0.1633  0.1728
 6637TIP3    H144106   6.426   0.131   9.659 -0.2931  1.7600  0.0075
 6637TIP3    H244107   6.577   0.145   9.666 -0.2654  1.2254  0.5341
 6638TIP3   OH244108   5.519   4.279   8.381 -0.1417  0.7384  0.1867
 6638TIP3    H144109   5.602   4.240   8.353 -0.6232  0.0487 -0.3021
 6638TIP3    H244110   5.537   4.373   8.385  0.2792  0.7573 -1.3365
 6639TIP3   OH244111   5.186   1.814   6.709  0.0965 -0.1079  0.1053
 6639TIP3    H144112   5.279   1.790   6.707  0.4209  1.1454 -1.3935
 6639TIP3    H244113   5.182   1.887   6.770 -0.1298 -0.9297  1.1010
 6640TIP3   OH244114   1.075   1.558  10.136 -0.1766 -0.2921  0.0617
 6640TIP3    H144115   1.058   1.501  10.211 -0.3146  0.4007  0.5648
 6640TIP3    H244116   0.992   1.605  10.123 -0.1629 -0.4346 -0.5449
 6641TIP3   OH244117   1.130   0.391   7.998  0.5657 -0.1153 -0.0932
 6641TIP3    H144118   1.074   0.314   7.985 -0.0285  0.0009  1.6003
 6641TIP3    H244119   1.140   0.427   7.910 -0.8939 -0.9245 -0.6320
 6642TIP3   OH244120   3.518   5.787   7.743  0.1059 -0.0136 -0.6798
 6642TIP3    H144121   3.426   5.790   7.718 -0.0683 -1.1828 -0.2450
 6642TIP3    H244122   3.520   5.733   7.822  0.8067  2.5101  1.1442
 6643TIP3   OH244123   1.168   6.429   8.289 -0.3807 -0.1315 -0.0795
 6643TIP3    H144124   1.238   6.443   8.353 -0.3650  0.2369 -0.1740
 6643TIP3    H244125   1.171   6.507   8.234 -0.7768 -0.1797 -0.1677
 6644TIP3   OH244126   1.883   2.657   9.104 -0.0856 -0.4002 -0.5222
 6644TIP3    H144127   1.852   2.577   9.146  1.2063 -0.6405  0.0086
 6644TIP3    H244128   1.888   2.635   9.011 -1.1721 -0.4436 -0.5886
 6645TIP3   OH244129   3.264   3.049   7.864  0.5312  0.0044  0.1476
 6645TIP3    H144130   3.332   2.989   7.833 -0.0211 -0.0458 -1.0057
 6645TIP3    H244131   3.298   3.083   7.947  1.0492 -1.5684  0.6153
 6646TIP3   OH244132   1.185   4.073   6.976 -1.1174 -0.5032  0.4297
 6646TIP3    H144133   1.200   4.024   6.895  1.2580  0.2828  0.3302
 6646TIP3    H244134   1.198   4.165   6.951 -1.3774 -0.1728  1.4881
 6647TIP3   OH244135   3.742   3.796   8.687 -0.0430  0.0172 -0.7746
 6647TIP3    H144136   3.817   3.832   8.734 -1.2104  0.5664  0.7194
 6647TIP3    H244137   3.750   3.701   8.697 -0.4873  0.1348  0.9134
 6648TIP3   OH244138   0.720   4.296   7.121  0.3506 -0.5652 -0.2906
 6648TIP3    H144139   0.682   4.245   7.193  0.5447  0.9212  0.9278
 6648TIP3    H244140   0.729   4.384   7.157  2.6391 -0.2907 -1.3777
 6649TIP3   OH244141   6.504   0.504   6.594  0.5805  0.4227  0.3911
 6649TIP3    H144142   6.570   0.491   6.663 -0.9845 -4.9117  1.3836
 6649TIP3    H244143   6.548   0.475   6.514  0.2044 -0.8057  0.6150
 6650TIP3   OH244144   1.589   1.410   8.824 -0.2445 -0.3552 -0.6625
 6650TIP3    H144145   1.669   1.437   8.867 -0.2578 -2.8071  1.1113
 6650TIP3    H244146   1.535   1.489   8.820  1.1758  0.7212  0.6243
 6651TIP3   OH244147   0.506   5.115   6.811 -0.2040 -0.4036 -0.0227
 6651TIP3    H144148   0.443   5.048   6.785  0.5936 -1.9087  1.7536
 6651TIP3    H244149   0.511   5.108   6.906  2.2757 -0.0082 -0.0549
 6652TIP3   OH244150   4.937   2.632   7.282  0.2362  0.0183 -0.1230
 6652TIP3    H144151   4.927   2.653   7.374 -0.7993  0.0550 -0.2365
 6652TIP3    H244152   4.982   2.548   7.281  1.8602  0.8293  0.3754
 6653TIP3   OH244153   2.728   5.237   8.546 -0.3759  0.5389 -0.0294
 6653TIP3    H144154   2.664   5.298   8.582 -2.3856 -1.1916 -0.4742
 6653TIP3    H244155   2.788   5.219   8.619  0.5706  3.2994 -0.0181
 6654TIP3   OH244156   4.686   6.471   7.996  0.1868  0.8654  0.0445
 6654TIP3    H144157   4.703   6.561   7.970  0.2370  0.4274 -1.5662
 6654TIP3    H244158   4.750   6.453   8.064  0.6769  1.8182 -0.1499
 6655TIP3   OH244159   3.424   1.205   7.030 -0.0398 -0.1463  0.1028
 6655TIP3    H144160   3.466   1.207   7.117 -0.9899  0.5275  0.5653
 6655TIP3    H244161   3.341   1.251   7.043 -1.1212 -1.8011 -0.6895
 6656TIP3   OH244162   4.430   5.234   6.948  0.0547 -0.5508 -0.0907
 6656TIP3    H144163   4.396   5.150   6.916 -0.4484 -0.4571  0.1898
 6656TIP3    H244164   4.372   5.257   7.020  0.4931 -0.2010  0.1536
 6657TIP3   OH244165   6.471   4.556   9.410  0.1469  0.0296 -0.3969
 6657TIP3    H144166   6.442   4.475   9.453 -0.4824  1.3509  1.8964
 6657TIP3    H244167   6.389   4.596   9.379  0.3559  0.1720 -0.7583
 6658TIP3   OH244168   3.732   5.972   8.922 -0.1859  0.3894  0.5417
 6658TIP3    H144169   3.697   5.911   8.857 -0.8113  0.1933  1.0567
 6658TIP3    H244170   3.777   6.039   8.871  0.3378 -0.3984 -0.0418
 6659TIP3   OH244171   6.075   4.256   8.131 -0.1985  0.3921 -0.0894
 6659TIP3    H144172   6.028   4.262   8.214 -0.7711 -2.2741 -0.1298
 6659TIP3    H244173   6.007   4.264   8.064 -0.4927 -1.9442 -0.1658
 6660TIP3   OH244174   3.837   3.178   8.326  0.6699 -0.2377 -0.5505
 6660TIP3    H144175   3.745   3.181   8.351  0.8027  0.1862 -0.0815
 6660TIP3    H244176   3.847   3.095   8.280  0.5334 -1.3924  1.3526
 6661TIP3   OH244177   0.901   0.948   9.946  0.2024  0.3422 -1.0266
 6661TIP3    H144178   0.978   0.933   9.890  0.1761 -0.0338 -0.9635
 6661TIP3    H244179   0.856   0.864   9.948  0.7247  0.0558  0.3478
 6662TIP3   OH244180   2.805   4.430   7.415 -0.2012 -0.0940 -0.2662
 6662TIP3    H144181   2.851   4.459   7.493  1.1826  1.4193 -1.5722
 6662TIP3    H244182   2.838   4.486   7.345 -3.3553  0.4427 -1.4982
 6663TIP3   OH244183   2.597   4.736   6.871  0.1077 -0.4237  0.0764
 6663TIP3    H144184   2.608   4.645   6.898 -2.4201 -0.5801  0.7656
 6663TIP3    H244185   2.596   4.786   6.953 -0.0460  0.0375 -0.2039
 6664TIP3   OH244186   0.302   3.850   8.146  0.0644 -1.2720 -0.4838
 6664TIP3    H144187   0.272   3.765   8.178 -0.6488 -0.9949 -0.4097
 6664TIP3    H244188   0.265   3.856   8.058  0.5887 -1.2812 -0.7092
 6665TIP3   OH244189   4.397   1.054   6.834 -0.2357 -0.2948 -0.0559
 6665TIP3    H144190   4.308   1.078   6.810 -0.2062 -0.2176 -0.0879
 6665TIP3    H244191   4.400   1.065   6.929 -0.5950 -1.3941  0.0936
 6666TIP3   OH244192   0.816   3.314   9.695  0.0491 -0.4379  0.0287
 6666TIP3    H144193   0.798   3.323   9.602  2.3874  0.1017 -0.4222
 6666TIP3    H244194   0.776   3.392   9.735  1.4775  0.8352 -0.9431
 6667TIP3   OH244195   3.405   1.511   7.999 -0.1001  0.1262  0.1700
 6667TIP3    H144196   3.379   1.573   8.067  1.9644 -0.3126  1.4535
 6667TIP3    H244197   3.486   1.547   7.964 -0.1420 -0.6386 -0.7548
 6668TIP3   OH244198   0.322   3.668   8.661  0.5269  0.7511  0.5208
 6668TIP3    H144199   0.329   3.714   8.577 -0.5158  0.5299  0.3001
 6668TIP3    H244200   0.246   3.708   8.704 -0.1057 -0.4266  0.5290
 6669TIP3   OH244201   1.619   3.329   9.253 -0.2006 -0.3073  0.3120
 6669TIP3    H144202   1.679   3.400   9.275  0.8267 -1.0737  0.0491
 6669TIP3    H244203   1.587   3.297   9.337  0.6579 -0.6383  0.5259
 6670TIP3   OH244204   2.113   5.026   8.492 -0.0268 -0.6105  0.4303
 6670TIP3    H144205   2.149   5.048   8.406 -0.9441 -0.6491  0.0228
 6670TIP3    H244206   2.077   5.108   8.526 -0.6142 -0.8053  0.3008
 6671TIP3   OH244207   5.647   3.453   8.468  0.2631 -0.0319 -0.3930
 6671TIP3    H144208   5.655   3.381   8.406 -1.2511 -1.3253  0.8166
 6671TIP3    H244209   5.630   3.530   8.414 -0.8855 -1.0865 -1.6137
 6672TIP3   OH244210   1.279   0.811   8.881  0.1573  0.0032 -0.2902
 6672TIP3    H144211   1.230   0.773   8.953  1.1084  0.3802  0.5875
 6672TIP3    H244212   1.367   0.824   8.916 -0.0474  2.8440 -0.5646
 6673TIP3   OH244213   3.536   3.407   7.359  0.3130  0.0816 -0.1867
 6673TIP3    H144214   3.458   3.444   7.402 -0.7024 -1.0506 -0.9817
 6673TIP3    H244215   3.546   3.458   7.279 -0.1914 -0.3432 -0.5363
 6674TIP3   OH244216   0.380   0.799   7.091  0.3413 -0.7113  0.0989
 6674TIP3    H144217   0.340   0.885   7.080 -0.2436 -1.1308 -1.2562
 6674TIP3    H244218   0.468   0.809   7.055  0.9317 -0.2088  1.6320
 6675TIP3   OH244219   2.439   0.640   7.479 -0.2152 -0.1129 -0.0054
 6675TIP3    H144220   2.370   0.595   7.431  0.0231 -0.3677 -0.1101
 6675TIP3    H244221   2.453   0.722   7.431 -0.5060 -0.0148  0.0706
 6676TIP3   OH244222   5.469   3.715   8.013 -0.0710 -0.1790  0.8570
 6676TIP3    H144223   5.379   3.727   7.985  0.1676 -1.4751 -0.6420
 6676TIP3    H244224   5.519   3.779   7.962  0.0141 -0.5175  0.5037
 6677TIP3   OH244225   3.785   6.540   9.078  0.2427 -0.6220 -0.3077
 6677TIP3    H144226   3.751   6.596   9.147 -0.9332  1.7289 -2.5949
 6677TIP3    H244227   3.770   6.590   8.997  0.9325 -3.4466 -2.3485
 6678TIP3   OH244228   2.017   6.488   8.317 -0.0540 -0.3598  0.1980
 6678TIP3    H144229   2.024   6.583   8.327  0.1717 -0.3912  0.3571
 6678TIP3    H244230   1.997   6.475   8.225 -1.9307 -0.0653  0.5170
 6679TIP3   OH244231   3.005   2.919   9.259  0.1235 -1.2558 -0.7063
 6679TIP3    H144232   3.000   3.001   9.308 -0.3249 -1.7251  0.0538
 6679TIP3    H244233   3.026   2.946   9.169  0.8189 -0.3748 -0.2898
 6680TIP3   OH244234   4.284   0.723   8.144  0.1748  0.7580 -0.5091
 6680TIP3    H144235   4.230   0.664   8.197  1.4418  0.2570  0.2723
 6680TIP3    H244236   4.230   0.741   8.067 -0.6597 -0.6205 -0.2938
 6681TIP3   OH244237   0.214   3.939   9.302 -0.9739 -0.2528  0.2056
 6681TIP3    H144238   0.173   3.983   9.228  1.3951  2.1298  0.1529
 6681TIP3    H244239   0.306   3.967   9.299 -0.7072 -0.1867  3.9178
 6682TIP3   OH244240   0.551   5.049   7.095  0.3602 -0.0225 -0.5110
 6682TIP3    H144241   0.470   5.082   7.133 -0.1353 -0.0984 -1.4661
 6682TIP3    H244242   0.547   4.954   7.109  1.1730  0.1393  1.0760
 6683TIP3   OH244243   0.340   6.104   8.202 -0.1946 -0.2519 -0.0474
 6683TIP3    H144244   0.421   6.054   8.192  0.2358  0.4899 -0.3027
 6683TIP3    H244245   0.352   6.181   8.148 -1.7045 -0.8715 -1.3583
 6684TIP3   OH244246   3.085   4.624   7.414 -0.0496 -0.6794  0.8009
 6684TIP3    H144247   3.177   4.609   7.393  0.1908  2.2432 -0.8106
 6684TIP3    H244248   3.042   4.626   7.329 -0.7159  2.4973  1.0821
 6685TIP3   OH244249   6.315   0.869   7.828 -0.0516 -0.2686 -0.1391
 6685TIP3    H144250   6.293   0.782   7.862 -1.0254 -0.2623 -0.7189
 6685TIP3    H244251   6.241   0.893   7.773  1.2572 -0.1048 -1.9273
 6686TIP3   OH244252   0.411   5.930   7.595  0.5684 -0.4894 -0.2019
 6686TIP3    H144253   0.379   5.847   7.630 -0.8504 -0.3411 -1.1071
 6686TIP3    H244254   0.368   5.997   7.648  0.4070 -0.3066 -0.5637
 6687TIP3   OH244255   0.426   5.358   7.589  0.1829 -0.6927  0.1731
 6687TIP3    H144256   0.337   5.377   7.560 -0.3122 -3.2129 -0.1511
 6687TIP3    H244257   0.419   5.349   7.684  0.0240 -1.1926  0.1154
 6688TIP3   OH244258   3.238   0.924   6.346  0.4230  0.0124 -0.6502
 6688TIP3    H144259   3.309   0.988   6.346 -0.7988  1.4430 -0.0440
 6688TIP3    H244260   3.161   0.975   6.319 -0.6324 -1.1669  0.0575
 6689TIP3   OH244261   2.565   4.716   8.108  0.4694 -0.1943  0.8534
 6689TIP3    H144262   2.595   4.726   8.198 -0.2768 -0.4064  1.1361
 6689TIP3    H244263   2.614   4.782   8.059  2.0118 -1.0885  1.1233
 6690TIP3   OH244264   5.312   1.279   6.566 -0.2941  0.1802 -0.2942
 6690TIP3    H144265   5.236   1.220   6.570  0.2668 -0.5321  0.1183
 6690TIP3    H244266   5.387   1.220   6.564  0.2798  0.8869  0.1424
 6691TIP3   OH244267   5.818   1.494   6.934  0.5074 -0.4079 -0.0013
 6691TIP3    H144268   5.875   1.561   6.972  0.5947 -1.3095  1.5651
 6691TIP3    H244269   5.823   1.421   6.997 -3.5207  0.0210  1.0400
 6692TIP3   OH244270   1.456   2.118   9.218  0.1052 -0.3417 -0.4681
 6692TIP3    H144271   1.369   2.098   9.183  0.9327 -4.4677 -0.6099
 6692TIP3    H244272   1.450   2.095   9.311  0.9393 -0.1539 -0.3597
 6693TIP3   OH244273   4.675   0.984   7.840 -0.0413  0.1311 -0.5265
 6693TIP3    H144274   4.675   1.070   7.882  0.7842 -0.3388  0.5024
 6693TIP3    H244275   4.678   0.922   7.913  0.8644 -0.7315 -1.2653
 6694TIP3   OH244276   5.249   1.035   8.567  0.2663  0.1244 -0.2522
 6694TIP3    H144277   5.187   1.107   8.556 -1.4166 -1.3831 -1.2795
 6694TIP3    H244278   5.201   0.968   8.616  1.7016 -0.4189  0.4813
 6695TIP3   OH244279   1.451   4.527   6.249  0.7004  0.6141 -0.0035
 6695TIP3    H144280   1.451   4.622   6.245  0.8888  0.6557  0.9123
 6695TIP3    H244281   1.537   4.501   6.214  0.3453  0.7361 -0.9906
 6696TIP3   OH244282   1.807   3.032   9.315  0.3915 -0.1074  0.0431
 6696TIP3    H144283   1.853   2.948   9.317 -1.0635 -1.0142 -1.8706
 6696TIP3    H244284   1.795   3.052   9.222 -0.0337  1.8232  0.4611
 6697TIP3   OH244285   1.335   2.874   8.654  0.0850 -0.1994 -0.1926
 6697TIP3    H144286   1.386   2.899   8.576 -1.8099 -0.5485 -1.6090
 6697TIP3    H244287   1.339   2.950   8.711  0.2797  0.6471 -1.2990
 6698TIP3   OH244288   5.338   0.769   7.514 -0.2480  0.3023  0.1000
 6698TIP3    H144289   5.348   0.849   7.462  0.3056  0.4878  0.4731
 6698TIP3    H244290   5.411   0.714   7.486  0.1826  0.4913  0.8151
 6699TIP3   OH244291   5.197   2.066   7.269 -0.1344 -0.7258 -0.1418
 6699TIP3    H144292   5.264   2.089   7.206  0.6607  0.7460  1.1799
 6699TIP3    H244293   5.116   2.061   7.218 -0.2403  4.0267 -0.8794
 6700TIP3   OH244294   2.174   5.134   8.230  0.3199 -0.0957  0.1937
 6700TIP3    H144295   2.175   5.200   8.161  0.0134 -0.3205 -0.0244
 6700TIP3    H244296   2.166   5.051   8.184 -0.3004 -0.2217  0.5182
 6701TIP3   OH244297   2.775   5.875   6.560 -0.6173  0.1533  0.3326
 6701TIP3    H144298   2.721   5.808   6.518 -0.5534 -0.6402  1.4754
 6701TIP3    H244299   2.865   5.844   6.549 -0.3854  1.3176 -1.2967
 6702TIP3   OH244300   0.971   1.857   7.354  0.8973 -0.3290  0.2169
 6702TIP3    H144301   1.029   1.858   7.430  0.1659 -0.0996  0.7958
 6702TIP3    H244302   0.884   1.842   7.392  0.0970  2.5484 -0.2600
 6703TIP3   OH244303   4.558   3.045   6.593  0.2520  0.1209 -0.2227
 6703TIP3    H144304   4.621   2.978   6.621  0.5607  0.7214  0.5614
 6703TIP3    H244305   4.506   3.002   6.524  0.7586 -0.7577 -0.0730
 6704TIP3   OH244306   4.658   3.853   9.709  0.2018  0.3379  0.4580
 6704TIP3    H144307   4.668   3.845   9.614  0.1598  2.1443  0.2593
 6704TIP3    H244308   4.567   3.879   9.721  0.6229  1.7201  0.8345
 6705TIP3   OH244309   4.339   3.138   9.113 -0.4037 -0.5222 -0.3105
 6705TIP3    H144310   4.369   3.065   9.168 -0.2620 -0.5209 -0.3835
 6705TIP3    H244311   4.374   3.118   9.026 -1.0163 -0.7615 -0.5081
 6706TIP3   OH244312   4.688   1.828   6.818  0.1121 -0.1111 -0.0217
 6706TIP3    H144313   4.764   1.833   6.759 -0.8614  3.7423 -1.2518
 6706TIP3    H244314   4.630   1.764   6.777  1.9854 -2.0500  0.1749
 6707TIP3   OH244315   2.363   4.708   8.655  0.0155 -0.4320 -0.6946
 6707TIP3    H144316   2.406   4.631   8.618  2.0620  1.1361 -1.7414
 6707TIP3    H244317   2.402   4.718   8.742  0.9182  0.3085 -1.1771
 6708TIP3   OH244318   6.226   2.495  10.575 -0.6781 -0.2006 -0.0531
 6708TIP3    H144319   6.179   2.479  10.657 -0.5168 -2.0145 -0.2774
 6708TIP3    H244320   6.156   2.513  10.511 -0.7542  3.1374  0.7502
 6709TIP3   OH244321   6.233   4.034   9.323 -0.3582 -0.0120  0.6397
 6709TIP3    H144322   6.289   4.064   9.251  1.7119 -0.4673  1.9841
 6709TIP3    H244323   6.250   3.940   9.330 -2.6463 -0.5458  0.0125
 6710TIP3   OH244324   5.746   5.990   8.464  0.4085 -0.3544 -0.2102
 6710TIP3    H144325   5.799   5.984   8.544 -0.1205  1.0010  0.2727
 6710TIP3    H244326   5.656   5.977   8.494  0.2658 -0.4791 -0.6849
 6711TIP3   OH244327   2.947   5.008   6.646 -0.0452  0.4722  0.2584
 6711TIP3    H144328   2.911   5.083   6.600 -0.7336 -0.7705 -1.3410
 6711TIP3    H244329   3.020   5.043   6.697  0.3307  2.0340 -1.2681
 6712TIP3   OH244330   5.023   1.010   7.726  0.1417 -0.4346 -0.0576
 6712TIP3    H144331   5.000   1.085   7.780 -1.5687 -2.0331  1.6309
 6712TIP3    H244332   4.950   1.001   7.665 -0.2222 -1.3139  0.4811
 6713TIP3   OH244333   1.854   3.804   8.919  0.1842  0.1057  0.9762
 6713TIP3    H144334   1.935   3.771   8.880  1.0231  1.8294  1.1547
 6713TIP3    H244335   1.875   3.894   8.946 -1.4648  0.2232  2.0398
 6714TIP3   OH244336   1.118   1.051   8.663  0.1996 -0.5376 -0.0987
 6714TIP3    H144337   1.103   1.045   8.757 -0.0687 -2.3122 -0.2161
 6714TIP3    H244338   1.214   1.052   8.655  0.2512  1.4544  0.2340
 6715TIP3   OH244339   5.422   3.584   9.068  0.2451  0.1018  0.1993
 6715TIP3    H144340   5.346   3.526   9.070 -0.0627  0.4410 -0.7561
 6715TIP3    H244341   5.459   3.571   8.980  0.6131  0.7797  0.2465
 6716TIP3   OH244342   5.921   1.693   9.014 -0.3857 -0.2996  0.0162
 6716TIP3    H144343   5.976   1.626   8.973  1.0746  0.6946  0.2818
 6716TIP3    H244344   5.862   1.722   8.944  1.2598  0.5330 -1.0685
 6717TIP3   OH244345   4.543   0.902   8.560  0.1957  0.5096  0.1904
 6717TIP3    H144346   4.563   0.964   8.489  0.7377  2.2552  1.7825
 6717TIP3    H244347   4.450   0.880   8.546  0.6911 -0.5372 -1.9843
 6718TIP3   OH244348   4.269   5.576   8.967  0.5391  0.8675 -0.3762
 6718TIP3    H144349   4.322   5.515   8.915  1.2628  0.3792  0.8718
 6718TIP3    H244350   4.214   5.621   8.903  0.7635 -0.3246 -1.4557
 6719TIP3   OH244351   2.226   3.696   9.637 -0.1305 -0.6261  0.2606
 6719TIP3    H144352   2.249   3.771   9.583  1.6342 -1.7319 -0.6277
 6719TIP3    H244353   2.265   3.716   9.723  0.3942 -0.5455  0.0098
 6720TIP3   OH244354   6.103   4.529   6.763  0.0486 -0.3881 -0.5756
 6720TIP3    H144355   6.105   4.445   6.809  3.2844  0.2872  0.8216
 6720TIP3    H244356   6.188   4.535   6.720 -0.1706  2.0675 -0.8477
 6721TIP3   OH244357   1.329   0.922   8.215  0.5179  0.0731 -0.1924
 6721TIP3    H144358   1.405   0.968   8.250  1.6089 -2.2125  0.6415
 6721TIP3    H244359   1.356   0.894   8.128  0.1227  0.3479 -0.4088
 6722TIP3   OH244360   4.135   0.294   8.399 -0.2582  0.3948 -0.0390
 6722TIP3    H144361   4.220   0.284   8.442  0.4973  0.0881 -1.5509
 6722TIP3    H244362   4.087   0.215   8.421  0.1208  0.2371  0.2230
 6723TIP3   OH244363   5.389   3.346   7.528 -0.0211 -0.3678  0.3369
 6723TIP3    H144364   5.410   3.265   7.576 -0.6130 -1.2917 -0.9054
 6723TIP3    H244365   5.473   3.390   7.518  0.6566 -1.7915 -0.6433
 6724TIP3   OH244366   5.526   5.676   8.137  0.3631 -0.1301  0.2075
 6724TIP3    H144367   5.449   5.658   8.191 -0.0928  0.7720 -0.1203
 6724TIP3    H244368   5.583   5.729   8.193  0.9086 -1.0528  0.5590
 6725TIP3   OH244369   4.107   1.249   7.744 -0.2275 -0.1346  0.5633
 6725TIP3    H144370   4.069   1.162   7.733  1.9495 -1.2990  1.6024
 6725TIP3    H244371   4.083   1.296   7.665 -1.3946 -1.6931 -0.0638
 6726TIP3   OH244372   1.393   1.290   7.018  0.1981 -0.2040 -0.0581
 6726TIP3    H144373   1.354   1.216   7.063 -0.9928 -0.3818 -1.3015
 6726TIP3    H244374   1.483   1.263   7.001  0.3192 -0.5968  1.1176
 6727TIP3   OH244375   2.188   5.777   7.773 -0.1739  0.2385  0.1550
 6727TIP3    H144376   2.277   5.775   7.808 -0.3705 -0.7866  0.6230
 6727TIP3    H244377   2.167   5.686   7.755 -0.0967  0.6525 -2.6314
 6728TIP3   OH244378   2.811   3.682   8.611  0.3754 -0.0872 -0.1535
 6728TIP3    H144379   2.895   3.670   8.566 -0.5771  0.8588 -2.3607
 6728TIP3    H244380   2.792   3.776   8.600 -1.1343 -0.3532 -0.0488
 6729TIP3   OH244381   4.080   5.445   7.036  0.4264  0.9750 -0.3007
 6729TIP3    H144382   4.161   5.397   7.054  0.3271  0.7145 -0.5368
 6729TIP3    H244383   4.105   5.510   6.970  0.5993  1.3635  0.1461
 6730TIP3   OH244384   3.143   3.110   9.136  0.5463 -0.1786 -0.3015
 6730TIP3    H144385   3.149   3.205   9.122 -1.1251 -0.0135 -0.0881
 6730TIP3    H244386   3.140   3.073   9.048  0.0633  0.0642 -0.3905
 6731TIP3   OH244387   4.345   3.683   6.722  0.3157  0.3751 -0.1946
 6731TIP3    H144388   4.329   3.631   6.643 -0.6622 -0.5890  0.6047
 6731TIP3    H244389   4.424   3.646   6.759 -0.0645 -0.1752  0.0717
 6732TIP3   OH244390   1.284   4.340   7.845  0.3073  0.1208  0.6188
 6732TIP3    H144391   1.198   4.373   7.872 -0.2788 -1.1472  0.3579
 6732TIP3    H244392   1.267   4.291   7.764  1.7079  2.0951 -0.9702
 6733TIP3   OH244393   4.675   5.301   9.326  0.1449  0.1143  0.0685
 6733TIP3    H144394   4.624   5.368   9.371  0.4769  1.0503 -0.9075
 6733TIP3    H244395   4.630   5.219   9.348 -1.3627  0.8323 -0.1651
 6734TIP3   OH244396   1.612   0.914   6.452 -0.3477  0.4704  0.6422
 6734TIP3    H144397   1.533   0.964   6.436 -0.3623  0.1538 -0.2974
 6734TIP3    H244398   1.582   0.824   6.463 -0.1010  0.3057  0.0171
 6735TIP3   OH244399   0.959   4.106   8.138 -0.2732 -0.0881  0.0516
 6735TIP3    H144400   1.011   4.155   8.074 -0.7597  0.4920  0.0858
 6735TIP3    H244401   0.890   4.066   8.085 -1.0211  0.8702  0.2742
 6736TIP3   OH244402   0.508   3.267   8.848  0.3149 -0.1677 -0.3755
 6736TIP3    H144403   0.525   3.240   8.938 -0.7592 -1.1754 -0.4544
 6736TIP3    H244404   0.524   3.362   8.848  2.1373 -0.4237  0.4097
 6737TIP3   OH244405   0.288   1.194   8.993 -0.2961  0.5899  0.2662
 6737TIP3    H144406   0.306   1.187   8.899  0.6190  1.4492  0.3687
 6737TIP3    H244407   0.356   1.252   9.027 -0.0595 -0.4362  1.6317
 6738TIP3   OH244408   4.349   2.911   8.174 -0.1924  0.3102 -0.0743
 6738TIP3    H144409   4.308   2.992   8.206  0.1612  1.1256 -1.5847
 6738TIP3    H244410   4.441   2.919   8.200 -0.4218 -0.2705  0.9721
 6739TIP3   OH244411   1.257   2.069   8.997 -0.2579  0.7413  0.0306
 6739TIP3    H144412   1.204   2.047   9.074  1.0370  1.1144  1.0647
 6739TIP3    H244413   1.312   1.992   8.984 -2.5011 -0.6097 -2.4213
 6740TIP3   OH244414   6.713   4.529   8.755 -0.4941  0.3274  0.1433
 6740TIP3    H144415   6.671   4.598   8.704 -0.1489  1.2685  1.1036
 6740TIP3    H244416   6.800   4.521   8.717 -0.7301 -0.0207 -0.3513
 6741TIP3   OH244417   2.708   0.800   6.795  0.0566  0.3785 -0.4705
 6741TIP3    H144418   2.741   0.834   6.878  2.4469  0.7628 -1.5127
 6741TIP3    H244419   2.764   0.724   6.776 -2.5279 -1.7456 -0.2196
 6742TIP3   OH244420   6.544   6.433   9.376 -0.5503 -0.2740  0.1926
 6742TIP3    H144421   6.477   6.393   9.321 -0.5621 -2.5596  1.7360
 6742TIP3    H244422   6.500   6.447   9.460  0.6022 -0.7505  0.8849
 6743TIP3   OH244423   5.303   6.509   7.158  0.2192 -0.0586 -0.4109
 6743TIP3    H144424   5.349   6.541   7.081 -1.0630  0.4078 -1.0234
 6743TIP3    H244425   5.240   6.578   7.179 -1.2224 -1.2646 -0.5274
 6744TIP3   OH244426   5.563   5.170   8.999 -0.1173  0.9534  0.4690
 6744TIP3    H144427   5.641   5.179   8.943 -0.0996  1.1840  0.5317
 6744TIP3    H244428   5.593   5.118   9.074 -0.6605 -1.3151 -0.7767
 6745TIP3   OH244429   4.003   2.754   9.319 -0.7081 -0.3262  0.0569
 6745TIP3    H144430   4.076   2.704   9.356 -0.7453  1.7207  3.2709
 6745TIP3    H244431   3.982   2.819   9.386 -3.5526  1.1180 -2.0279
 6746TIP3   OH244432   0.997   6.543   6.700 -0.0032  0.1162  0.2837
 6746TIP3    H144433   1.037   6.539   6.787  0.3074  1.1140  0.2056
 6746TIP3    H244434   1.067   6.514   6.640  0.3947  1.1620  0.2147
 6747TIP3   OH244435   0.825   2.915   7.033 -0.4690 -0.4766  0.2916
 6747TIP3    H144436   0.828   2.935   6.939 -0.3550 -2.2359 -0.1213
 6747TIP3    H244437   0.917   2.904   7.058 -0.4898  0.1823  0.6530
 6748TIP3   OH244438   5.973   5.261   7.998  0.5753  0.5599  0.3490
 6748TIP3    H144439   5.904   5.326   7.986  1.0570  1.4661  2.0746
 6748TIP3    H244440   5.928   5.186   8.039  0.1779  0.1356 -0.8412
 6749TIP3   OH244441   3.488   0.621   6.422  0.1183 -0.1918  0.5424
 6749TIP3    H144442   3.567   0.657   6.382  0.5714 -2.6714 -0.9674
 6749TIP3    H244443   3.513   0.604   6.513  1.7030 -1.8066 -0.1313
 6750TIP3   OH244444   1.480   1.602   7.210 -0.2295  0.0008  0.1173
 6750TIP3    H144445   1.412   1.670   7.215  0.5123  0.9588 -1.8577
 6750TIP3    H244446   1.446   1.540   7.145 -1.0238 -1.7607  2.0884
 6751TIP3   OH244447   1.738   3.698   6.913 -0.0019 -0.9979  0.2820
 6751TIP3    H144448   1.739   3.715   7.008  0.1890 -1.1982  0.3148
 6751TIP3    H244449   1.713   3.782   6.875 -0.7788 -1.1017  0.5488
 6752TIP3   OH244450   0.738   0.245   6.487 -0.0774  0.2314 -0.1017
 6752TIP3    H144451   0.661   0.216   6.438 -0.2645  0.3257  0.1344
 6752TIP3    H244452   0.761   0.170   6.542  0.3479 -0.0028 -0.5891
 6753TIP3   OH244453   5.131   3.018   6.479 -0.0009  0.2278 -0.4138
 6753TIP3    H144454   5.120   3.010   6.384  0.1633  1.8653 -0.5999
 6753TIP3    H244455   5.222   3.043   6.491  0.3346 -1.2627  0.2815
 6754TIP3   OH244456   4.750   4.910   7.577  0.4654 -0.7614  0.0584
 6754TIP3    H144457   4.770   4.958   7.496 -0.6383 -1.2024 -0.5093
 6754TIP3    H244458   4.697   4.836   7.548  0.4451 -1.1910  1.1463
 6755TIP3   OH244459   1.403   1.520   6.574  0.1582  0.5261 -0.0083
 6755TIP3    H144460   1.388   1.487   6.485  0.3827 -0.9510  0.4661
 6755TIP3    H244461   1.490   1.486   6.597 -0.1854  0.3155  1.0101
 6756TIP3   OH244462   1.166   0.007   9.440 -0.2261  0.3788  0.8164
 6756TIP3    H144463   1.118   0.074   9.392 -0.4824  0.5053  1.2403
 6756TIP3    H244464   1.103  -0.063   9.455  0.2455 -0.3128 -0.2951
 6757TIP3   OH244465   0.013   4.898   7.564  0.6885  0.1533 -0.1286
 6757TIP3    H144466   0.103   4.909   7.594  0.8922 -0.5751 -0.4587
 6757TIP3    H244467  -0.034   4.865   7.640  0.5587  1.1128  0.2209
 6758TIP3   OH244468   2.242   1.684   6.377 -0.2564 -0.1583  0.0190
 6758TIP3    H144469   2.211   1.762   6.331 -0.3673 -0.8184 -1.0490
 6758TIP3    H244470   2.337   1.685   6.365 -0.3075 -0.4428 -0.3923
 6759TIP3   OH244471   0.315   0.242   8.614  0.0173  0.5878 -0.3273
 6759TIP3    H144472   0.315   0.146   8.604 -1.3196  0.4983  0.3200
 6759TIP3    H244473   0.395   0.270   8.569 -0.2013 -0.7217 -1.6412
 6760TIP3   OH244474   0.865   4.570   6.433  0.5352  0.0649  0.4132
 6760TIP3    H144475   0.818   4.643   6.391  1.0048  0.3623  0.4058
 6760TIP3    H244476   0.940   4.554   6.376  0.9834  0.2367  0.9503
 6761TIP3   OH244477   2.363   0.332   9.975  0.7838 -0.3179  0.1300
 6761TIP3    H144478   2.397   0.260  10.027  0.4299 -0.3181  0.3632
 6761TIP3    H244479   2.433   0.397   9.974  0.3452  0.2212  1.6553
 6762TIP3   OH244480   1.390   2.613   8.736 -0.2368 -0.3045  0.3258
 6762TIP3    H144481   1.411   2.630   8.827  0.6516 -1.2422  0.3167
 6762TIP3    H244482   1.379   2.700   8.697  2.5010  0.2796  0.6392
 6763TIP3   OH244483   2.647   3.929  10.386  0.5162  0.7616 -0.1162
 6763TIP3    H144484   2.689   3.933  10.472 -0.2955  0.8650  0.2887
 6763TIP3    H244485   2.665   4.014  10.346  2.6840 -0.0173 -0.9411
 6764TIP3   OH244486   6.636   4.707   8.283  0.4615  0.1176  0.4416
 6764TIP3    H144487   6.585   4.627   8.286 -1.5095  1.2269 -0.9902
 6764TIP3    H244488   6.593   4.765   8.347 -1.8961  1.9395 -2.5093
 6765TIP3   OH244489   6.719   0.773   7.140 -0.2647  0.1392 -0.1778
 6765TIP3    H144490   6.786   0.765   7.208 -0.5342  0.8532  0.1802
 6765TIP3    H244491   6.746   0.711   7.073 -0.7095 -1.6107  1.1743
 6766TIP3   OH244492   0.577   1.674   6.781 -0.4468  0.0222 -0.0579
 6766TIP3    H144493   0.533   1.755   6.755  2.6334  1.6016 -0.7144
 6766TIP3    H244494   0.618   1.694   6.865  2.5354  0.1308 -1.4333
 6767TIP3   OH244495   0.778   3.008   9.287  0.3381  0.4664 -0.0626
 6767TIP3    H144496   0.870   3.018   9.263  0.0164  0.5768 -1.3549
 6767TIP3    H244497   0.736   3.088   9.255 -0.0228  0.9874  1.6216
 6768TIP3   OH244498   5.101   0.231   7.054 -0.3294 -0.5202 -0.2364
 6768TIP3    H144499   5.082   0.149   7.099  0.7790 -0.1420  0.9870
 6768TIP3    H244500   5.160   0.278   7.113 -1.4269  1.4444 -0.6127
 6769TIP3   OH244501   6.476   0.961   7.339 -0.0102 -0.3012  0.8005
 6769TIP3    H144502   6.568   0.984   7.354 -0.6524  2.0563  1.4783
 6769TIP3    H244503   6.433   0.974   7.423 -1.3582  0.7669 -0.0081
 6770TIP3   OH244504   3.131   2.634   7.211 -0.7989  0.4978  0.5219
 6770TIP3    H144505   3.179   2.714   7.190 -0.0417 -0.1814 -0.4741
 6770TIP3    H244506   3.184   2.590   7.278 -1.0022  0.6352  0.7735
 6771TIP3   OH244507   4.385   2.156   7.483  0.2765 -0.0285  0.5473
 6771TIP3    H144508   4.422   2.238   7.518  1.9063 -0.6246  0.3120
 6771TIP3    H244509   4.391   2.095   7.557  1.5185 -0.6316 -0.0177
 6772TIP3   OH244510   1.067   3.201   7.191 -0.1792  0.0562  0.0498
 6772TIP3    H144511   1.124   3.251   7.132  1.1403  0.8751  1.9271
 6772TIP3    H244512   1.033   3.266   7.252  0.9624 -1.1594  2.0783
 6773TIP3   OH244513   0.624   1.415   8.319  0.6958  0.3389 -0.2624
 6773TIP3    H144514   0.655   1.365   8.243  0.3589 -0.0349 -0.1570
 6773TIP3    H244515   0.694   1.405   8.383  0.1364 -0.9738  0.1779
 6774TIP3   OH244516   6.241   4.064   9.612  0.0932  0.9861 -0.2515
 6774TIP3    H144517   6.238   4.076   9.517 -1.4037 -0.6388 -0.4680
 6774TIP3    H244518   6.291   3.983   9.624  0.9532  1.5957  0.4161
 6775TIP3   OH244519   4.891   5.390   8.563  0.4784  0.0958 -0.0749
 6775TIP3    H144520   4.915   5.380   8.471  1.1574 -3.2526  0.3405
 6775TIP3    H244521   4.798   5.370   8.566  0.3708  0.5933 -0.0796
 6776TIP3   OH244522   3.927   4.747   7.702  0.7996  0.3385 -0.3681
 6776TIP3    H144523   3.953   4.657   7.682 -0.8375 -0.3447  0.3591
 6776TIP3    H244524   3.898   4.783   7.619 -0.7103 -0.6160 -0.3013
 6777TIP3   OH244525   5.718   1.092   6.871 -0.1520 -0.0229  0.3431
 6777TIP3    H144526   5.754   1.120   6.786  0.0672  0.0956  0.4739
 6777TIP3    H244527   5.624   1.086   6.856 -0.0093 -1.1396 -0.2414
 6778TIP3   OH244528   2.993   2.358   8.425 -0.0445 -0.0548 -0.4736
 6778TIP3    H144529   2.974   2.392   8.512  1.1432  0.3339 -0.3576
 6778TIP3    H244530   2.924   2.395   8.369  1.2904  2.7895 -0.4022
 6779TIP3   OH244531   1.047   5.815   8.303 -0.7376  0.1192  0.0922
 6779TIP3    H144532   1.095   5.755   8.247 -2.1337 -0.4710 -0.5236
 6779TIP3    H244533   1.100   5.895   8.304  1.5205 -1.2653  1.4891
 6780TIP3   OH244534   0.436   2.483   7.447  0.8415 -0.4659  0.1743
 6780TIP3    H144535   0.503   2.547   7.421  1.6349 -0.8352  1.2375
 6780TIP3    H244536   0.449   2.410   7.386  0.8755 -0.2008 -0.1397
 6781TIP3   OH244537   1.000   0.061   8.395  0.1455  0.4031 -0.0736
 6781TIP3    H144538   0.997   0.091   8.486  1.3422 -0.5071  0.2953
 6781TIP3    H244539   0.997   0.141   8.343  1.7371  1.1107  0.8438
 6782TIP3   OH244540   4.469   0.694   7.516 -0.5844  0.0571  0.1581
 6782TIP3    H144541   4.443   0.772   7.565  2.8291  2.1737 -1.0714
 6782TIP3    H244542   4.547   0.662   7.561 -0.3615 -1.0306 -0.9385
 6783TIP3   OH244543   3.678   0.083   7.694 -0.2077  0.2640  0.6389
 6783TIP3    H144544   3.611   0.032   7.740 -0.4646  0.2974  0.3047
 6783TIP3    H244545   3.629   0.151   7.647 -0.1122 -0.7437 -0.9958
 6784TIP3   OH244546   5.048   4.744   7.587 -0.6514 -0.0582 -0.0733
 6784TIP3    H144547   4.960   4.706   7.581 -0.8540  0.5060 -0.9554
 6784TIP3    H244548   5.064   4.780   7.500  1.0209 -1.3523 -0.3495
 6785TIP3   OH244549   2.166   5.732   8.433 -0.8031 -0.4188  0.0025
 6785TIP3    H144550   2.102   5.712   8.364  1.2150  1.9141 -2.8510
 6785TIP3    H244551   2.120   5.791   8.493 -2.0280 -0.7275 -0.6139
 6786TIP3   OH244552   6.339   1.423   9.093  0.2454 -0.0847 -0.7953
 6786TIP3    H144553   6.411   1.473   9.131  0.5596 -0.8595 -0.3539
 6786TIP3    H244554   6.334   1.453   9.002  2.1693 -1.1409 -1.2999
 6787TIP3   OH244555   3.981   2.433   6.762  0.2681 -0.3172  0.2143
 6787TIP3    H144556   4.048   2.366   6.749  0.9017  0.1689  0.9216
 6787TIP3    H244557   4.028   2.508   6.800 -0.4148  0.5514 -0.6006
 6788TIP3   OH244558   1.860   3.467   8.166 -0.0964  0.1124  0.0139
 6788TIP3    H144559   1.847   3.446   8.073 -0.9508 -0.4508  0.2543
 6788TIP3    H244560   1.920   3.542   8.164  0.8508 -0.6307 -0.9417
 6789TIP3   OH244561   3.504   2.675   7.131  0.1124 -0.2336 -0.1234
 6789TIP3    H144562   3.414   2.692   7.105  0.6905  0.2705 -1.9710
 6789TIP3    H244563   3.555   2.738   7.080  1.6069 -1.3568 -0.0666
 6790TIP3   OH244564   3.856   2.354   7.363  0.0506 -0.4681  0.0745
 6790TIP3    H144565   3.885   2.383   7.450 -0.8304 -1.4665  0.7288
 6790TIP3    H244566   3.809   2.429   7.327  3.1910  1.1748 -0.9762
 6791TIP3   OH244567   3.784   0.698   6.471 -0.2281  0.2021  0.4813
 6791TIP3    H144568   3.743   0.697   6.557  0.6190 -1.8009  0.9010
 6791TIP3    H244569   3.877   0.690   6.488 -0.0788 -0.7436 -0.6115
 6792TIP3   OH244570   2.180   2.104   8.466  0.6561  0.0628  0.0094
 6792TIP3    H144571   2.127   2.178   8.437  0.0409 -0.8489 -1.2793
 6792TIP3    H244572   2.169   2.102   8.561 -2.3221 -0.5777 -0.2602
 6793TIP3   OH244573   6.532   5.101   9.161 -0.6789  0.0004 -0.2171
 6793TIP3    H144574   6.440   5.122   9.179 -1.6820 -1.4217 -3.0948
 6793TIP3    H244575   6.540   5.009   9.183 -0.3746 -0.2600 -1.3631
 6794TIP3   OH244576   2.896   4.807   8.273  0.3047 -0.1878  0.1606
 6794TIP3    H144577   2.835   4.737   8.295  0.3729  0.4319  2.6325
 6794TIP3    H244578   2.880   4.874   8.340 -0.5368  2.7221 -2.6860
 6795TIP3   OH244579   5.221   4.765   7.870  0.6846  0.1159  0.0674
 6795TIP3    H144580   5.193   4.750   7.779 -1.2540 -0.2509  0.6927
 6795TIP3    H244581   5.254   4.855   7.870  0.5473  0.1797 -0.9624
 6796TIP3   OH244582   3.918   3.098   7.806 -0.3973 -0.3288 -0.4818
 6796TIP3    H144583   3.865   3.137   7.876 -0.4414  0.2717 -0.8475
 6796TIP3    H244584   3.998   3.069   7.850 -1.1397 -1.5356  0.1347
 6797TIP3   OH244585   5.871   6.181   8.246 -0.0342  0.0262  1.1992
 6797TIP3    H144586   5.778   6.191   8.226 -0.2802  1.3106  2.7370
 6797TIP3    H244587   5.899   6.107   8.193 -1.3878  0.9823 -1.0218
 6798TIP3   OH244588   2.381   4.235   9.127  0.3967 -0.4972  0.0004
 6798TIP3    H144589   2.459   4.274   9.166  0.6122 -0.0642 -0.8286
 6798TIP3    H244590   2.400   4.232   9.033 -0.0330 -1.6751 -0.0640
 6799TIP3   OH244591   4.406   3.983   6.896  0.6993  0.2223  0.4302
 6799TIP3    H144592   4.400   3.935   6.979 -0.2083  0.3773  0.4680
 6799TIP3    H244593   4.487   3.952   6.856  0.9605 -0.1261  1.2083
 6800TIP3   OH244594   0.757   4.349   8.656 -0.1838 -0.6757 -0.0497
 6800TIP3    H144595   0.802   4.421   8.700 -1.1640  0.9233 -1.5744
 6800TIP3    H244596   0.670   4.347   8.694 -0.7423  0.1333 -1.2399
 6801TIP3   OH244597   5.236   1.390   9.439  0.5828  0.0240  0.2698
 6801TIP3    H144598   5.221   1.368   9.531  0.6169 -0.8745  0.0629
 6801TIP3    H244599   5.220   1.485   9.435 -0.1669 -0.0552  1.0422
 6802TIP3   OH244600   3.166   6.284   6.348  0.1268 -0.3889  0.2024
 6802TIP3    H144601   3.254   6.312   6.324 -0.3591  1.1886  0.1804
 6802TIP3    H244602   3.108   6.348   6.306 -1.0229 -1.2584  0.4238
 6803TIP3   OH244603   1.979   3.267   9.356 -0.1288 -0.1843 -0.5067
 6803TIP3    H144604   2.024   3.275   9.272  0.8707 -1.6059 -0.1312
 6803TIP3    H244605   1.970   3.173   9.370  0.6779 -0.0212  1.4556
 6804TIP3   OH244606   1.431   4.264   6.864  0.3665 -0.2342 -0.5741
 6804TIP3    H144607   1.343   4.236   6.841  0.7209 -1.0959 -0.8871
 6804TIP3    H244608   1.421   4.305   6.951 -0.3227 -0.3606 -0.5885
 6805TIP3   OH244609   3.156   5.970   9.575 -0.3335  0.1279 -0.3639
 6805TIP3    H144610   3.078   5.952   9.628 -0.5737  0.3376 -0.6397
 6805TIP3    H244611   3.210   6.026   9.630 -0.1872 -0.3611 -0.0101
 6806TIP3   OH244612   0.625   4.086   8.352  0.2381  0.0288 -0.5683
 6806TIP3    H144613   0.591   4.139   8.424  1.9844  1.6679 -0.8688
 6806TIP3    H244614   0.586   4.124   8.273  1.2125  0.6534 -0.7584
 6807TIP3   OH244615   2.255   2.671   7.801 -0.5124  0.3237  0.3943
 6807TIP3    H144616   2.283   2.735   7.866 -0.1927  0.8903 -0.2952
 6807TIP3    H244617   2.176   2.632   7.839 -0.3698  0.6991  1.0901
 6808TIP3   OH244618   4.518   5.557   7.849 -0.4237  0.0326 -0.5086
 6808TIP3    H144619   4.566   5.507   7.914  1.1014  3.0105  0.8608
 6808TIP3    H244620   4.571   5.551   7.769  0.2126  0.1604 -0.1026
 6809TIP3   OH244621   6.502   1.394   8.356  0.3049  0.2128 -0.4153
 6809TIP3    H144622   6.433   1.438   8.306  0.5441 -0.2923 -1.2049
 6809TIP3    H244623   6.583   1.432   8.321  0.4621  0.1074 -0.1627
 6810TIP3   OH244624   3.876   4.875   8.857  0.3591 -0.0420 -0.0065
 6810TIP3    H144625   3.889   4.805   8.793  0.4211  0.4343 -0.5297
 6810TIP3    H244626   3.884   4.956   8.806 -2.9631  0.3593 -0.0958
 6811TIP3   OH244627   0.958   4.633   6.679  0.5376 -0.7616  0.2196
 6811TIP3    H144628   0.915   4.587   6.751  1.9383 -1.1779  0.8303
 6811TIP3    H244629   0.919   4.596   6.600  0.2067 -1.5474  0.7368
 6812TIP3   OH244630   2.803   5.721   8.643  0.1218  0.7007 -0.2426
 6812TIP3    H144631   2.867   5.711   8.573  0.8991  0.7760  0.4472
 6812TIP3    H244632   2.718   5.715   8.599  0.5446 -1.6503 -0.8711
 6813TIP3   OH244633   5.422   4.740   6.913 -0.1582 -0.2852  0.0207
 6813TIP3    H144634   5.411   4.827   6.876  1.3924  0.0544  0.2972
 6813TIP3    H244635   5.379   4.744   6.998 -2.3693 -0.6028 -1.0061
 6814TIP3   OH244636   4.899   5.431   8.275 -0.0269 -0.2211 -0.6434
 6814TIP3    H144637   4.825   5.371   8.261  0.2007 -0.5099 -0.6276
 6814TIP3    H244638   4.951   5.424   8.195  0.0363 -0.0934 -0.6131
 6815TIP3   OH244639   2.274   1.687   8.278  0.2411 -0.3806 -0.3511
 6815TIP3    H144640   2.248   1.722   8.194 -0.0698  2.4911  0.8209
 6815TIP3    H244641   2.193   1.654   8.317  0.6063 -3.0368 -1.6423
 6816TIP3   OH244642   4.030   1.405   6.393 -0.1568 -0.2667  0.3971
 6816TIP3    H144643   4.069   1.473   6.448  2.2118 -1.1215 -0.1032
 6816TIP3    H244644   4.104   1.366   6.348 -1.6821 -1.8444 -0.8664
 6817TIP3   OH244645   4.356   1.058   9.219 -0.5556  0.2181  0.3281
 6817TIP3    H144646   4.391   1.147   9.212  0.7748 -0.0799  2.2666
 6817TIP3    H244647   4.282   1.066   9.279  0.1456 -0.0783  1.2658
 6818TIP3   OH244648   4.306   1.321   6.358 -0.0517 -0.3319  0.7100
 6818TIP3    H144649   4.306   1.228   6.379  1.6058 -0.6878 -0.6367
 6818TIP3    H244650   4.398   1.344   6.349 -0.4504  1.2659  0.2807
 6819TIP3   OH244651   3.629   5.743   7.236 -0.0784  0.0799 -0.5564
 6819TIP3    H144652   3.692   5.803   7.197 -0.6241  0.2038 -1.2599
 6819TIP3    H244653   3.548   5.794   7.242 -1.2986 -1.2763 -3.5402
 6820TIP3   OH244654   0.541   2.871   9.362 -0.3592  0.2697  0.2343
 6820TIP3    H144655   0.600   2.932   9.319 -0.6158  0.3790  0.0344
 6820TIP3    H244656   0.503   2.920   9.435 -3.2771  1.5602 -1.9851
 6821TIP3   OH244657   1.106   4.418   9.050 -0.4784 -0.1020  0.0574
 6821TIP3    H144658   1.155   4.500   9.054 -1.8863  0.8127 -0.6067
 6821TIP3    H244659   1.173   4.350   9.055  0.6751  1.0546  1.3598
 6822TIP3   OH244660   1.926   2.338   7.726 -0.3821 -0.4425 -0.4175
 6822TIP3    H144661   1.915   2.317   7.819  1.7487 -0.6578 -0.1630
 6822TIP3    H244662   1.874   2.417   7.712  0.6032  0.5687  1.3840
 6823TIP3   OH244663   3.891   3.284  10.257 -0.6952 -0.3950  0.2630
 6823TIP3    H144664   3.868   3.377  10.262  0.5756 -0.0733  0.5347
 6823TIP3    H244665   3.961   3.273  10.321 -0.2649 -1.3574 -0.3486
 6824TIP3   OH244666   5.495   2.417  18.068 -0.0586  0.0557  0.2564
 6824TIP3    H144667   5.419   2.360  18.077 -0.5167  0.5917 -0.2059
 6824TIP3    H244668   5.459   2.503  18.048  0.7132  0.0347 -1.3790
 6825TIP3   OH244669   1.688   0.076   6.688 -0.6158 -0.2941  0.5458
 6825TIP3    H144670   1.668   0.143   6.753 -0.0906 -0.7354  1.1867
 6825TIP3    H244671   1.763   0.111   6.639  0.8233 -1.1023  2.0363
 6826TIP3   OH244672   1.099   6.686   7.676  0.2648 -0.6116  0.3953
 6826TIP3    H144673   1.022   6.633   7.654  0.1990  0.2601 -1.6085
 6826TIP3    H244674   1.174   6.632   7.649  0.3010 -0.6799  0.6244
 6827TIP3   OH244675   0.682   2.324   9.848  0.4115  0.6437 -1.4820
 6827TIP3    H144676   0.703   2.357   9.760 -1.5712  0.4666 -2.0710
 6827TIP3    H244677   0.609   2.378   9.877 -1.3656 -1.6032 -1.4766
 6828TIP3   OH244678   2.389   1.433   8.366 -0.2693  0.2677  0.2678
 6828TIP3    H144679   2.376   1.460   8.458 -2.3683  2.2086 -0.4805
 6828TIP3    H244680   2.357   1.508   8.315 -0.4699 -1.3010 -2.0592
 6829TIP3   OH244681   4.765   5.735   7.246 -0.0441 -0.0813  0.3466
 6829TIP3    H144682   4.694   5.774   7.297 -0.2683  1.3062 -0.9583
 6829TIP3    H244683   4.750   5.766   7.157  0.5893 -2.0848 -0.5106
 6830TIP3   OH244684   2.836   5.427   8.308 -0.2554  0.3749 -0.7800
 6830TIP3    H144685   2.899   5.377   8.256 -1.7517 -0.9090 -1.4561
 6830TIP3    H244686   2.846   5.393   8.397  0.5942  0.8151 -0.6952
 6831TIP3   OH244687   4.335   1.219   8.388  0.0340 -0.5062 -0.1401
 6831TIP3    H144688   4.429   1.222   8.400  0.1994 -2.0034 -0.8924
 6831TIP3    H244689   4.316   1.291   8.327  0.4041  0.9802  1.4067
 6832TIP3   OH244690   0.780   1.057   7.615  0.2431  0.4258 -0.2307
 6832TIP3    H144691   0.699   1.013   7.641  0.0029  0.3308 -1.1220
 6832TIP3    H244692   0.827   0.992   7.562  0.2722  0.9456 -0.8550
 6833TIP3   OH244693   4.790   5.485   9.774  0.6311 -0.3947  0.2783
 6833TIP3    H144694   4.717   5.545   9.790  2.2581  1.6744  0.2979
 6833TIP3    H244695   4.812   5.498   9.681  0.6022 -1.4519  0.1131
 6834TIP3   OH244696   4.997   5.209   7.443  0.4517  0.1339  0.4606
 6834TIP3    H144697   5.051   5.167   7.509  0.3060  0.7706  0.9964
 6834TIP3    H244698   4.920   5.153   7.435  1.4884 -1.1949 -0.8502
 6835TIP3   OH244699   1.965   2.796   9.315  0.4162  0.7391 -0.2509
 6835TIP3    H144700   1.944   2.736   9.243  3.3151 -0.3943 -0.2665
 6835TIP3    H244701   1.983   2.739   9.389 -2.1238  1.8796  1.4008
 6836TIP3   OH244702   3.841   6.706   6.600  0.1526 -0.1251  0.2798
 6836TIP3    H144703   3.818   6.775   6.537 -1.1360 -1.3470 -0.6535
 6836TIP3    H244704   3.906   6.652   6.555 -2.0468 -2.0331 -0.8218
 6837TIP3   OH244705   1.537   2.535   9.284  0.4057  0.1115 -0.6029
 6837TIP3    H144706   1.605   2.564   9.345  0.6065 -0.8890 -0.3462
 6837TIP3    H244707   1.585   2.504   9.208  0.1373  2.2298 -1.7156
 6838TIP3   OH244708   1.283   6.081   7.596 -0.2003  0.0248  0.0488
 6838TIP3    H144709   1.192   6.065   7.574 -0.1925 -3.0603  1.6092
 6838TIP3    H244710   1.327   6.093   7.511 -1.8486  0.2768 -0.7967
 6839TIP3   OH244711   1.034   2.333   9.609 -0.0317 -0.1249  0.0455
 6839TIP3    H144712   1.031   2.305   9.517 -0.7982 -1.1947  0.3802
 6839TIP3    H244713   1.028   2.252   9.659  0.4529  0.4442  1.0494
 6840TIP3   OH244714   0.907   4.765   8.600  0.0828  0.2235 -0.0119
 6840TIP3    H144715   0.922   4.843   8.652 -3.2344  1.5733 -0.8412
 6840TIP3    H244716   0.934   4.692   8.657  0.5105  1.8046  1.9016
 6841TIP3   OH244717   0.346   1.648   7.544  0.3040  0.3279 -0.1009
 6841TIP3    H144718   0.265   1.628   7.591  1.2184 -1.8932  0.6672
 6841TIP3    H244719   0.396   1.704   7.605  0.6424 -0.9107  0.8062
 6842TIP3   OH244720   4.960   5.917   7.023 -0.1506 -0.5498 -0.0644
 6842TIP3    H144721   5.042   5.888   7.064 -0.9697 -1.0320  1.2999
 6842TIP3    H244722   4.916   5.967   7.092 -0.4722  0.7575 -1.1756
 6843TIP3   OH244723   5.677   3.276   9.364  0.7458 -0.0644  0.4624
 6843TIP3    H144724   5.584   3.251   9.360  0.7236  0.0096  0.5173
 6843TIP3    H244725   5.716   3.230   9.290  0.7440 -0.4190  0.6759
 6844TIP3   OH244726   6.195   1.036   8.831  0.0953  0.2131  0.1232
 6844TIP3    H144727   6.278   1.072   8.864  0.2555  0.2135 -0.2694
 6844TIP3    H244728   6.186   1.073   8.743 -0.6616  0.7407  0.4158
 6845TIP3   OH244729   2.352   0.177   7.438 -0.4837  0.0165  0.1220
 6845TIP3    H144730   2.352   0.180   7.533  1.9347 -3.2508  0.4108
 6845TIP3    H244731   2.301   0.099   7.416 -1.0810  0.7637 -1.2810
 6846TIP3   OH244732   3.397   5.977   9.266  0.4316 -0.8715 -0.2311
 6846TIP3    H144733   3.473   5.989   9.209  1.0727  1.9981  1.0470
 6846TIP3    H244734   3.421   6.021   9.348 -1.4610 -2.5699  1.3393
 6847TIP3   OH244735   4.766   5.171   8.208 -0.0025 -0.0904  0.0457
 6847TIP3    H144736   4.831   5.157   8.139 -1.1289  0.2517 -1.1411
 6847TIP3    H244737   4.725   5.086   8.220  0.1519 -0.1360  0.2411
 6848TIP3   OH244738   6.037   4.916   7.814 -0.1335 -0.1735  0.2492
 6848TIP3    H144739   6.033   5.002   7.772 -3.4143  0.8288  2.2531
 6848TIP3    H244740   6.043   4.854   7.741 -1.4861  1.6222 -1.5062
 6849TIP3   OH244741   2.474   5.041   8.100 -0.0079 -0.4050  0.5559
 6849TIP3    H144742   2.554   5.052   8.150 -0.3156  0.9601  0.7746
 6849TIP3    H244743   2.437   5.129   8.093 -2.3943 -1.1963  1.9434
 6850TIP3   OH244744   6.014   5.473   7.427 -0.1246 -0.0030  0.1700
 6850TIP3    H144745   5.929   5.467   7.469 -0.3818 -0.3228 -0.3885
 6850TIP3    H244746   6.049   5.557   7.456 -0.1075 -0.4029  1.3605
 6851TIP3   OH244747   2.629   3.487   8.581 -0.2718 -0.2901  0.2283
 6851TIP3    H144748   2.686   3.563   8.570 -1.0496  0.2794  0.0244
 6851TIP3    H244749   2.563   3.496   8.512 -0.2681 -1.2492  0.0888
 6852TIP3   OH244750   4.051   3.387   8.617  0.1988  0.0593 -0.4324
 6852TIP3    H144751   3.967   3.429   8.595 -0.4292 -1.3620 -0.8393
 6852TIP3    H244752   4.093   3.372   8.533  0.4988  0.0227 -0.2753
 6853TIP3   OH244753   6.502   2.602   9.440  0.0979  0.4154  1.1444
 6853TIP3    H144754   6.490   2.555   9.357  0.9824  2.1490 -0.0224
 6853TIP3    H244755   6.578   2.561   9.480  1.8387  1.7547 -0.6114
 6854TIP3   OH244756   5.332   1.138   9.863 -0.1037  0.0838 -0.1986
 6854TIP3    H144757   5.418   1.179   9.851 -0.6208  1.1087 -0.4326
 6854TIP3    H244758   5.342   1.085   9.942  0.2238  1.6401  0.8511
 6855TIP3   OH244759   2.855   2.308   7.708  0.0608 -0.5512  0.3893
 6855TIP3    H144760   2.934   2.332   7.659  0.3598 -0.0764  1.0752
 6855TIP3    H244761   2.849   2.374   7.777 -1.3975 -0.1057 -0.1294
 6856TIP3   OH244762   0.801   4.084   7.912  0.3820  0.3672  0.7515
 6856TIP3    H144763   0.754   4.122   7.837  0.9571  0.1774  0.2881
 6856TIP3    H244764   0.827   3.997   7.882  1.1160  0.5066  0.9642
 6857TIP3   OH244765   5.031   1.095   9.360 -0.3022  0.3511  0.2427
 6857TIP3    H144766   4.975   1.050   9.423  1.2835 -0.9004  0.8480
 6857TIP3    H244767   5.047   1.181   9.398 -1.5269  0.6121  0.2011
 6858TIP3   OH244768   5.064   2.629   9.182  0.4622  0.0502  0.1221
 6858TIP3    H144769   5.124   2.609   9.253  1.3333 -0.1592 -0.6581
 6858TIP3    H244770   5.053   2.725   9.186  0.2099  0.0005  0.7521
 6859TIP3   OH244771   4.135   5.271   8.035  0.2077  0.2734 -0.2248
 6859TIP3    H144772   4.172   5.338   7.977  1.4422 -0.1024  0.0848
 6859TIP3    H244773   4.141   5.310   8.122  1.2668 -0.3557 -0.0009
 6860TIP3   OH244774   0.866   5.327   8.983  0.2028  0.1285  0.1284
 6860TIP3    H144775   0.915   5.249   8.958 -0.9033  0.0259 -1.9834
 6860TIP3    H244776   0.806   5.298   9.051 -0.0735 -0.8350 -0.5139
 6861TIP3   OH244777   1.063   2.916   7.144 -0.3918 -0.3444  0.0240
 6861TIP3    H144778   1.143   2.866   7.127  0.5503  1.2551 -0.4019
 6861TIP3    H244779   1.090   3.008   7.141 -2.7913  0.4554 -3.3587
 6862TIP3   OH244780   4.999   3.452   6.603  0.1301 -0.4874 -0.1260
 6862TIP3    H144781   5.093   3.433   6.598  0.3717  0.4895  0.3564
 6862TIP3    H244782   4.994   3.531   6.658 -1.0159 -0.8524  0.3137
 6863TIP3   OH244783   0.533   5.125   6.491  0.6915  0.2197 -0.5722
 6863TIP3    H144784   0.546   5.197   6.429  0.2851  1.5882  0.8575
 6863TIP3    H244785   0.442   5.133   6.519  0.8606 -0.3665  0.1865
 6864TIP3   OH244786   3.839   3.132  10.014 -0.4929 -0.2923 -0.0944
 6864TIP3    H144787   3.779   3.070  10.055  0.3971  0.3406  2.3409
 6864TIP3    H244788   3.847   3.203  10.077  2.9130 -0.4113 -0.2053
 6865TIP3   OH244789   5.626   0.864   7.092 -0.2344  0.0914  0.2370
 6865TIP3    H144790   5.631   0.904   7.005 -1.2953  0.5899  0.3852
 6865TIP3    H244791   5.715   0.870   7.126  0.4549 -1.1443 -1.2393
 6866TIP3   OH244792   4.027   2.560   6.393 -0.5923 -0.0577 -0.2202
 6866TIP3    H144793   4.092   2.576   6.461  0.1087  0.2961 -0.9541
 6866TIP3    H244794   4.034   2.636   6.335 -0.7923 -0.6064 -0.9769
 6867TIP3   OH244795   6.079   1.232   7.855 -0.4230 -0.8596 -0.6130
 6867TIP3    H144796   6.167   1.226   7.892 -0.8388  0.2096  0.6317
 6867TIP3    H244797   6.034   1.153   7.885 -0.4222 -0.5281  0.2702
 6868TIP3   OH244798   3.164   4.513   9.344 -0.1444  0.4093  0.5201
 6868TIP3    H144799   3.147   4.485   9.255 -1.3875 -1.9873  1.4173
 6868TIP3    H244800   3.077   4.533   9.380 -0.0128 -1.2493  1.9159
 6869TIP3   OH244801   4.599   3.452   9.490  0.4944 -0.1471  0.0088
 6869TIP3    H144802   4.628   3.543   9.498  2.2911 -0.5110 -1.5428
 6869TIP3    H244803   4.575   3.444   9.397  1.7279 -1.5860 -0.2204
 6870TIP3   OH244804   0.154   2.475  11.104  0.5200  0.7486  0.3313
 6870TIP3    H144805   0.063   2.495  11.128  1.0479  0.7158  2.6700
 6870TIP3    H244806   0.147   2.413  11.032 -1.4703 -1.8339  2.5210
 6871TIP3   OH244807   3.498   6.235   8.879  0.0264  0.5865 -0.4070
 6871TIP3    H144808   3.473   6.156   8.832  0.0569 -0.3249  1.0684
 6871TIP3    H244809   3.542   6.204   8.958 -0.3462  2.0675  0.4215
 6872TIP3   OH244810   6.055   3.492   7.048  0.1084 -0.3290  0.1911
 6872TIP3    H144811   6.002   3.423   7.007  1.0777 -1.1175  0.2193
 6872TIP3    H244812   6.140   3.451   7.061  1.0907  1.2609 -0.9292
 6873TIP3   OH244813   6.604   5.825   7.678 -0.2747  0.3726 -0.3591
 6873TIP3    H144814   6.511   5.848   7.668 -0.3523 -0.6105 -2.3887
 6873TIP3    H244815   6.651   5.904   7.652 -0.5378  0.4605 -0.5735
 6874TIP3   OH244816   0.733   5.644   7.465  0.1235  0.1041 -0.0312
 6874TIP3    H144817   0.733   5.581   7.394  3.2719 -0.0396 -0.0315
 6874TIP3    H244818   0.761   5.594   7.542 -0.6409  0.8150  0.7283
 6875TIP3   OH244819   3.640   3.568   9.580  0.2160 -0.1567  0.0161
 6875TIP3    H144820   3.576   3.598   9.644  1.3216 -0.4430  1.3133
 6875TIP3    H244821   3.647   3.641   9.518 -1.6251 -0.2902 -0.3897
 6876TIP3   OH244822   1.077   2.057  10.592  0.2281  0.0344 -0.0243
 6876TIP3    H144823   1.123   2.081  10.511 -0.5554 -1.6325 -1.0030
 6876TIP3    H244824   1.134   2.089  10.661  2.5073 -1.1791 -1.2066
 6877TIP3   OH244825   1.385   4.891   8.427  0.2547 -0.2225 -0.0015
 6877TIP3    H144826   1.433   4.835   8.488  1.5257  0.4284 -0.3516
 6877TIP3    H244827   1.295   4.861   8.431  0.1816  0.1294  2.5973
 6878TIP3   OH244828   3.641   2.489   8.708  0.2387  0.1284  0.5627
 6878TIP3    H144829   3.594   2.495   8.625  0.8864 -1.7371  0.0193
 6878TIP3    H244830   3.579   2.524   8.772 -0.4888  1.0919 -0.6035
 6879TIP3   OH244831   2.874   6.271   6.995 -0.5083 -0.1943  0.2043
 6879TIP3    H144832   2.933   6.209   6.954 -1.7653 -0.0665 -1.9266
 6879TIP3    H244833   2.800   6.218   7.025 -0.6134  0.0023  0.2964
 6880TIP3   OH244834   5.523   3.164   9.648  0.2109 -0.0812  0.1061
 6880TIP3    H144835   5.614   3.193   9.638  1.5507 -2.9033  2.5185
 6880TIP3    H244836   5.530   3.072   9.676 -3.4396 -0.6706 -0.4226
 6881TIP3   OH244837   4.907   4.448   7.087  0.5949  0.3569 -0.2763
 6881TIP3    H144838   4.868   4.529   7.054  1.9849  1.6196  1.0175
 6881TIP3    H244839   4.981   4.477   7.141  0.0751 -1.6719  1.7000
 6882TIP3   OH244840   3.659   2.145   8.753  0.2689 -0.1380  0.0796
 6882TIP3    H144841   3.617   2.090   8.687 -1.6804  0.1632  0.9965
 6882TIP3    H244842   3.645   2.234   8.722  0.4250 -0.0446  0.2757
 6883TIP3   OH244843   0.981   4.719   8.067 -0.4604  0.5705 -0.2640
 6883TIP3    H144844   0.958   4.778   7.996  0.7728  0.7785 -0.5056
 6883TIP3    H244845   0.897   4.686   8.099 -1.5583  4.7184  1.8870
 6884TIP3   OH244846   1.095   0.550   8.979 -0.1562  0.0472 -0.2014
 6884TIP3    H144847   1.058   0.538   8.891 -0.9780 -0.0675  0.1497
 6884TIP3    H244848   1.071   0.469   9.025 -1.3426  0.8671  0.6739
 6885TIP3   OH244849   0.037   6.626   8.838  0.7294 -0.2112 -0.0285
 6885TIP3    H144850  -0.049   6.628   8.880  0.2966 -0.0283 -0.8990
 6885TIP3    H244851   0.064   6.718   8.834 -0.4426  0.1108 -2.5135
 6886TIP3   OH244852   4.099   1.709   7.202  0.2963 -0.0134  0.3375
 6886TIP3    H144853   4.033   1.756   7.151 -0.0588 -1.9029 -1.0482
 6886TIP3    H244854   4.054   1.682   7.282 -0.3516 -0.5000 -0.1872
 6887TIP3   OH244855   6.719   6.070   7.642  0.4517 -0.2690 -0.3299
 6887TIP3    H144856   6.654   6.126   7.684 -0.2305 -0.8152 -0.6434
 6887TIP3    H244857   6.766   6.129   7.582  0.6161  0.2442  0.2956
 6888TIP3   OH244858   6.020   0.291   9.247 -0.2147  0.0186 -0.1826
 6888TIP3    H144859   6.019   0.254   9.159  0.0317 -0.1049 -0.1331
 6888TIP3    H244860   6.026   0.215   9.305  0.9372  0.1558 -0.0994
 6889TIP3   OH244861   5.425   2.422  10.116 -0.4940 -0.6924  0.5516
 6889TIP3    H144862   5.395   2.504  10.156  0.8361 -0.7219  1.6711
 6889TIP3    H244863   5.429   2.360  10.189  0.9527 -1.0407  0.2014
 6890TIP3   OH244864   2.835   5.048   9.315 -0.3902  0.0932 -0.0437
 6890TIP3    H144865   2.781   5.097   9.376  0.0564 -0.7157  1.0367
 6890TIP3    H244866   2.791   4.964   9.306 -0.7651  0.4041 -1.3164
 6891TIP3   OH244867   3.738   5.053   7.606 -0.4975 -0.2314 -0.2713
 6891TIP3    H144868   3.750   5.128   7.548 -2.2855  0.1607 -0.2103
 6891TIP3    H244869   3.697   5.089   7.684 -2.1845 -1.3439 -0.5773
 6892TIP3   OH244870   5.343   0.084   7.619 -0.4904 -0.2982 -0.0164
 6892TIP3    H144871   5.297   0.152   7.667 -0.0133 -1.2019  1.8263
 6892TIP3    H244872   5.273   0.031   7.580 -0.9747 -0.6084  1.2333
 6893TIP3   OH244873   2.632   6.372   7.935  0.1927  0.4490  0.1439
 6893TIP3    H144874   2.666   6.353   7.847 -1.2041 -2.1702  0.0900
 6893TIP3    H244875   2.704   6.352   7.994  0.3368 -0.2205 -0.2566
 6894TIP3   OH244876   2.518   6.625   7.526 -0.3624  0.5124 -0.1040
 6894TIP3    H144877   2.467   6.563   7.579 -1.3491  1.4008  0.0053
 6894TIP3    H244878   2.462   6.643   7.450 -0.4886  1.9598  0.3070
 6895TIP3   OH244879   0.875   2.546   7.790 -0.3733  0.0728 -0.0325
 6895TIP3    H144880   0.811   2.617   7.789 -0.7431 -0.2530  0.1730
 6895TIP3    H244881   0.851   2.491   7.716  0.4063  0.5864 -0.6825
 6896TIP3   OH244882   5.947   1.005   7.895 -0.2141 -0.0769 -0.1128
 6896TIP3    H144883   5.910   0.949   7.964 -0.6311 -0.5099 -0.6759
 6896TIP3    H244884   5.925   0.960   7.813  1.0114 -0.0027 -0.4979
 6897TIP3   OH244885   6.625   5.671   8.330 -0.2706 -0.2330 -0.3723
 6897TIP3    H144886   6.688   5.620   8.280 -1.3751 -1.5400 -0.4692
 6897TIP3    H244887   6.542   5.661   8.283 -1.2903 -1.2899  1.5382
 6898TIP3   OH244888   3.808   6.422   7.219 -0.4391  0.4787  0.4442
 6898TIP3    H144889   3.785   6.483   7.289  0.2449 -1.5613  2.5739
 6898TIP3    H244890   3.724   6.396   7.182 -0.7810  2.0492  0.0180
 6899TIP3   OH244891   1.467   0.475   7.046 -0.4649 -0.2058  0.2905
 6899TIP3    H144892   1.416   0.541   6.999  1.8729  1.2491 -0.4089
 6899TIP3    H244893   1.530   0.444   6.981 -0.1695 -1.6025  1.2168
 6900TIP3   OH244894   1.164   3.938   6.714 -0.4866 -0.0260  0.5174
 6900TIP3    H144895   1.193   4.012   6.660  0.7525  1.1675  2.6635
 6900TIP3    H244896   1.215   3.864   6.682  1.5804  1.0392  1.1451
 6901TIP3   OH244897   6.706   3.169   9.567 -0.0492  0.3734  0.1048
 6901TIP3    H144898   6.777   3.132   9.514 -1.2706 -1.6999 -0.2009
 6901TIP3    H244899   6.661   3.229   9.507 -0.0577 -0.2350 -0.5189
 6902TIP3   OH244900   1.844   2.170   6.660 -0.3504 -0.5695  0.0025
 6902TIP3    H144901   1.915   2.206   6.607 -0.4338 -1.4418 -0.7165
 6902TIP3    H244902   1.773   2.154   6.597 -1.8272  1.7941  0.9165
 6903TIP3   OH244903   6.707   0.419   7.814  0.9817 -0.3760  0.0368
 6903TIP3    H144904   6.792   0.400   7.773  0.8871 -0.2331 -0.2219
 6903TIP3    H244905   6.712   0.375   7.900  0.1971 -2.8762 -1.1015
 6904TIP3   OH244906   1.080   0.244   7.643  0.2382  0.2037 -0.1821
 6904TIP3    H144907   1.129   0.249   7.561  1.6683 -1.5844  0.5084
 6904TIP3    H244908   1.047   0.155   7.647 -1.1574  0.7143  0.4872
 6905TIP3   OH244909   2.166   0.855   7.035 -0.5349 -0.4452  0.3172
 6905TIP3    H144910   2.111   0.789   6.994 -0.3201 -1.3171  1.3526
 6905TIP3    H244911   2.243   0.806   7.065  0.7487  0.7007 -0.9457
 6906TIP3   OH244912   2.890   4.698   7.969 -0.3531 -0.5678 -0.1634
 6906TIP3    H144913   2.973   4.718   7.926  0.3395 -3.4405 -0.3745
 6906TIP3    H244914   2.901   4.731   8.059  0.0052  1.2750 -0.8358
 6907TIP3   OH244915   1.934   2.725   8.168  0.2313  0.3287  0.1033
 6907TIP3    H144916   1.878   2.785   8.118  0.9454 -0.7228 -2.0880
 6907TIP3    H244917   1.875   2.655   8.196  0.1300  0.0411 -0.8036
 6908TIP3   OH244918   2.183   3.911   8.576 -0.0188 -0.3243  0.1277
 6908TIP3    H144919   2.151   3.991   8.618  0.2691  1.3123 -2.5445
 6908TIP3    H244920   2.251   3.878   8.635  0.1019  1.5854  1.1368
 6909TIP3   OH244921   3.893   1.938   9.578 -0.2537 -0.0216 -0.0819
 6909TIP3    H144922   3.867   1.998   9.648 -2.4451  0.8371 -1.5137
 6909TIP3    H244923   3.983   1.963   9.557  0.4137 -0.2111  2.2540
 6910TIP3   OH244924   5.045   6.302   8.116 -0.6266 -0.2501 -0.8382
 6910TIP3    H144925   5.018   6.341   8.033 -1.2436  1.2389  0.0314
 6910TIP3    H244926   5.134   6.337   8.131 -2.2772  3.7005  1.4783
 6911TIP3   OH244927   2.198   4.211   9.622 -1.0390  0.5900  0.4156
 6911TIP3    H144928   2.184   4.187   9.713 -0.3902  0.4136  0.4731
 6911TIP3    H244929   2.258   4.285   9.625  0.2828 -0.4253  0.0878
 6912TIP3   OH244930   0.649   3.857   8.561  0.1778 -0.8001 -0.3093
 6912TIP3    H144931   0.715   3.926   8.573  2.2215 -2.2557 -2.1919
 6912TIP3    H244932   0.583   3.896   8.504  1.0176 -0.2205 -0.9060
 6913TIP3   OH244933   1.619   2.057   7.275 -0.0652 -0.1436 -0.4640
 6913TIP3    H144934   1.651   1.968   7.287  0.0560  0.1246  1.4096
 6913TIP3    H244935   1.572   2.054   7.191  3.4468 -0.9385 -2.6451
 6914TIP3   OH244936   5.251   1.739   8.942 -0.2958  0.0817  0.4238
 6914TIP3    H144937   5.291   1.797   9.007  0.9391 -0.3757  0.0881
 6914TIP3    H244938   5.184   1.794   8.901  1.2559  1.5237 -0.3320
 6915TIP3   OH244939   5.290   1.019   8.952 -0.1150 -0.1278  0.3020
 6915TIP3    H144940   5.281   0.947   9.014 -0.3470  1.3749  2.1122
 6915TIP3    H244941   5.252   1.095   8.997  0.3073  1.1961 -1.4257
 6916TIP3   OH244942   4.253   2.399   7.059 -0.0206  0.2712  0.1025
 6916TIP3    H144943   4.217   2.402   7.147  0.1628  1.0411  0.1531
 6916TIP3    H244944   4.198   2.336   7.013  0.0558 -0.3521  0.8356
 6917TIP3   OH244945   0.258   4.363   7.473 -0.4275 -0.0117  0.2421
 6917TIP3    H144946   0.209   4.410   7.406 -1.0823 -1.1869 -0.1269
 6917TIP3    H244947   0.323   4.426   7.503 -0.5780  0.7753 -0.9927
 6918TIP3   OH244948   1.355   6.249   7.355 -0.6914 -0.2878 -0.2843
 6918TIP3    H144949   1.421   6.302   7.310 -0.2891 -0.1779  0.4214
 6918TIP3    H244950   1.272   6.273   7.313 -0.6907  1.8282  0.8321
 6919TIP3   OH244951   6.352   5.990   6.547 -0.1249  1.1005  0.0172
 6919TIP3    H144952   6.410   6.063   6.525 -0.2122  0.5254 -2.3944
 6919TIP3    H244953   6.264   6.023   6.529 -0.1433  0.3539 -1.4278
 6920TIP3   OH244954   2.675   3.248  10.006 -0.1401  0.2428 -0.4555
 6920TIP3    H144955   2.768   3.269  10.002 -0.3737  1.4914  0.3151
 6920TIP3    H244956   2.642   3.263   9.917 -0.3267  3.4725  0.0405
 6921TIP3   OH244957   2.909   5.166   9.056  0.6696  0.1942 -0.1009
 6921TIP3    H144958   2.897   5.158   9.151  3.1031 -0.9721  0.1736
 6921TIP3    H244959   2.927   5.259   9.043 -1.0314  0.6302  0.3474
 6922TIP3   OH244960   6.427   4.415   6.738  0.1042  0.1110  0.2089
 6922TIP3    H144961   6.436   4.323   6.716 -1.7006 -0.2307  0.7073
 6922TIP3    H244962   6.515   4.452   6.727  0.6025 -1.3862 -1.1932
 6923TIP3   OH244963   5.383   2.253   8.549 -0.0087 -0.8751  0.2731
 6923TIP3    H144964   5.393   2.346   8.530 -2.5074 -0.6187 -0.2101
 6923TIP3    H244965   5.469   2.224   8.579  0.5405  1.8332  1.5596
 6924TIP3   OH244966   2.508   2.410   7.219  0.2951 -0.3411  0.1164
 6924TIP3    H144967   2.521   2.492   7.171  0.6569  1.0437  2.4026
 6924TIP3    H244968   2.415   2.392   7.211  0.1452  0.4978 -0.1546
 6925TIP3   OH244969   3.540   0.569   6.694  0.6619  0.4702  0.4181
 6925TIP3    H144970   3.564   0.661   6.702 -0.0299  0.5627  1.7696
 6925TIP3    H244971   3.623   0.522   6.697  0.8970  0.8860  3.1335
 6926TIP3   OH244972   4.343   6.183   9.450  0.3286  0.2942 -0.6856
 6926TIP3    H144973   4.428   6.200   9.489 -0.6920 -0.9604  2.4027
 6926TIP3    H244974   4.291   6.260   9.472  0.2759  0.4789 -1.4214
 6927TIP3   OH244975   3.161   1.706   8.842  0.0200  0.3245  0.6598
 6927TIP3    H144976   3.246   1.667   8.859  0.0042  0.6475  1.5079
 6927TIP3    H244977   3.165   1.734   8.750  0.1917 -1.2263  0.1695
 6928TIP3   OH244978   1.543   6.056   6.335  0.2813 -0.2150  0.6908
 6928TIP3    H144979   1.553   6.084   6.244  0.7851  0.4482  0.9442
 6928TIP3    H244980   1.497   6.129   6.377  1.3569  0.1262  1.2968
 6929TIP3   OH244981   1.709   1.410   9.746  0.1754 -0.2849  0.4922
 6929TIP3    H144982   1.709   1.420   9.651  0.2616  0.5503  0.5694
 6929TIP3    H244983   1.616   1.404   9.770  0.1061  0.4709  0.4388
 6930TIP3   OH244984   0.430   6.315   8.445  0.0890  0.6724 -0.0197
 6930TIP3    H144985   0.487   6.261   8.390  0.8034  1.3155  0.0697
 6930TIP3    H244986   0.453   6.291   8.535  0.4500  1.1571  0.0212
 6931TIP3   OH244987   1.966   6.708   9.167 -0.1139  0.4192 -0.0985
 6931TIP3    H144988   1.899   6.775   9.178 -0.1107  0.3767  0.1774
 6931TIP3    H244989   1.923   6.640   9.115 -0.2294  0.4716 -0.0711
 6932TIP3   OH244990   4.433   5.925   6.707  0.6650 -0.3667 -0.0756
 6932TIP3    H144991   4.493   5.853   6.724 -0.0763 -0.7208  1.2031
 6932TIP3    H244992   4.347   5.884   6.701  0.4326  0.2236 -1.0896
 6933TIP3   OH244993   0.605   1.472   9.521 -0.1442  0.2936  0.4684
 6933TIP3    H144994   0.537   1.496   9.458  0.4191 -2.7113 -1.4954
 6933TIP3    H244995   0.594   1.378   9.533  3.0660 -0.1533  0.7710
 6934TIP3   OH244996   0.201   1.772   8.262 -0.6027  0.0611 -0.3681
 6934TIP3    H144997   0.239   1.846   8.309 -1.2055 -0.3247  0.7800
 6934TIP3    H244998   0.167   1.715   8.331  1.5023 -2.2596 -1.0818
 6935TIP3   OH244999   2.217   2.619   7.231 -0.5638 -0.9800  0.1989
 6935TIP3    H145000   2.262   2.635   7.148  0.2056 -2.1960  0.3691
 6935TIP3    H245001   2.183   2.530   7.224  0.9199 -1.7300  1.7918
 6936TIP3   OH245002   4.650   6.253   7.159  0.2164  0.2662  0.3987
 6936TIP3    H145003   4.600   6.266   7.239 -2.4526  1.4082 -1.3249
 6936TIP3    H245004   4.599   6.188   7.110  1.8351 -0.4656 -0.3937
 6937TIP3   OH245005   2.773   0.319   8.383 -0.6026 -0.0464  0.0563
 6937TIP3    H145006   2.740   0.348   8.468  0.9304 -1.7703  1.3260
 6937TIP3    H245007   2.839   0.383   8.359 -0.6636  0.1559  0.4307
 6938TIP3   OH245008   5.696   5.341   7.246  0.0250  0.0055  0.1793
 6938TIP3    H145009   5.644   5.263   7.233 -0.4774  0.3856 -0.1078
 6938TIP3    H245010   5.782   5.319   7.211 -0.7768  0.3798 -2.1922
 6939TIP3   OH245011   0.347   5.216   8.805 -0.3328  0.1123 -0.1612
 6939TIP3    H145012   0.352   5.211   8.900 -1.2347 -3.4067 -0.1589
 6939TIP3    H245013   0.401   5.292   8.782  0.8820  0.3744  3.0341
 6940TIP3   OH245014   5.937   2.448   9.177  0.3716 -0.1119  0.2529
 6940TIP3    H145015   5.982   2.527   9.209  2.6257 -0.5558 -1.5655
 6940TIP3    H245016   6.005   2.382   9.172 -0.7786 -1.2426 -1.3733
 6941TIP3   OH245017   3.717   4.001   7.957  0.4232  0.3351 -0.2067
 6941TIP3    H145018   3.749   3.969   7.873 -2.5304 -0.7560 -1.0438
 6941TIP3    H245019   3.686   4.090   7.939  0.9108  0.5649  0.0587
 6942TIP3   OH245020   6.415   6.634   8.282  0.5018 -0.1966 -0.3700
 6942TIP3    H145021   6.476   6.706   8.265 -1.6734  1.5686 -1.3156
 6942TIP3    H245022   6.352   6.639   8.210 -0.1216 -2.6913 -0.0921
 6943TIP3   OH245023   0.170   5.849   8.124  0.1097 -0.0728 -0.4212
 6943TIP3    H145024   0.106   5.919   8.138 -0.2297 -0.5837  0.6327
 6943TIP3    H245025   0.217   5.842   8.207  1.7948  0.5305 -1.2890
 6944TIP3   OH245026   6.645   1.355   6.930  0.3155 -0.2188  0.1563
 6944TIP3    H145027   6.701   1.352   7.008 -0.5712  2.4175  0.9933
 6944TIP3    H245028   6.649   1.266   6.895  3.4903 -0.6226  1.2132
 6945TIP3   OH245029   0.603   5.061   8.059  0.2143  0.6063  0.3306
 6945TIP3    H145030   0.523   5.107   8.035  1.2305  2.1710 -0.2270
 6945TIP3    H245031   0.573   4.980   8.101 -1.6737 -0.1367 -2.1939
 6946TIP3   OH245032   3.553   3.392   8.086 -0.2389 -0.3704 -0.4368
 6946TIP3    H145033   3.514   3.306   8.104  0.3525 -0.5509  0.0124
 6946TIP3    H245034   3.507   3.452   8.145 -0.0736 -0.5248 -0.1484
 6947TIP3   OH245035   3.234   1.365   7.558  0.4530  0.2553  0.0954
 6947TIP3    H145036   3.248   1.387   7.651 -1.3157  0.5238  0.3240
 6947TIP3    H245037   3.297   1.420   7.512  1.8685 -0.3984  1.1539
 6948TIP3   OH245038   5.067   4.469   6.683 -0.0226  0.2708 -0.2628
 6948TIP3    H145039   5.149   4.447   6.727  1.7366 -0.3392 -3.5294
 6948TIP3    H245040   5.068   4.564   6.675  1.2285  0.1610 -1.7039
 6949TIP3   OH245041   5.565   4.055   8.025  0.6074  0.6470 -0.1532
 6949TIP3    H145042   5.639   4.001   7.995  0.0848  1.1657 -2.5149
 6949TIP3    H245043   5.494   4.036   7.964 -1.3491  0.0661  2.1211
 6950TIP3   OH245044   3.073   1.614   7.375 -0.1506 -0.1579 -0.4849
 6950TIP3    H145045   3.024   1.645   7.451 -2.2515  0.2148 -1.9175
 6950TIP3    H245046   3.165   1.634   7.397 -0.6155 -0.3835  2.0547
 6951TIP3   OH245047   3.325   4.410  10.095  0.2217 -0.1069  0.8152
 6951TIP3    H145048   3.322   4.331  10.041  0.3041 -0.2098  0.9617
 6951TIP3    H245049   3.369   4.475  10.040 -1.8945  0.5434 -0.2399
 6952TIP3   OH245050   1.383   1.624   6.871 -0.4676  0.0653  0.6508
 6952TIP3    H145051   1.409   1.587   6.786 -2.5822  0.3179 -0.1654
 6952TIP3    H245052   1.465   1.654   6.910  0.7028 -1.0937 -0.7869
 6953TIP3   OH245053   3.778   5.960   7.164  0.0590  0.0710 -0.1032
 6953TIP3    H145054   3.790   6.036   7.108  0.9982  0.0282  0.0237
 6953TIP3    H245055   3.863   5.914   7.162 -0.5440 -1.0759 -0.3314
 6954TIP3   OH245056   4.693   4.275   6.453 -0.2028  0.3851 -0.1391
 6954TIP3    H145057   4.611   4.307   6.415  0.3983  2.4706  0.1791
 6954TIP3    H245058   4.665   4.214   6.521 -1.7651  3.2347  2.0107
 6955TIP3   OH245059   5.876   4.178   6.918 -0.1545  0.3013  0.1196
 6955TIP3    H145060   5.946   4.241   6.907  2.2075 -1.9751  0.9160
 6955TIP3    H245061   5.920   4.093   6.918 -2.7773 -1.2177  1.7247
 6956TIP3   OH245062   0.624   5.311   9.171  0.2041  0.2723  0.1437
 6956TIP3    H145063   0.537   5.271   9.161  0.8590 -1.1929 -0.0322
 6956TIP3    H245064   0.613   5.373   9.243 -1.3311  1.2010 -0.8348
 6957TIP3   OH245065   0.136   2.208   8.794 -0.1525  0.1699 -0.3240
 6957TIP3    H145066   0.223   2.167   8.790 -0.1889  0.1477 -2.8070
 6957TIP3    H245067   0.096   2.172   8.872  1.0342 -2.0329 -0.6415
 6958TIP3   OH245068   6.459   4.510   7.307  0.2866  0.5663  0.2710
 6958TIP3    H145069   6.377   4.494   7.355 -0.1824 -0.0144 -0.6810
 6958TIP3    H245070   6.439   4.483   7.217  1.4452  0.6955 -0.0375
 6959TIP3   OH245071   1.054   0.189   8.638  0.1746  0.4731  0.0075
 6959TIP3    H145072   1.113   0.167   8.710  1.2401 -0.3038 -1.0529
 6959TIP3    H245073   1.098   0.261   8.593  0.2276  0.0219 -0.6746
 6960TIP3   OH245074   3.292   1.480   8.600 -0.2543  0.2711 -0.5794
 6960TIP3    H145075   3.359   1.548   8.606 -0.2976  0.2391  0.5082
 6960TIP3    H245076   3.287   1.444   8.688 -0.5090 -0.8878 -1.0519
 6961TIP3   OH245077   2.427   4.402   9.707  0.3467 -0.6764  0.4170
 6961TIP3    H145078   2.347   4.454   9.711  0.4768 -0.5604  2.0333
 6961TIP3    H245079   2.493   4.461   9.671  0.1273 -0.2007  0.7908
 6962TIP3   OH245080   2.730   6.328   8.672  0.1740 -0.3885 -0.3907
 6962TIP3    H145081   2.655   6.271   8.657  1.0408 -1.3325 -1.3114
 6962TIP3    H245082   2.693   6.408   8.711 -1.3602 -0.5930 -1.3740
 6963TIP3   OH245083   3.584   3.169   8.402 -0.4147 -0.5745 -0.3530
 6963TIP3    H145084   3.513   3.154   8.339  0.1180 -0.2611 -1.0412
 6963TIP3    H245085   3.563   3.112   8.475 -1.7362  0.0091 -0.2529
 6964TIP3   OH245086   0.857   6.073   6.617 -0.3017  0.6022  0.2802
 6964TIP3    H145087   0.790   6.115   6.563 -0.5066  0.0858  0.1171
 6964TIP3    H245088   0.860   6.125   6.697 -1.0078  0.5508  0.3468
 6965TIP3   OH245089   2.294   2.453   6.871 -0.0212 -0.0467 -0.0708
 6965TIP3    H145090   2.285   2.538   6.916 -0.2892  0.9329 -1.8757
 6965TIP3    H245091   2.389   2.441   6.863  0.0195  0.1106  0.1519
 6966TIP3   OH245092   1.408   0.053   9.540 -0.7153 -0.0498 -0.4993
 6966TIP3    H145093   1.404   0.132   9.594 -0.1066 -0.7627  0.6239
 6966TIP3    H245094   1.317   0.030   9.525 -0.8964  0.4118 -0.1349
 6967TIP3   OH245095   5.810   6.008   7.150 -0.2575 -0.6684 -0.5537
 6967TIP3    H145096   5.780   6.062   7.076 -1.9650 -0.4186  0.2802
 6967TIP3    H245097   5.745   6.023   7.218  1.2015 -1.0244  0.9655
 6968TIP3   OH245098   5.058   4.576   8.177 -0.3413  0.5319 -0.8082
 6968TIP3    H145099   5.128   4.594   8.113 -0.2854  0.8451 -0.6600
 6968TIP3    H245100   4.990   4.533   8.126 -0.2856  0.7565 -1.0775
 6969TIP3   OH245101   5.184   2.962   8.222 -0.2402 -0.0183 -0.7028
 6969TIP3    H145102   5.139   2.880   8.201 -0.3738  0.1833 -1.2398
 6969TIP3    H245103   5.126   3.031   8.189  0.5822  0.2384 -1.7059
 6970TIP3   OH245104   4.500   1.402   6.808  0.5154  0.0853 -0.1434
 6970TIP3    H145105   4.536   1.349   6.879 -1.0756 -0.6627  0.1358
 6970TIP3    H245106   4.413   1.428   6.838  0.1795  0.5464 -1.4394
 6971TIP3   OH245107   2.573   5.370   8.724  0.8319 -0.3299 -0.4442
 6971TIP3    H145108   2.503   5.435   8.711 -0.0411 -1.3249 -0.8384
 6971TIP3    H245109   2.628   5.409   8.792  0.0146  0.5749 -0.2647
 6972TIP3   OH245110   3.933   0.192   7.626  0.0822  0.3865 -0.9357
 6972TIP3    H145111   3.919   0.287   7.626  0.6038  0.5115  1.2567
 6972TIP3    H245112   3.848   0.155   7.651 -0.0109  0.2806 -1.3931
 6973TIP3   OH245113   4.353   2.774   7.805  0.2864  0.0272 -0.2001
 6973TIP3    H145114   4.301   2.704   7.765 -0.6179  0.5759  0.0029
 6973TIP3    H245115   4.391   2.733   7.883 -1.3410  0.1098  0.6817
 6974TIP3   OH245116   0.036   5.038   8.559 -0.3606  0.3979  0.2523
 6974TIP3    H145117  -0.047   5.029   8.513  0.3116 -1.9663 -0.6406
 6974TIP3    H245118   0.013   5.034   8.652 -1.2192 -1.3067  0.0118
 6975TIP3   OH245119   3.723   0.346   9.253 -0.5274 -0.1814 -0.2813
 6975TIP3    H145120   3.741   0.310   9.166  0.4952  2.1689 -1.1393
 6975TIP3    H245121   3.803   0.329   9.303 -0.5528 -0.2882 -0.2789
 6976TIP3   OH245122   0.539   0.450   8.082 -0.1744  0.3748 -0.1285
 6976TIP3    H145123   0.609   0.386   8.092 -0.2508  0.3097  0.0015
 6976TIP3    H245124   0.460   0.397   8.071 -0.7842  0.3422  3.3373
 6977TIP3   OH245125   3.847   0.435   6.413 -0.4389 -0.1431 -0.1606
 6977TIP3    H145126   3.934   0.441   6.451  0.0559  1.8037 -1.4764
 6977TIP3    H245127   3.820   0.525   6.400 -2.4816 -0.7012 -0.2449
 6978TIP3   OH245128   4.219   4.997   8.021  0.1001  0.3055  0.4595
 6978TIP3    H145129   4.144   4.938   8.021  0.0802  0.3308  0.5781
 6978TIP3    H245130   4.182   5.084   8.038  0.0170  0.4998 -0.6391
 6979TIP3   OH245131   1.840   6.421   7.657  0.0858  0.7734 -0.2233
 6979TIP3    H145132   1.889   6.346   7.690  0.1658  1.1841  0.6059
 6979TIP3    H245133   1.809   6.467   7.735 -0.8895  1.0038 -0.7290
 6980TIP3   OH245134   5.500   2.418   7.308  0.2674  0.3318  0.5190
 6980TIP3    H145135   5.521   2.326   7.323  1.7642  0.1213 -2.1639
 6980TIP3    H245136   5.413   2.417   7.269 -0.2543  0.2004  1.6565
 6981TIP3   OH245137   3.286   3.355   9.090 -0.5753 -0.1463  0.0219
 6981TIP3    H145138   3.261   3.396   9.173 -0.3651 -2.1481  1.1533
 6981TIP3    H245139   3.382   3.346   9.096 -0.5327 -0.1030 -0.5472
 6982TIP3   OH245140   2.644   2.743   8.119  0.4879  0.1168 -0.1191
 6982TIP3    H145141   2.662   2.680   8.189  1.1400 -0.7003 -0.9912
 6982TIP3    H245142   2.691   2.709   8.043 -0.6507  0.6747 -1.1188
 6983TIP3   OH245143   6.396   3.250   6.927  0.2036  0.2570  0.3402
 6983TIP3    H145144   6.328   3.271   6.863  1.5524 -2.0785 -2.0325
 6983TIP3    H245145   6.369   3.297   7.006 -2.6031  1.7094 -1.3147
 6984TIP3   OH245146   6.203   2.077   9.223  0.5081 -0.5233  0.2379
 6984TIP3    H145147   6.238   2.051   9.138  1.7754  0.7529  0.3368
 6984TIP3    H245148   6.253   2.024   9.286  0.5224 -0.4771  0.2648
 6985TIP3   OH245149   6.588   2.970   6.584 -0.0332 -0.4157 -0.3179
 6985TIP3    H145150   6.635   2.896   6.622  1.0790 -0.6331 -2.0184
 6985TIP3    H245151   6.630   2.984   6.499 -0.9700  1.4480 -0.5191
 6986TIP3   OH245152   0.383   3.826   8.426 -0.1099  0.3733  0.3818
 6986TIP3    H145153   0.325   3.898   8.452  1.1350  2.8028 -2.9581
 6986TIP3    H245154   0.389   3.833   8.331  1.4375 -3.1819  0.0717
 6987TIP3   OH245155   5.218   0.749   8.184 -0.1188 -0.3869  0.3254
 6987TIP3    H145156   5.164   0.814   8.139  1.3427  1.9415  1.6963
 6987TIP3    H245157   5.277   0.715   8.117  1.4295  2.3664  0.1519
 6988TIP3   OH245158   6.366   2.282   6.852 -0.1967 -0.0677 -0.2612
 6988TIP3    H145159   6.439   2.277   6.914 -0.4102  1.2076  0.1108
 6988TIP3    H245160   6.317   2.202   6.866  1.0172 -0.8708 -0.3830
 6989TIP3   OH245161   5.022   1.684   7.146 -0.2161 -0.2610 -0.3352
 6989TIP3    H145162   4.932   1.652   7.133 -1.1301  1.2481  1.6605
 6989TIP3    H245163   5.011   1.776   7.169  1.8804 -0.0001 -0.2575
 6990TIP3   OH245164   3.131   5.187   6.853 -0.9155  0.2857 -0.3921
 6990TIP3    H145165   3.116   5.281   6.862  1.3256  0.6333  0.3162
 6990TIP3    H245166   3.128   5.154   6.943  1.2027  0.2107 -0.3174
 6991TIP3   OH245167   6.024   2.681   7.555 -0.3773  0.1015 -0.4776
 6991TIP3    H145168   5.969   2.624   7.501  0.2106 -1.1924  0.2542
 6991TIP3    H245169   6.114   2.658   7.532 -0.1270  0.3275  0.2366
 6992TIP3   OH245170   3.955   4.597   8.253 -0.6772 -0.1939 -0.3546
 6992TIP3    H145171   3.868   4.615   8.216 -0.6726  0.3876 -0.1082
 6992TIP3    H245172   3.982   4.681   8.291 -0.0699 -0.4087 -0.2982
 6993TIP3   OH245173   0.146   5.207   6.952  0.1949 -0.6421  0.1164
 6993TIP3    H145174   0.188   5.250   6.878  0.2409 -1.2448 -0.2134
 6993TIP3    H245175   0.061   5.250   6.960  0.0569 -0.7992 -0.4916
 6994TIP3   OH245176   3.236   0.222   7.306  0.1674  0.1771 -0.3391
 6994TIP3    H145177   3.226   0.138   7.351 -3.3199  1.1250  0.9484
 6994TIP3    H245178   3.225   0.201   7.214 -0.2429 -0.8421 -0.0729
 6995TIP3   OH245179   0.029   2.886   9.256  0.1720 -0.1970 -0.5964
 6995TIP3    H145180  -0.048   2.908   9.204  0.6161  0.9994 -0.7824
 6995TIP3    H245181   0.077   2.968   9.264  0.3042 -0.4041  1.4085
 6996TIP3   OH245182   0.950   4.832   7.154  0.2540 -0.4556 -0.1556
 6996TIP3    H145183   0.881   4.839   7.220  0.6770 -0.4196  0.2863
 6996TIP3    H245184   1.028   4.807   7.203  0.5321 -0.6161 -0.6685
 6997TIP3   OH245185   2.725   2.474   6.583  0.2415  0.2665  0.1069
 6997TIP3    H145186   2.709   2.383   6.557 -1.5730  0.5821 -0.0454
 6997TIP3    H245187   2.646   2.521   6.554  0.6121  1.6659  1.2436
 6998TIP3   OH245188   5.092   4.544   9.824 -0.7136  0.2979  0.0871
 6998TIP3    H145189   5.046   4.591   9.894 -0.5297  0.8071 -0.1265
 6998TIP3    H245190   5.113   4.458   9.861  0.2326  0.9050  0.9951
 6999TIP3   OH245191   5.038   4.110   7.283 -0.2204  0.0256 -0.2955
 6999TIP3    H145192   4.980   4.122   7.208 -1.2261 -3.6810 -0.3169
 6999TIP3    H245193   5.120   4.080   7.246  0.1592  0.7136 -0.0231
 7000TIP3   OH245194   0.479   4.439   8.779 -0.4756 -0.0267 -0.0807
 7000TIP3    H145195   0.461   4.351   8.811 -1.1365 -0.5186 -1.6693
 7000TIP3    H245196   0.403   4.461   8.725  0.8782  0.4029 -1.9129
 7001TIP3   OH245197   0.611   1.268   7.697 -0.3262  0.2248 -0.2886
 7001TIP3    H145198   0.682   1.212   7.664 -1.8976 -0.9414 -1.9226
 7001TIP3    H245199   0.551   1.207   7.740 -0.5593  1.1344  0.7040
 7002TIP3   OH245200   5.925   3.455   7.289  0.2291  0.2869  0.2023
 7002TIP3    H145201   5.905   3.537   7.335  1.6868  0.3349  0.7894
 7002TIP3    H245202   5.963   3.483   7.205 -2.9319  0.2136 -1.4364
 7003TIP3   OH245203   5.402   5.959   7.978  0.0135 -0.3279 -0.1251
 7003TIP3    H145204   5.464   5.939   8.048  0.3850  1.9495  0.2830
 7003TIP3    H245205   5.455   5.958   7.898  0.1115 -0.5808 -0.0558
 7004TIP3   OH245206   5.620   2.289   9.583 -0.0502 -0.3766 -0.2846
 7004TIP3    H145207   5.677   2.251   9.649 -0.2462 -0.0704  0.0686
 7004TIP3    H245208   5.566   2.216   9.552  0.8249 -0.7643 -0.9442
 7005TIP3   OH245209   1.517   1.761   8.055  0.8482 -0.2967 -0.5789
 7005TIP3    H145210   1.513   1.673   8.017  2.7935  0.6787 -3.3069
 7005TIP3    H245211   1.432   1.799   8.035  0.4716 -1.0807 -0.5357
 7006TIP3   OH245212   3.229   0.262   8.940 -0.3213 -0.0146  0.5065
 7006TIP3    H145213   3.303   0.212   8.974  0.3512  0.9090  0.4283
 7006TIP3    H245214   3.254   0.354   8.951 -0.7109  0.3143 -1.1349
 7007TIP3   OH245215   1.313   4.277   6.310 -0.0003  0.2924  0.4177
 7007TIP3    H145216   1.374   4.349   6.300  1.2039 -0.7984 -0.3868
 7007TIP3    H245217   1.342   4.211   6.247 -1.2799 -0.7517  0.8611
 7008TIP3   OH245218   4.198   5.586   6.821  0.0702  0.4528 -0.6591
 7008TIP3    H145219   4.268   5.584   6.756  0.3438 -0.8710 -0.3686
 7008TIP3    H245220   4.123   5.548   6.776  0.7086 -2.0715  0.2047
 7009TIP3   OH245221   1.561   2.865  10.176  0.3205 -0.5519  0.7061
 7009TIP3    H145222   1.469   2.842  10.182 -0.1431  1.0205  0.0411
 7009TIP3    H245223   1.566   2.929  10.105  1.7042  0.4587  1.6525
 7010TIP3   OH245224   2.210   1.195   8.657 -0.0921  0.1984 -0.1438
 7010TIP3    H145225   2.294   1.188   8.702 -0.6531  1.1295  1.1096
 7010TIP3    H245226   2.158   1.254   8.712 -1.6805 -0.6005 -0.7076
 7011TIP3   OH245227   1.922   5.015   7.172 -0.6317  1.0641  0.6418
 7011TIP3    H145228   1.883   4.997   7.087 -0.0734 -0.4316  0.6738
 7011TIP3    H245229   2.000   5.066   7.152 -0.1863  0.2277  0.1810
 7012TIP3   OH245230   3.368   4.927   7.191 -0.0591  0.4536 -0.4332
 7012TIP3    H145231   3.374   4.874   7.112 -1.6796 -0.3807 -0.0530
 7012TIP3    H245232   3.338   4.866   7.259 -1.7290  1.7593  0.0787
 7013TIP3   OH245233   2.235   6.628   7.982  0.1168 -0.0934 -0.4304
 7013TIP3    H145234   2.277   6.663   8.061  0.6685  0.7628 -1.0735
 7013TIP3    H245235   2.183   6.701   7.949  1.1238  0.0995 -1.6896
 7014TIP3   OH245236   5.879   2.174   7.611  0.3961 -0.5653  0.4061
 7014TIP3    H145237   5.809   2.170   7.677  0.1197  1.2215  0.2904
 7014TIP3    H245238   5.861   2.255   7.563  0.6443 -1.7538 -1.8210
 7015TIP3   OH245239   6.573   5.664   8.595  0.2709  0.1822 -0.4536
 7015TIP3    H145240   6.587   5.653   8.501  0.1729  0.7930 -0.5451
 7015TIP3    H245241   6.642   5.724   8.623 -0.1235  0.5579 -0.2699
 7016TIP3   OH245242   4.693   0.209   6.530  0.0561 -0.7878  0.0273
 7016TIP3    H145243   4.785   0.199   6.556 -0.0683  1.3167  1.5135
 7016TIP3    H245244   4.670   0.124   6.491  2.9762 -0.9498 -1.6353
 7017TIP3   OH245245   5.810   4.429   9.720 -0.0425  0.3138 -0.0214
 7017TIP3    H145246   5.758   4.433   9.800 -0.3374  1.5346 -0.2606
 7017TIP3    H245247   5.899   4.448   9.748 -0.1535  0.7881  0.0117
 7018TIP3   OH245248   3.872   2.315   8.212  0.4775 -0.3346  0.1872
 7018TIP3    H145249   3.903   2.268   8.134  2.9077  1.2236  0.1081
 7018TIP3    H245250   3.888   2.407   8.192 -2.4223  0.4503  1.0894
 7019TIP3   OH245251   3.069   2.742   8.132  0.5326 -0.0052  0.4853
 7019TIP3    H145252   3.021   2.665   8.100 -3.5825  2.4948 -0.0718
 7019TIP3    H245253   3.057   2.739   8.227  1.1618 -0.4746  0.5568
 7020TIP3   OH245254   0.248   1.121   8.498 -0.2504 -0.3428 -0.2700
 7020TIP3    H145255   0.205   1.078   8.572  2.0373 -0.0310  1.3680
 7020TIP3    H245256   0.212   1.210   8.498  0.8731  0.1642  1.5766
 7021TIP3   OH245257   0.985   1.481   7.641  0.2182 -0.1279 -0.3374
 7021TIP3    H145258   0.987   1.385   7.641 -0.8187 -0.1775 -2.0282
 7021TIP3    H245259   1.071   1.506   7.608 -0.3068 -0.5666 -2.1636
 7022TIP3   OH245260   3.783   6.299   9.530 -0.4583 -0.2599  0.0718
 7022TIP3    H145261   3.805   6.393   9.527  0.2058 -0.4312 -1.7473
 7022TIP3    H245262   3.703   6.295   9.582 -1.0787  1.4554 -0.6720
 7023TIP3   OH245263   0.063   1.648   8.667  0.4380  0.1044  0.1447
 7023TIP3    H145264   0.083   1.632   8.760  2.8836  1.5162 -0.0466
 7023TIP3    H245265   0.149   1.661   8.626 -0.6727  1.3193 -1.9753
 7024TIP3   OH245266   3.551   0.579   7.547  0.6350 -0.6187 -0.1381
 7024TIP3    H145267   3.485   0.523   7.506  0.9308 -0.1144 -1.3450
 7024TIP3    H245268   3.521   0.668   7.529  0.0612 -0.3404  1.9352
 7025TIP3   OH245269   1.911   5.359   7.901  0.0589 -0.0248  0.9827
 7025TIP3    H145270   1.913   5.266   7.878 -0.2673  0.5115 -1.4909
 7025TIP3    H245271   1.818   5.382   7.899  0.2024  0.5483  0.6112
 7026TIP3   OH245272   0.931   1.926   6.453  0.6259  0.3547 -0.2819
 7026TIP3    H145273   0.925   1.831   6.446  1.4841  0.2235  0.4663
 7026TIP3    H245274   0.847   1.953   6.490  0.4023 -0.1179 -0.4354
 7027TIP3   OH245275   3.793   5.144   6.920  0.0849 -0.0366 -0.1221
 7027TIP3    H145276   3.862   5.132   6.984  1.0461 -0.5206 -1.2152
 7027TIP3    H245277   3.728   5.076   6.941 -0.1204  0.4815  0.9586
 7028TIP3   OH245278   0.989   1.287   7.193  0.0699  0.5090 -0.2145
 7028TIP3    H145279   0.920   1.312   7.255 -0.8821 -1.4635 -0.4077
 7028TIP3    H245280   1.015   1.370   7.152 -2.1174  1.3375 -0.0538
 7029TIP3   OH245281   1.593   4.193   9.677  0.4339  0.1536  0.2142
 7029TIP3    H145282   1.641   4.263   9.633  0.1040 -0.3860 -1.0175
 7029TIP3    H245283   1.502   4.208   9.654  0.1254  0.4620  1.5595
 7030TIP3   OH245284   2.890   2.599  10.079  0.0006  0.1483 -0.1889
 7030TIP3    H145285   2.919   2.556  10.160  2.0590  0.1287 -0.8682
 7030TIP3    H245286   2.922   2.542  10.009 -0.6624  0.8067 -1.0439
 7031TIP3   OH245287   5.364   5.335   7.517 -0.5153 -0.5870 -0.5108
 7031TIP3    H145288   5.422   5.316   7.443  1.4647  1.0583  0.5105
 7031TIP3    H245289   5.361   5.431   7.521  1.2946 -0.5267  2.8136
 7032TIP3   OH245290   0.271   2.537   8.765 -0.3910 -0.5671  0.1551
 7032TIP3    H145291   0.263   2.467   8.700 -0.9216 -0.7700  0.4281
 7032TIP3    H245292   0.362   2.534   8.793  0.2266  0.4534 -1.6001
 7033TIP3   OH245293   3.688   4.589   6.778 -0.6475 -0.3689 -0.5340
 7033TIP3    H145294   3.634   4.510   6.788 -0.9525 -0.0722  0.3218
 7033TIP3    H245295   3.626   4.656   6.749 -0.3175 -0.5243 -1.6129
 7034TIP3   OH245296   4.558   3.147   7.917  0.2735  0.0710  0.0246
 7034TIP3    H145297   4.621   3.144   7.990 -0.4275  3.8465  1.0114
 7034TIP3    H245298   4.574   3.066   7.869  2.3687 -1.5462  3.0562
 7035TIP3   OH245299   2.874   4.111   7.939  0.3507  0.4334  0.2169
 7035TIP3    H145300   2.927   4.035   7.962  0.4596  0.8141  1.2889
 7035TIP3    H245301   2.922   4.186   7.975 -0.2666  0.9077  0.0771
 7036TIP3   OH245302   2.353   1.208   7.143  0.1594 -0.5157 -0.3028
 7036TIP3    H145303   2.279   1.247   7.097 -0.6851 -1.1824  0.4341
 7036TIP3    H245304   2.405   1.282   7.174 -0.2549 -0.0344 -0.7533
 7037TIP3   OH245305   3.750   1.645   6.583 -0.4021 -0.3368 -0.0212
 7037TIP3    H145306   3.754   1.585   6.509 -0.3958 -0.3247 -0.0307
 7037TIP3    H245307   3.672   1.699   6.566 -0.3542 -0.2795 -0.0612
 7038TIP3   OH245308   3.073   3.502  15.024  0.1354  0.1575 -0.3132
 7038TIP3    H145309   3.019   3.428  15.052  1.1285  0.3422  2.3558
 7038TIP3    H245310   3.157   3.463  15.001  0.3539  0.3460  0.1581
 7039TIP3   OH245311   6.537   0.295   6.374 -0.1158 -0.2078  0.4727
 7039TIP3    H145312   6.533   0.347   6.293  1.3209  0.2808  0.6942
 7039TIP3    H245313   6.481   0.219   6.356  0.7983 -0.5088 -1.2795
 7040TIP3   OH245314   3.532   2.629   7.417  0.9076 -0.4107  0.0978
 7040TIP3    H145315   3.515   2.637   7.323  1.5186 -0.4218 -0.0196
 7040TIP3    H245316   3.626   2.646   7.426  0.3146  3.2446  1.1150
 7041TIP3   OH245317   5.947   1.002   9.131  0.0502 -0.7228  0.0934
 7041TIP3    H145318   5.945   1.089   9.170  3.0614 -1.4221  2.1311
 7041TIP3    H245319   5.888   0.950   9.186  0.5551 -0.6217  0.7385
 7042TIP3   OH245320   3.230   2.511   9.651 -0.2654 -0.7353  0.2193
 7042TIP3    H145321   3.230   2.506   9.746 -0.9653 -2.0441  0.1796
 7042TIP3    H245322   3.271   2.429   9.623  0.5569 -0.0634 -0.6134
 7043TIP3   OH245323   3.575   2.622   9.269  0.1596  0.4009 -0.4828
 7043TIP3    H145324   3.590   2.713   9.243 -0.1771  0.7063  0.3498
 7043TIP3    H245325   3.489   2.623   9.312 -0.0041 -0.3764 -0.7714
 7044TIP3   OH245326   0.434   4.764   8.793 -0.0486  0.6433 -0.4051
 7044TIP3    H145327   0.474   4.686   8.754  1.5430  1.5078 -0.5899
 7044TIP3    H245328   0.347   4.735   8.819  0.8585 -1.4982  0.5212
 7045TIP3   OH245329   3.270   1.202   6.353 -0.6435 -0.4258 -0.7453
 7045TIP3    H145330   3.181   1.234   6.340 -0.1126  0.5188 -2.3508
 7045TIP3    H245331   3.299   1.243   6.435 -1.5728 -0.5255 -0.3619
 7046TIP3   OH245332   0.556   5.707   8.963  0.2885 -0.2331 -0.4835
 7046TIP3    H145333   0.592   5.795   8.952 -1.6857  0.8885  1.1724
 7046TIP3    H245334   0.585   5.680   9.051 -0.5525 -0.4697 -0.2660
 7047TIP3   OH245335   0.356   5.731   8.734 -0.0192  0.1563  0.0674
 7047TIP3    H145336   0.377   5.653   8.682  0.2301  0.1500  0.1750
 7047TIP3    H245337   0.418   5.728   8.808 -0.3571  0.1748  0.3544
 7048TIP3   OH245338   2.689   6.224   8.301  0.4646  0.3618  0.0191
 7048TIP3    H145339   2.708   6.136   8.335  0.2563  0.3998  0.2364
 7048TIP3    H245340   2.748   6.282   8.349 -0.1776  0.4777  0.6816
 7049TIP3   OH245341   5.412   4.682   7.199  0.5352 -0.1852  0.2024
 7049TIP3    H145342   5.434   4.596   7.163 -1.6916 -0.1061 -1.5066
 7049TIP3    H245343   5.488   4.736   7.179  0.6163 -0.9295 -1.7148
 7050TIP3   OH245344   3.456   6.718   8.108  0.2958  0.6494 -0.2696
 7050TIP3    H145345   3.388   6.652   8.123  1.1487 -0.5972 -1.6496
 7050TIP3    H245346   3.473   6.715   8.014 -0.6138  3.8807 -0.6837
 7051TIP3   OH245347   4.627   3.959   8.933  0.0638 -0.1043  0.4666
 7051TIP3    H145348   4.602   3.959   8.840  1.2604 -1.8269  0.0940
 7051TIP3    H245349   4.715   3.997   8.934 -0.6288  1.5609  1.1579
 7052TIP3   OH245350   4.610   4.521   9.651  0.5077 -0.3224 -0.0199
 7052TIP3    H145351   4.619   4.527   9.556  1.8570 -1.4021  0.0118
 7052TIP3    H245352   4.672   4.585   9.686  3.0754 -2.6636  0.1112
 7053TIP3   OH245353   6.353   2.205   8.744  0.3303  0.8029  0.8523
 7053TIP3    H145354   6.383   2.296   8.737  0.0526  0.9684  1.6000
 7053TIP3    H245355   6.420   2.153   8.701  1.0895  1.2668  1.4503
 7054TIP3   OH245356   4.508   6.338   7.685  0.1168  0.8494  0.3662
 7054TIP3    H145357   4.428   6.293   7.660  0.8023 -1.0364  1.3338
 7054TIP3    H245358   4.480   6.409   7.742 -0.8232 -0.7585  2.0200
 7055TIP3   OH245359   4.958   1.016   8.654  0.0165  0.4973  0.6426
 7055TIP3    H145360   4.893   1.011   8.723 -0.0948  0.8976  0.5729
 7055TIP3    H245361   5.001   1.101   8.669  0.6222  0.1749  0.7802
 7056TIP3   OH245362   5.911   3.300   6.933  0.2189  0.6623 -0.4212
 7056TIP3    H145363   5.832   3.270   6.977  0.2500  1.0461 -0.0997
 7056TIP3    H245364   5.884   3.318   6.843 -0.3341  1.8969 -0.0303
 7057TIP3   OH245365   0.826   3.242   8.926 -0.7110 -0.4790  0.2508
 7057TIP3    H145366   0.804   3.275   8.839  0.8408  0.2868  0.1315
 7057TIP3    H245367   0.920   3.227   8.924 -0.4267  0.7470  2.1843
 7058TIP3   OH245368   1.067   4.057   7.497 -0.3499 -0.2607  0.8590
 7058TIP3    H145369   1.110   4.010   7.568  0.2547  0.7840  1.2078
 7058TIP3    H245370   1.080   4.002   7.420  0.8814 -0.3807  1.1336
 7059TIP3   OH245371   2.578   3.037   7.335  0.2530  0.4563 -0.1807
 7059TIP3    H145372   2.517   3.104   7.367 -1.8488 -0.5688 -1.8099
 7059TIP3    H245373   2.526   2.984   7.275  1.7060 -2.8595  1.2152
 7060TIP3   OH245374   4.534   4.634   7.711 -0.2031 -0.7040  0.0314
 7060TIP3    H145375   4.473   4.577   7.664 -0.8096  1.2685 -1.6755
 7060TIP3    H245376   4.478   4.689   7.766  0.3347 -1.1573  1.0815
 7061TIP3   OH245377   6.219   2.471   7.784 -0.1456  0.0830 -0.7748
 7061TIP3    H145378   6.213   2.413   7.860 -0.1961 -0.1615 -0.9627
 7061TIP3    H245379   6.135   2.516   7.781 -0.5308 -0.6523 -1.2759
 7062TIP3   OH245380   1.900   4.288   6.773 -0.0499  0.1467 -0.0371
 7062TIP3    H145381   1.952   4.285   6.853 -2.3630 -0.2882  1.5586
 7062TIP3    H245382   1.816   4.324   6.801 -1.0408 -0.3247 -2.2189
 7063TIP3   OH245383   0.476   1.441   6.864 -0.0734 -0.1787  0.6178
 7063TIP3    H145384   0.558   1.397   6.842  0.3624 -0.4208  2.5505
 7063TIP3    H245385   0.488   1.531   6.834  0.1361 -0.6533 -0.8001
 7064TIP3   OH245386   5.220   5.362   6.797  0.1662 -0.2375  0.1196
 7064TIP3    H145387   5.291   5.329   6.741  0.7503 -2.3298  1.9282
 7064TIP3    H245388   5.187   5.284   6.842 -4.0061  0.4431 -1.2928
 7065TIP3   OH245389   0.793   5.124   7.639 -0.4142 -0.5453  0.2691
 7065TIP3    H145390   0.712   5.104   7.591 -0.2035 -0.6169 -0.0566
 7065TIP3    H245391   0.784   5.075   7.721 -1.0751  0.1134  0.5975
 7066TIP3   OH245392   2.257   3.431   9.270  0.9331 -0.0005 -0.5085
 7066TIP3    H145393   2.328   3.439   9.333  0.7625 -0.3021 -0.2774
 7066TIP3    H245394   2.240   3.337   9.263 -0.2000  0.1321  0.3001
 7067TIP3   OH245395   4.369   2.770   9.167 -0.0770  0.4616 -0.1338
 7067TIP3    H145396   4.410   2.694   9.126  0.8816 -0.0370  1.6320
 7067TIP3    H245397   4.283   2.776   9.127 -0.5966 -2.2269  0.3870
 7068TIP3   OH245398   4.286   0.345   7.843 -0.4387 -0.2277 -0.2763
 7068TIP3    H145399   4.194   0.363   7.861 -0.0920  0.2052  1.1756
 7068TIP3    H245400   4.285   0.298   7.760 -1.7633  1.9197 -1.5586
 7069TIP3   OH245401   6.328   4.328   9.473 -0.1422  0.0912 -0.6537
 7069TIP3    H145402   6.339   4.269   9.398 -0.1140  0.9463 -1.3354
 7069TIP3    H245403   6.356   4.276   9.548 -0.6226 -0.9492 -1.1661
 7070TIP3   OH245404   4.298   1.738   6.848  0.7890 -0.6206  0.3829
 7070TIP3    H145405   4.237   1.666   6.834  0.4385 -0.1432 -0.6343
 7070TIP3    H245406   4.354   1.736   6.770  1.8454 -0.8155  1.1194
 7071TIP3   OH245407   4.668   2.432   9.190  0.0631  0.0096 -0.3862
 7071TIP3    H145408   4.640   2.342   9.205 -1.6719  0.8876  2.5855
 7071TIP3    H245409   4.638   2.479   9.268  0.5794  3.2388 -1.9837
 7072TIP3   OH245410   0.328   4.246   6.487  0.3198 -0.1458 -0.1331
 7072TIP3    H145411   0.383   4.288   6.553  0.7528  0.4648 -0.8657
 7072TIP3    H245412   0.386   4.231   6.412 -0.2774 -0.3679 -0.5612
 7073TIP3   OH245413   5.574   5.496   6.569 -0.0575 -0.1489 -0.0330
 7073TIP3    H145414   5.607   5.538   6.648  1.7106  0.6043 -1.1139
 7073TIP3    H245415   5.621   5.538   6.498 -0.7352 -1.6268 -1.4226
 7074TIP3   OH245416   5.489   5.154   8.357  0.5747  0.1648  0.5777
 7074TIP3    H145417   5.519   5.211   8.286 -2.7895  0.0071 -1.1746
 7074TIP3    H245418   5.530   5.069   8.339  1.9879  0.8407  0.5106
 7075TIP3   OH245419   1.977   3.263   7.333 -0.1924 -0.1059 -0.0328
 7075TIP3    H145420   2.065   3.297   7.316  0.3821  0.4220  3.3901
 7075TIP3    H245421   1.931   3.335   7.375 -1.3447 -1.2647  0.7569
 7076TIP3   OH245422   2.251   5.647   6.929  0.2233  0.1693  0.4898
 7076TIP3    H145423   2.260   5.570   6.873  2.6000  1.7717 -1.5943
 7076TIP3    H245424   2.157   5.654   6.947 -0.1555 -2.5861 -0.0859
 7077TIP3   OH245425   4.969   6.684   8.322  0.9037 -0.3381 -0.1920
 7077TIP3    H145426   4.898   6.621   8.311 -0.9872  1.7633 -0.8500
 7077TIP3    H245427   5.027   6.669   8.247 -0.3286 -0.3374 -1.1615
 7078TIP3   OH245428   1.130   1.113   6.469  0.6683 -0.1325 -0.5615
 7078TIP3    H145429   1.104   1.062   6.393 -1.9643  0.7147 -0.3296
 7078TIP3    H245430   1.109   1.057   6.544  0.3692  0.2031 -0.3892
 7079TIP3   OH245431   2.812   4.635   7.715  0.0706  0.3441  0.2322
 7079TIP3    H145432   2.853   4.666   7.796  0.5419 -0.5990  0.3742
 7079TIP3    H245433   2.790   4.543   7.733 -0.4984  0.3376 -0.4566
 7080TIP3   OH245434   1.900   3.086   8.130  0.1707 -0.4036  0.0396
 7080TIP3    H145435   1.984   3.046   8.150  0.5915  0.9300  1.1140
 7080TIP3    H245436   1.916   3.180   8.137 -0.9848 -0.0489 -1.5178
 7081TIP3   OH245437   1.330   6.176   8.236  0.2829 -0.0164 -0.3697
 7081TIP3    H145438   1.236   6.193   8.242  0.0201 -0.6477 -2.1314
 7081TIP3    H245439   1.371   6.261   8.254 -0.6190  0.3311  0.1249
 7082TIP3   OH245440   3.099   2.474   6.982  0.0205 -0.2276 -0.7049
 7082TIP3    H145441   3.109   2.524   7.063 -0.6888 -1.8946  0.4642
 7082TIP3    H245442   3.182   2.486   6.937  0.9680 -0.3351  0.9145
 7083TIP3   OH245443   5.614   2.915   7.882 -0.1494 -0.2048 -0.3012
 7083TIP3    H145444   5.609   2.859   7.804 -0.7452  1.0321 -1.1850
 7083TIP3    H245445   5.666   2.990   7.854  1.1235 -0.5616  1.0435
 7084TIP3   OH245446   2.689   4.085   7.466 -0.4429  0.2624 -0.0920
 7084TIP3    H145447   2.752   4.038   7.520  0.3606  1.9869  0.5770
 7084TIP3    H245448   2.621   4.113   7.528 -0.0781  1.3117 -0.1379
 7085TIP3   OH245449   1.911   5.846   9.572  0.2047  0.2557  0.2463
 7085TIP3    H145450   1.875   5.906   9.507 -2.3212 -0.6399  0.6844
 7085TIP3    H245451   1.991   5.813   9.533  0.1465  1.7329 -1.2306
 7086TIP3   OH245452   6.430   3.750   8.445 -0.3794  0.4874  0.2042
 7086TIP3    H145453   6.337   3.764   8.430 -0.5854  1.2265  1.9812
 7086TIP3    H245454   6.435   3.700   8.527  0.7957  1.7166  0.9376
 7087TIP3   OH245455   3.767   3.543   8.191  0.1139  0.0969 -0.0185
 7087TIP3    H145456   3.700   3.475   8.188 -0.7466  0.8714  0.9804
 7087TIP3    H245457   3.840   3.506   8.141 -1.7832  0.0640 -3.0128
 7088TIP3   OH245458   3.323   0.061   6.717 -0.3155 -0.2381  0.3232
 7088TIP3    H145459   3.366   0.081   6.634  0.1653 -0.1188  0.5950
 7088TIP3    H245460   3.279   0.142   6.742  0.8831  0.2465  0.9755
 7089TIP3   OH245461   3.624   3.716   7.910 -0.2665  0.0640 -0.3104
 7089TIP3    H145462   3.700   3.722   7.853 -1.3273  2.5431 -1.5997
 7089TIP3    H245463   3.631   3.792   7.968 -0.7619 -0.7886  0.9156
 7090TIP3   OH245464   3.712   6.078   6.488  0.4510 -0.5079 -0.3405
 7090TIP3    H145465   3.798   6.122   6.490  0.7597 -0.9905 -2.0067
 7090TIP3    H245466   3.732   5.987   6.508  0.0432 -0.2929  1.2142
 7091TIP3   OH245467   2.134   3.384   9.659  0.0880  0.0215  0.1632
 7091TIP3    H145468   2.207   3.445   9.672 -0.7473  1.2039 -0.4345
 7091TIP3    H245469   2.126   3.376   9.564  0.4818 -1.4131  0.2427
 7092TIP3   OH245470   0.887   4.935   6.854 -0.3814 -0.5881  0.1733
 7092TIP3    H145471   0.890   5.021   6.896  1.4572 -0.0438 -0.9914
 7092TIP3    H245472   0.933   4.877   6.914 -0.0026 -0.3635  0.0999
 7093TIP3   OH245473   5.247   4.532   8.000  0.0197  0.0576  0.3373
 7093TIP3    H145474   5.163   4.497   7.970 -0.7228  0.2989  1.9942
 7093TIP3    H245475   5.259   4.612   7.950 -1.2663  0.5597  0.7761
 7094TIP3   OH245476   6.186   6.498   8.803 -0.3047  0.0794 -0.7822
 7094TIP3    H145477   6.169   6.425   8.743  1.7332  0.0420 -1.4159
 7094TIP3    H245478   6.145   6.573   8.760  0.5355 -0.0766 -1.9137
 7095TIP3   OH245479   6.067   6.270   8.690  0.3011 -0.2008 -1.0608
 7095TIP3    H145480   6.133   6.204   8.667  0.5069 -0.0524 -0.9004
 7095TIP3    H245481   5.991   6.248   8.636 -0.5839 -2.1646  0.8119
 7096TIP3   OH245482   4.937   6.662   7.971 -0.4510 -0.2785  0.0930
 7096TIP3    H145483   4.963   6.577   7.936  0.2553 -0.2242  0.4559
 7096TIP3    H245484   5.007   6.685   8.032 -0.3316  0.8216 -0.4235
 7097TIP3   OH245485   4.919   6.278   7.119  0.2345  0.4309 -0.8467
 7097TIP3    H145486   4.827   6.260   7.138  0.1707  0.5960 -0.9966
 7097TIP3    H245487   4.922   6.286   7.024  0.2793  1.1085 -0.7900
 7098TIP3   OH245488   2.680   4.380   7.671  0.0613  0.5280  0.0295
 7098TIP3    H145489   2.643   4.435   7.602 -1.2895 -1.9905 -1.4065
 7098TIP3    H245490   2.604   4.354   7.724  0.5646 -0.3642  0.3433
 7099TIP3   OH245491   6.062   0.863   8.377 -0.0309 -0.1906 -0.4647
 7099TIP3    H145492   6.034   0.859   8.469  1.1356  1.8027  0.0385
 7099TIP3    H245493   6.004   0.929   8.338 -0.5922 -1.1079 -1.2140
 7100TIP3   OH245494   5.550   4.246   7.662 -0.5485  0.1224  0.0162
 7100TIP3    H145495   5.514   4.162   7.690 -0.0064  0.7244  2.8041
 7100TIP3    H245496   5.473   4.304   7.653 -0.6696  0.2094  1.4763
 7101TIP3   OH245497   6.151   0.239   8.001  0.0452  0.2783 -0.2493
 7101TIP3    H145498   6.204   0.193   7.934  1.4096  0.7073  0.4961
 7101TIP3    H245499   6.062   0.239   7.965  0.7211  0.4244 -2.0370
 7102TIP3   OH245500   4.247   6.353   7.078  0.0915 -0.1368 -0.2209
 7102TIP3    H145501   4.276   6.386   7.163  1.2193  0.3407 -0.7804
 7102TIP3    H245502   4.151   6.357   7.083  0.1555  0.6275  0.7355
 7103TIP3   OH245503   4.880   4.534   8.613 -0.2040 -0.5290  0.0876
 7103TIP3    H145504   4.832   4.608   8.649 -2.4246 -1.4492 -0.7248
 7103TIP3    H245505   4.963   4.570   8.583 -0.8031  1.3963  0.6332
 7104TIP3   OH245506   5.639   3.454   7.458 -0.1260  0.3220 -0.0204
 7104TIP3    H145507   5.726   3.429   7.490  0.0154  1.4757  0.5834
 7104TIP3    H245508   5.652   3.468   7.364  0.3794  0.5929  0.0815
 7105TIP3   OH245509   4.284   6.462   7.742 -0.1504  0.2194  0.3209
 7105TIP3    H145510   4.220   6.440   7.810  1.3317  1.2716  2.1102
 7105TIP3    H245511   4.299   6.556   7.752  0.3377  0.3365 -1.2847
 7106TIP3   OH245512   2.249   5.240   6.602 -0.1477 -0.5138  0.2991
 7106TIP3    H145513   2.168   5.196   6.626  0.9377 -1.8689  1.7581
 7106TIP3    H245514   2.292   5.180   6.541  0.0928 -0.1427  0.0939
 7107TIP3   OH245515   6.288   4.608   8.315  0.3185 -0.0212 -0.4689
 7107TIP3    H145516   6.268   4.560   8.235 -0.5306 -1.3402  0.4947
 7107TIP3    H245517   6.361   4.561   8.355 -1.9257 -2.0190  1.6117
 7108TIP3   OH245518   2.603   0.115   8.790 -0.0697  0.1328  0.0477
 7108TIP3    H145519   2.676   0.174   8.776 -0.0940  0.6308  1.7414
 7108TIP3    H245520   2.592   0.113   8.885  0.1799 -2.9033  0.1211
 7109TIP3   OH245521   1.328   2.595   6.378  0.8300  0.7431  0.1617
 7109TIP3    H145522   1.316   2.570   6.469  0.3499 -0.1834 -0.1404
 7109TIP3    H245523   1.317   2.513   6.329 -2.6731  1.7599 -1.0617
 7110TIP3   OH245524   4.385   4.085   8.520 -0.0198 -0.2972 -0.0176
 7110TIP3    H145525   4.402   3.999   8.558 -0.1402  0.8850  2.9420
 7110TIP3    H245526   4.295   4.105   8.545 -0.1892  0.4977 -1.1670
 7111TIP3   OH245527   0.998   4.009   8.774  0.2533 -0.3510 -0.1681
 7111TIP3    H145528   1.069   4.037   8.832 -1.2647  0.6731  1.3129
 7111TIP3    H245529   0.991   3.915   8.788  1.4384 -0.5138 -0.5232
 7112TIP3   OH245530   1.146   5.185   7.715 -0.1323  0.2613 -0.3541
 7112TIP3    H145531   1.102   5.150   7.792  0.5305  0.4442  0.1110
 7112TIP3    H245532   1.180   5.270   7.743  0.5966  0.0811 -0.6768
 7113TIP3   OH245533   1.361   2.881   6.748  0.2021 -0.0626 -0.2556
 7113TIP3    H145534   1.410   2.901   6.668 -0.3237  1.0546 -0.3209
 7113TIP3    H245535   1.300   2.813   6.722 -1.5276  1.8114 -1.4676
 7114TIP3   OH245536   1.617   1.149   8.722  0.0544  0.3489 -0.1643
 7114TIP3    H145537   1.617   1.152   8.626  2.3498  0.8446 -0.1975
 7114TIP3    H245538   1.574   1.230   8.749  0.1411  0.6088 -0.7909
 7115TIP3   OH245539   1.310   6.271   8.540  0.1667  0.5674 -0.1979
 7115TIP3    H145540   1.316   6.364   8.516  0.6238  1.0633  1.6515
 7115TIP3    H245541   1.306   6.272   8.636 -1.3087 -1.2641 -0.1951
 7116TIP3   OH245542   4.637   3.699   8.955 -0.3845  0.1208 -0.2215
 7116TIP3    H145543   4.628   3.793   8.941  0.2563 -0.0101 -1.6564
 7116TIP3    H245544   4.725   3.678   8.924 -1.2200 -1.2706 -1.8055
 7117TIP3   OH245545   4.364   3.993   9.004  0.4998 -0.3291 -0.2569
 7117TIP3    H145546   4.343   3.953   9.089  0.7141  0.2191  0.0633
 7117TIP3    H245547   4.459   3.985   8.996  0.7484  1.3724  0.4915
 7118TIP3   OH245548   1.630   0.437   6.813  0.4884  0.2670  0.0826
 7118TIP3    H145549   1.696   0.505   6.799 -0.2513  1.5567  2.3001
 7118TIP3    H245550   1.560   0.459   6.752  1.7091 -0.6834 -1.7649
 7119TIP3   OH245551   5.483   3.426   8.132 -0.1505 -0.1931 -0.3263
 7119TIP3    H145552   5.389   3.406   8.134 -0.4685  1.1844 -0.4980
 7119TIP3    H245553   5.524   3.353   8.178 -1.2657 -1.0276 -0.6200
 7120TIP3   OH245554   0.360   0.619   8.643 -0.5744  0.0026 -0.4614
 7120TIP3    H145555   0.377   0.713   8.632 -0.2034 -0.0346 -0.1807
 7120TIP3    H245556   0.446   0.578   8.637 -0.8787 -0.4720 -2.0975
 7121TIP3   OH245557   5.627   2.137   8.523  0.3060  0.6211 -0.1236
 7121TIP3    H145558   5.698   2.100   8.575  1.5926  1.1459 -1.4354
 7121TIP3    H245559   5.671   2.185   8.453 -1.3338  2.0204 -0.2701
 7122TIP3   OH245560   6.233   0.704   6.959 -0.2276  0.1110  0.0481
 7122TIP3    H145561   6.177   0.772   6.922 -1.3222 -0.5604  0.4329
 7122TIP3    H245562   6.290   0.751   7.021  0.7321  1.0347 -1.4665
 7123TIP3   OH245563   0.977   4.240   8.557 -0.3334  0.2626  0.5442
 7123TIP3    H145564   0.885   4.249   8.580 -0.6221 -0.2450 -0.3583
 7123TIP3    H245565   1.021   4.309   8.607 -1.2198  0.6191  0.8529
 7124TIP3   OH245566   5.093   5.595   7.046 -0.0563 -0.2383  0.7096
 7124TIP3    H145567   5.104   5.523   7.108  0.5839  0.3728  1.3351
 7124TIP3    H245568   5.030   5.563   6.982  2.2089 -2.4210 -0.6099
 7125TIP3   OH245569   5.976   4.579   7.322 -0.7355  0.6240 -0.6575
 7125TIP3    H145570   5.905   4.560   7.260 -0.8487 -0.1795 -0.2951
 7125TIP3    H245571   6.056   4.571   7.270 -0.6524 -2.2884 -0.2867
 7126TIP3   OH245572   3.315   6.597   9.603  0.0667  0.2361 -0.0725
 7126TIP3    H145573   3.224   6.600   9.633  0.7973  2.1309  2.3475
 7126TIP3    H245574   3.342   6.506   9.620 -0.7522  0.2219  1.3963
 7127TIP3   OH245575   1.382   3.905   9.345  0.3281 -0.1770 -0.4009
 7127TIP3    H145576   1.386   3.813   9.319 -0.3404 -0.2302 -0.3277
 7127TIP3    H245577   1.456   3.916   9.405 -1.0165 -1.3392  1.6129
 7128TIP3   OH245578   0.538   2.513  10.002 -0.6228 -0.5738 -0.9796
 7128TIP3    H145579   0.472   2.582  10.006  0.2638  0.3162 -1.1674
 7128TIP3    H245580   0.567   2.503  10.093 -0.8143 -0.7682 -0.9393
 7129TIP3   OH245581   1.012   5.997   7.586  0.4849 -0.5331 -0.4059
 7129TIP3    H145582   0.934   5.963   7.630 -1.1807  2.2980 -0.8654
 7129TIP3    H245583   1.054   5.920   7.548 -2.2858 -2.1990 -0.3947
 7130TIP3   OH245584   4.235   2.475   7.531 -0.2599  0.0317  1.1852
 7130TIP3    H145585   4.206   2.444   7.446 -0.0977 -0.0404  1.1550
 7130TIP3    H245586   4.321   2.434   7.543  0.3075  1.0718  0.8092
 7131TIP3   OH245587   0.080   2.755  10.143  0.0759 -0.6066 -0.2603
 7131TIP3    H145588   0.074   2.792  10.231  0.2961  0.6530 -0.7476
 7131TIP3    H245589  -0.007   2.766  10.106  0.3549  0.2867 -0.7099
 7132TIP3   OH245590   1.036   3.280   6.708 -0.4943 -0.1378 -0.1463
 7132TIP3    H145591   1.045   3.214   6.639 -1.4775  0.6056 -1.0103
 7132TIP3    H245592   0.947   3.313   6.699 -0.8830 -0.4466  1.8928
 7133TIP3   OH245593   5.685   2.828   8.515  0.2467 -0.4618  0.4831
 7133TIP3    H145594   5.741   2.896   8.552 -0.7802 -0.5715  2.3800
 7133TIP3    H245595   5.726   2.805   8.431  1.9713  0.7276  0.9578
 7134TIP3   OH245596   4.465   3.331   8.901  0.3309  0.0208 -0.2228
 7134TIP3    H145597   4.463   3.239   8.874 -3.9807 -0.5304  1.2034
 7134TIP3    H245598   4.400   3.373   8.844 -0.7782  1.2117  1.8293
 7135TIP3   OH245599   3.751   3.358   9.703  0.0490 -0.1891  0.2301
 7135TIP3    H145600   3.721   3.418   9.635  1.3298 -0.1861 -0.3693
 7135TIP3    H245601   3.763   3.274   9.658  0.3917 -0.3239  0.5651
 7136TIP3   OH245602   4.629   3.488   8.072  0.0581  0.1245 -0.0498
 7136TIP3    H145603   4.670   3.452   7.994  0.0900  0.9068 -0.4073
 7136TIP3    H245604   4.676   3.571   8.088  0.0883 -0.0459  0.8254
 7137TIP3   OH245605   5.535   1.309   7.716 -0.1646 -0.2355  0.1614
 7137TIP3    H145606   5.596   1.307   7.790  1.1483  1.1573 -0.8335
 7137TIP3    H245607   5.557   1.232   7.664 -0.1329 -0.4292  0.4558
 7138TIP3   OH245608   4.791   0.533   6.634  0.6531 -0.1564  0.0451
 7138TIP3    H145609   4.707   0.557   6.674 -0.2004 -2.5151 -0.1743
 7138TIP3    H245610   4.855   0.545   6.704  0.0496  1.0164  0.4284
 7139TIP3   OH245611   1.302   2.382   9.744  0.5783 -0.4465  0.0252
 7139TIP3    H145612   1.235   2.363   9.678  1.6961  1.1455 -1.6624
 7139TIP3    H245613   1.382   2.394   9.694  1.4891  0.7883  1.6919
 7140TIP3   OH245614   1.628   6.681   8.031 -0.4785  0.0990 -0.4089
 7140TIP3    H145615   1.599   6.687   8.122  0.8213 -0.8302  0.1072
 7140TIP3    H245616   1.638   6.772   8.002 -0.5149  0.4007  0.5098
 7141TIP3   OH245617   5.482   3.622   7.731  0.0083 -0.0517  0.0960
 7141TIP3    H145618   5.440   3.701   7.696 -4.0884 -1.9282  0.3133
 7141TIP3    H245619   5.458   3.553   7.670  2.1141 -1.5260  0.8155
 7142TIP3   OH245620   4.636   1.008   6.699 -0.3916 -0.2234 -0.4677
 7142TIP3    H145621   4.689   1.055   6.763  0.1994 -1.0966 -0.2838
 7142TIP3    H245622   4.550   0.998   6.741 -0.5243  0.6781 -0.5168
 7143TIP3   OH245623   1.692   1.758   9.049  0.4427 -0.1222  0.2932
 7143TIP3    H145624   1.676   1.701   9.125  2.9229  0.3161  1.2398
 7143TIP3    H245625   1.771   1.722   9.008  0.2152  0.7726 -0.9910
 7144TIP3   OH245626   2.402   1.688   6.998 -0.1011  0.0523  0.4868
 7144TIP3    H145627   2.317   1.728   7.017  0.3454  2.3466 -1.8719
 7144TIP3    H245628   2.391   1.649   6.912  1.2092  0.3190  0.1894
 7145TIP3   OH245629   3.763   5.819   6.564  0.0508  0.1795  0.5676
 7145TIP3    H145630   3.801   5.792   6.648 -0.4758 -0.0740  0.7294
 7145TIP3    H245631   3.669   5.813   6.578 -0.1042  2.2711  0.6550
 7146TIP3   OH245632   3.785   5.442   7.050 -0.1984  0.0272  0.0690
 7146TIP3    H145633   3.769   5.364   7.103  0.7550 -1.1701 -1.3119
 7146TIP3    H245634   3.864   5.421   7.001  0.0605  1.8770 -0.3631
 7147TIP3   OH245635   4.742   3.590  10.173 -0.1934 -0.1383 -0.1724
 7147TIP3    H145636   4.750   3.641  10.254  1.0130 -0.5856  0.0214
 7147TIP3    H245637   4.680   3.520  10.195  0.8833 -0.8575  0.7314
 7148TIP3   OH245638   0.925   4.309   7.498  0.2126 -0.1488 -0.2322
 7148TIP3    H145639   0.973   4.227   7.490 -0.1420 -0.6587  2.0601
 7148TIP3    H245640   0.843   4.294   7.449 -0.8855 -2.0955  2.0052
 7149TIP3   OH245641   5.629   1.373   6.432  0.4604 -0.4177 -0.1664
 7149TIP3    H145642   5.548   1.378   6.381  0.1243  0.8068  0.4488
 7149TIP3    H245643   5.685   1.441   6.395  1.2896 -1.3714 -0.6956
 7150TIP3   OH245644   6.419   5.262   9.768  0.2279  0.0477  0.5177
 7150TIP3    H145645   6.476   5.277   9.692  1.0527  0.6671  1.2405
 7150TIP3    H245646   6.330   5.276   9.735  0.5005 -0.6630 -0.5674
 7151TIP3   OH245647   6.526   4.885   8.852 -0.0930  0.0652  0.4553
 7151TIP3    H145648   6.499   4.939   8.778 -3.1310 -0.3424  1.1374
 7151TIP3    H245649   6.553   4.947   8.920 -4.2153  0.9988  1.4905
 7152TIP3   OH245650   0.178   5.473   9.713 -0.0993  0.1947  0.2892
 7152TIP3    H145651   0.256   5.492   9.765  0.2651  0.5261 -0.3713
 7152TIP3    H245652   0.144   5.391   9.750  0.8891 -0.2672  0.2140
 7153TIP3   OH245653   2.576   2.907   7.655  0.2200 -0.3305 -0.1220
 7153TIP3    H145654   2.623   2.958   7.589  1.5183  0.2932  1.2068
 7153TIP3    H245655   2.644   2.881   7.717 -0.4386 -3.4787 -0.5608
 7154TIP3   OH245656   4.594   2.816   7.114 -0.5887  0.3814  0.2229
 7154TIP3    H145657   4.659   2.871   7.160 -2.0657  1.4910  1.0626
 7154TIP3    H245658   4.620   2.726   7.136  1.0787  0.7503 -0.0680
 7155TIP3   OH245659   3.065   3.205   7.029 -0.2699  0.4089 -0.5166
 7155TIP3    H145660   3.028   3.228   7.114  0.4560 -2.1558  0.5669
 7155TIP3    H245661   2.989   3.185   6.974 -0.6692 -0.2424  0.2595
 7156TIP3   OH245662   2.530   2.112   9.531  0.5628  0.3701 -0.0512
 7156TIP3    H145663   2.610   2.098   9.581 -0.1259 -1.2587  0.6624
 7156TIP3    H245664   2.511   2.027   9.491 -1.2202  0.5051  0.4249
 7157TIP3   OH245665   1.211   4.394   8.685  0.4639  0.0214  0.1151
 7157TIP3    H145666   1.273   4.351   8.744 -0.0017 -0.4785  0.2473
 7157TIP3    H245667   1.237   4.487   8.686 -0.6356  0.3488  2.4998
 7158TIP3   OH245668   0.353   2.435   9.093 -0.6848  0.0901  0.1648
 7158TIP3    H145669   0.415   2.410   9.025 -0.2583 -2.1771  1.2711
 7158TIP3    H245670   0.376   2.525   9.116  2.8206 -0.9045  1.1074
 7159TIP3   OH245671   2.085   1.800   8.615 -0.1505  0.3697  0.1583
 7159TIP3    H145672   2.048   1.885   8.593  2.7488  1.6245 -0.3781
 7159TIP3    H245673   2.126   1.814   8.701  2.3834  0.3204 -0.9550
 7160TIP3   OH245674   3.961   5.823   9.480  0.4315  0.3081  0.1691
 7160TIP3    H145675   3.889   5.844   9.539  0.8215 -1.2662  1.2775
 7160TIP3    H245676   3.979   5.905   9.433 -0.8957  1.1923  1.1438
 7161TIP3   OH245677   2.659   6.583   7.007 -0.2483  0.0059  0.3087
 7161TIP3    H145678   2.566   6.595   6.985  0.1196  2.7441 -0.0609
 7161TIP3    H245679   2.703   6.581   6.922  0.1919  0.3800  0.5285
 7162TIP3   OH245680   5.762   4.483   7.682 -0.0416  0.0508  0.1246
 7162TIP3    H145681   5.683   4.530   7.656  0.3673  0.4676 -0.4089
 7162TIP3    H245682   5.745   4.392   7.660 -0.8082 -0.0439  1.0756
 7163TIP3   OH245683   1.144   4.711   9.666 -0.2052 -0.7680  0.3178
 7163TIP3    H145684   1.176   4.790   9.622  1.6721 -0.8776  1.3765
 7163TIP3    H245685   1.065   4.740   9.713 -0.2221  0.1722 -0.2689
 7164TIP3   OH245686   3.159   5.073   8.422 -0.3873 -0.5614 -0.1156
 7164TIP3    H145687   3.160   4.981   8.394 -1.3288 -0.5912 -0.0663
 7164TIP3    H245688   3.240   5.083   8.473 -1.1341 -1.8580  1.4226
 7165TIP3   OH245689   4.429   6.686   7.008  0.1607 -0.0506 -0.3825
 7165TIP3    H145690   4.509   6.636   7.025 -0.1620 -0.5696 -0.3367
 7165TIP3    H245691   4.391   6.645   6.930 -0.4970 -0.3876  0.0939
 7166TIP3   OH245692   3.086   2.657   9.266 -0.3842 -0.5070  0.0062
 7166TIP3    H145693   3.052   2.743   9.239  0.3383  0.2179  1.2809
 7166TIP3    H245694   3.042   2.595   9.208  1.4567  0.9148 -3.1925
 7167TIP3   OH245695   4.396   6.182   6.621 -0.4059  0.3747 -0.3484
 7167TIP3    H145696   4.417   6.089   6.635 -0.1581  0.6764  1.5829
 7167TIP3    H245697   4.342   6.205   6.697 -0.9486  1.6677 -1.1100
 7168TIP3   OH245698   6.380   3.422  10.088  0.4684 -0.8246  0.0495
 7168TIP3    H145699   6.366   3.388  10.176  2.6096  0.0140  0.7941
 7168TIP3    H245700   6.354   3.514  10.094 -1.2781 -1.2317 -0.7809
 7169TIP3   OH245701   4.230   2.345   9.316 -0.0440 -0.1739 -0.5812
 7169TIP3    H145702   4.222   2.439   9.330 -0.3428 -0.0586 -1.4627
 7169TIP3    H245703   4.261   2.310   9.400 -0.5397  0.6238 -0.0625
 7170TIP3   OH245704   0.172   4.934   7.076 -0.3056 -0.0427  0.4366
 7170TIP3    H145705   0.174   5.017   7.029 -1.1752 -0.9802 -1.3788
 7170TIP3    H245706   0.132   4.955   7.160  0.6340  1.5725  0.5326
 7171TIP3   OH245707   1.847   3.959   7.427 -0.2044  0.2773 -0.4405
 7171TIP3    H145708   1.772   3.919   7.383 -0.4381 -1.6838  1.5616
 7171TIP3    H245709   1.811   3.997   7.507  1.0995 -2.7278  1.7567
 7172TIP3   OH245710   4.037   6.450   9.411  0.0599  0.0726  0.0729
 7172TIP3    H145711   4.111   6.475   9.357  0.7886  1.1295  1.4835
 7172TIP3    H245712   3.987   6.388   9.358  1.9021 -0.5988 -0.9439
 7173TIP3   OH245713   1.192   4.824   7.286 -0.1531  0.1947  0.2970
 7173TIP3    H145714   1.200   4.907   7.238 -1.5478  0.3832  0.3492
 7173TIP3    H245715   1.211   4.848   7.377  0.1345  0.3037  0.2123
 7174TIP3   OH245716   2.645   3.236   8.668 -0.1248 -0.3284  0.0794
 7174TIP3    H145717   2.648   3.273   8.580  1.6721 -0.2856  0.1128
 7174TIP3    H245718   2.632   3.312   8.725 -1.5417 -0.3856 -0.1430
 7175TIP3   OH245719   1.337   2.940   7.621 -0.2988  0.3492 -0.0569
 7175TIP3    H145720   1.249   2.910   7.644  0.1140 -1.3999 -0.6189
 7175TIP3    H245721   1.337   2.945   7.526  0.5045 -0.7091 -0.1313
 7176TIP3   OH245722   3.927   4.590   6.890  0.1376  0.1245  0.1885
 7176TIP3    H145723   3.842   4.597   6.845 -0.1123  0.1809  0.6650
 7176TIP3    H245724   3.946   4.678   6.920  0.3096  0.0879  0.1882
 7177TIP3   OH245725   2.485   1.830   8.227 -0.2959  0.7721  0.3749
 7177TIP3    H145726   2.423   1.760   8.249  1.9381 -2.1089 -1.5684
 7177TIP3    H245727   2.557   1.819   8.290  0.9609 -0.1007 -1.1246
 7178TIP3   OH245728   6.311   2.080   8.332  0.0449  0.2132  1.0943
 7178TIP3    H145729   6.337   2.076   8.424 -0.5590  0.8483  1.3026
 7178TIP3    H245730   6.392   2.102   8.285  0.7004 -1.6633  1.2735
 7179TIP3   OH245731   6.355   4.002  10.036 -0.1808  0.3583  1.2179
 7179TIP3    H145732   6.321   3.938  10.098  2.5473 -1.7928  0.6684
 7179TIP3    H245733   6.428   4.044  10.082  0.0084  0.8468  0.4905
 7180TIP3   OH245734   0.278   2.504  10.342 -0.2561 -0.2314 -0.2884
 7180TIP3    H145735   0.260   2.575  10.403  0.3563  0.2822 -0.6906
 7180TIP3    H245736   0.291   2.427  10.397  1.3008  0.4220  0.3216
 7181TIP3   OH245737   5.459   0.913   8.113  0.4019 -0.0352 -0.2638
 7181TIP3    H145738   5.519   0.890   8.184  2.2854  0.8831 -1.4861
 7181TIP3    H245739   5.467   1.008   8.105 -1.0152  0.0602 -0.6565
 7182TIP3   OH245740   4.604   2.827   8.601  0.5184  0.2636  0.9042
 7182TIP3    H145741   4.699   2.836   8.590  0.4795 -0.6431 -0.4249
 7182TIP3    H245742   4.593   2.803   8.693  1.6559 -0.5220  0.8539
 7183TIP3   OH245743   5.759   1.459   8.498 -0.6873 -0.2320 -0.1970
 7183TIP3    H145744   5.667   1.480   8.513 -0.8321 -1.6725  1.2085
 7183TIP3    H245745   5.806   1.503   8.569 -0.4380 -0.5191 -0.1797
 7184TIP3   OH245746   2.284   2.262   7.129  0.5547 -0.5816 -0.2026
 7184TIP3    H145747   2.300   2.168   7.118 -2.5150 -1.1546 -0.9983
 7184TIP3    H245748   2.321   2.302   7.050  2.8927 -0.9173  0.6732
 7185TIP3   OH245749   5.740   0.239   7.008 -0.1083  0.5659 -0.0735
 7185TIP3    H145750   5.755   0.278   7.094 -1.9990  0.3866  0.3812
 7185TIP3    H245751   5.662   0.185   7.020  1.1776 -1.7125 -1.2136
 7186TIP3   OH245752   0.920   2.763   7.460 -0.2704  0.6502  0.1893
 7186TIP3    H145753   0.835   2.726   7.436  0.2539  0.8256 -2.0796
 7186TIP3    H245754   0.984   2.708   7.417  0.9105 -0.1811  2.8074
 7187TIP3   OH245755   4.914   5.123   7.969  0.0282  0.2424 -0.2064
 7187TIP3    H145756   5.007   5.116   7.991 -0.5359 -0.3562  2.3689
 7187TIP3    H245757   4.901   5.216   7.949  0.7435  0.8729  1.9724
 7188TIP3   OH245758   0.878   0.553   7.172  0.3123  0.3929  0.2573
 7188TIP3    H145759   0.932   0.537   7.249 -0.8273 -0.8258  0.8325
 7188TIP3    H245760   0.907   0.487   7.109 -0.5629 -0.3569  0.6171
 7189TIP3   OH245761   3.023   2.450   6.525 -0.0024 -0.2538 -0.0735
 7189TIP3    H145762   2.999   2.365   6.564  0.0998 -0.4668 -0.4659
 7189TIP3    H245763   3.089   2.428   6.459  0.4601  0.2046  0.2343
 7190TIP3   OH245764   5.394   1.925   9.103 -0.1386  0.0210 -0.1809
 7190TIP3    H145765   5.462   1.992   9.110 -0.8887  0.7238  0.6691
 7190TIP3    H245766   5.369   1.907   9.194  2.4881 -4.0431  0.0146
 7191TIP3   OH245767   1.522   2.455   8.539 -0.5692 -0.4771  0.1135
 7191TIP3    H145768   1.501   2.535   8.586 -1.3483 -1.8771  2.3157
 7191TIP3    H245769   1.442   2.432   8.493 -0.6105 -0.4385  0.1659
 7192TIP3   OH245770   0.879   4.325   9.435 -0.6380 -0.0243  0.3717
 7192TIP3    H145771   0.943   4.370   9.490 -0.2628 -0.3305  0.1920
 7192TIP3    H245772   0.796   4.369   9.453 -0.5341 -0.1627  1.2366
 7193TIP3   OH245773   0.684   3.589   9.227 -0.1616  0.0387  0.2595
 7193TIP3    H145774   0.600   3.636   9.227  0.5131  1.2912 -0.0700
 7193TIP3    H245775   0.748   3.654   9.197  1.0427 -0.6858  1.1601
 7194TIP3   OH245776   4.934   2.925   7.869  0.1723  0.2991 -0.2151
 7194TIP3    H145777   5.016   2.896   7.829  1.1011  1.7823  0.5312
 7194TIP3    H245778   4.928   2.874   7.950  0.9184  0.9177  0.2452
 7195TIP3   OH245779   3.653   6.339   7.431 -0.1405 -0.4733  0.0924
 7195TIP3    H145780   3.688   6.250   7.437 -2.1547 -1.3608 -0.2289
 7195TIP3    H245781   3.710   6.392   7.486 -0.4312 -2.4758  2.4890
 7196TIP3   OH245782   4.759   2.343   7.487 -0.0229  0.3938 -0.5178
 7196TIP3    H145783   4.796   2.307   7.407  0.6310 -2.1692  0.8167
 7196TIP3    H245784   4.836   2.365   7.541 -0.4394 -0.0732  0.2785
 7197TIP3   OH245785   4.962   1.352   8.224 -0.3769  0.0328 -0.2699
 7197TIP3    H145786   5.019   1.391   8.158 -1.4377  1.2210 -0.5385
 7197TIP3    H245787   4.886   1.321   8.175 -0.3714 -0.7162  0.1847
 7198TIP3   OH245788   2.735   1.871   7.593  0.2628 -0.6236 -0.5721
 7198TIP3    H145789   2.642   1.852   7.600  0.6631 -2.4262  0.6416
 7198TIP3    H245790   2.741   1.966   7.597 -1.5348 -0.4626 -1.1029
 7199TIP3   OH245791   6.284   3.865   8.192 -0.4280 -0.4311  0.0592
 7199TIP3    H145792   6.371   3.828   8.181 -0.5322 -0.8169  0.5376
 7199TIP3    H245793   6.240   3.848   8.108 -0.4682 -1.3736  0.2596
 7200TIP3   OH245794   4.432   3.451   7.326  0.2148  0.7023  0.0868
 7200TIP3    H145795   4.481   3.469   7.246 -0.9106  0.0510 -0.7717
 7200TIP3    H245796   4.351   3.411   7.297  1.2300 -2.9060  1.6781
 7201TIP3   OH245797   3.036   3.407   8.979 -0.3355  0.3622  0.2969
 7201TIP3    H145798   3.108   3.417   9.041 -0.2013 -0.3227  0.2658
 7201TIP3    H245799   3.063   3.335   8.921 -1.7275 -1.0943  1.3323
 7202TIP3   OH245800   1.583   5.250   6.674  0.0795 -0.1356 -0.3064
 7202TIP3    H145801   1.618   5.161   6.679 -0.1808 -0.3476 -1.7218
 7202TIP3    H245802   1.620   5.295   6.750 -0.0202 -1.5177  0.6033
 7203TIP3   OH245803   2.117   2.396   8.538  0.8515  0.5942 -0.2749
 7203TIP3    H145804   2.120   2.352   8.623  1.9926  0.5890 -0.2993
 7203TIP3    H245805   2.183   2.466   8.545 -0.6728  2.0969 -0.3620
 7204TIP3   OH245806   3.777   0.821   7.014 -0.1030 -0.1878 -0.1584
 7204TIP3    H145807   3.835   0.866   7.076  2.5002 -1.6750 -1.3504
 7204TIP3    H245808   3.779   0.730   7.043 -0.8482 -0.4717 -0.9765
 7205TIP3   OH245809   5.155   6.670   7.435  0.1562  0.1141 -0.5178
 7205TIP3    H145810   5.141   6.579   7.409 -0.6882 -0.1973  0.8654
 7205TIP3    H245811   5.072   6.713   7.416 -0.9566 -0.4119  2.5586
 7206TIP3   OH245812   6.692   2.497   8.686 -0.0873 -0.1384 -0.3237
 7206TIP3    H145813   6.718   2.588   8.677  0.9354 -0.4429 -0.6205
 7206TIP3    H245814   6.730   2.468   8.769 -2.2890  0.2910  0.9161
 7207TIP3   OH245815   4.278   4.970   7.398 -0.4358 -0.0200 -0.5888
 7207TIP3    H145816   4.371   4.992   7.389 -0.1803 -1.3193 -1.2715
 7207TIP3    H245817   4.232   5.038   7.348  0.2309 -0.0727 -1.2870
 7208TIP3   OH245818   2.845   5.643   7.965  0.1456 -0.0812  0.5871
 7208TIP3    H145819   2.826   5.733   7.940  0.9813  0.0383  0.3635
 7208TIP3    H245820   2.938   5.632   7.947  0.3320 -0.6102  1.8045
 7209TIP3   OH245821   5.094   1.121   6.673 -0.5952 -0.5844  0.1250
 7209TIP3    H145822   5.054   1.158   6.752  1.2513 -0.4385  1.0388
 7209TIP3    H245823   5.087   1.026   6.685 -0.1924 -0.5654  0.5479
 7210TIP3   OH245824   4.170   0.216   8.103 -0.1361 -0.0494 -0.1349
 7210TIP3    H145825   4.120   0.293   8.077 -0.3197 -1.2255 -3.8280
 7210TIP3    H245826   4.113   0.142   8.080  1.8970 -1.3443 -1.2877
 7211TIP3   OH245827   2.514   2.552   9.199  0.6187  0.6820  0.3659
 7211TIP3    H145828   2.495   2.614   9.128  1.1459 -0.2712 -0.6401
 7211TIP3    H245829   2.469   2.589   9.275  1.5754  2.7120  0.0080
 7212TIP3   OH245830   1.972   3.734   6.379  0.1810 -0.0590  0.2327
 7212TIP3    H145831   1.925   3.801   6.427  1.9427  0.5035  1.2632
 7212TIP3    H245832   2.000   3.672   6.446  1.8190  0.2080 -0.1619
 7213TIP3   OH245833   2.440   6.430   8.150  0.3511 -0.5218 -0.0486
 7213TIP3    H145834   2.501   6.467   8.086 -0.7857 -1.2363 -1.5994
 7213TIP3    H245835   2.405   6.507   8.197  1.4972 -0.0210  0.0042
 7214TIP3   OH245836   1.979   5.191   8.652  0.0075  0.1460 -0.1123
 7214TIP3    H145837   1.941   5.142   8.726 -0.1332  1.6170  0.8329
 7214TIP3    H245838   2.059   5.229   8.688  0.8678 -0.5334 -1.2506
 7215TIP3   OH245839   0.074   6.529   6.749 -0.1646  0.0517  0.2969
 7215TIP3    H145840   0.033   6.602   6.795  2.9116  0.8784  1.9930
 7215TIP3    H245841   0.078   6.459   6.814 -2.3494 -1.4976 -1.0707
 7216TIP3   OH245842   3.359   1.736   8.131 -0.3339  0.0291 -0.6386
 7216TIP3    H145843   3.320   1.720   8.216 -1.0745  2.0433 -0.5494
 7216TIP3    H245844   3.409   1.817   8.142  1.4003 -0.8611 -1.5617
 7217TIP3   OH245845   2.331   6.041   6.727 -0.0285  0.3087 -0.4335
 7217TIP3    H145846   2.363   6.117   6.678  0.0974  1.8567  1.9283
 7217TIP3    H245847   2.237   6.039   6.709  0.0655  0.6362 -0.9850
 7218TIP3   OH245848   0.034   4.484   7.641  0.2692 -0.5754  0.3655
 7218TIP3    H145849   0.097   4.412   7.633  0.0342 -0.7605  0.1676
 7218TIP3    H245850   0.048   4.518   7.729 -0.6437 -1.8294  1.0371
 7219TIP3   OH245851   4.887   2.674   6.574  0.8359  0.2681 -0.4569
 7219TIP3    H145852   4.860   2.590   6.611 -0.1986  1.2182  1.0585
 7219TIP3    H245853   4.956   2.706   6.633  0.0103  1.2516  0.0116
 7220TIP3   OH245854   2.514   2.632   7.674 -0.3700 -0.2345  0.0331
 7220TIP3    H145855   2.537   2.685   7.597  0.0639 -2.1743 -1.2436
 7220TIP3    H245856   2.504   2.696   7.745  0.8186  1.4741 -1.2485
 7221TIP3   OH245857   3.855   4.873   7.448  0.3428 -0.0921 -0.3874
 7221TIP3    H145858   3.834   4.929   7.522 -0.1754 -3.1045  1.9239
 7221TIP3    H245859   3.781   4.885   7.387  0.2212  1.5927  0.0520
 7222TIP3   OH245860   4.621   4.016   7.717 -0.2555 -0.1823  0.4549
 7222TIP3    H145861   4.641   3.960   7.641 -0.9512  0.0318  0.1007
 7222TIP3    H245862   4.664   3.973   7.790  1.3337  0.1775 -0.2272
 7223TIP3   OH245863   5.951   5.505   6.492  0.3247  0.4405  0.0495
 7223TIP3    H145864   5.957   5.577   6.430 -3.0897  0.8522 -0.0174
 7223TIP3    H245865   5.970   5.544   6.577  1.5744  0.6574 -0.3082
 7224TIP3   OH245866   0.667   6.100   9.104  0.3438  0.0133 -0.2183
 7224TIP3    H145867   0.699   6.096   9.195  0.7765 -1.7263 -0.4104
 7224TIP3    H245868   0.672   6.193   9.081 -0.7367  0.6623  1.8609
 7225TIP3   OH245869   5.727   2.337   7.046  0.2448 -0.6592 -0.2887
 7225TIP3    H145870   5.700   2.264   7.102 -0.7238  0.4051  0.6467
 7225TIP3    H245871   5.661   2.340   6.977 -0.8825  0.5733  0.7962
 7226TIP3   OH245872   2.200   5.392   9.685  0.5174  0.1827 -0.1984
 7226TIP3    H145873   2.247   5.396   9.602 -1.2155  0.1888 -1.2320
 7226TIP3    H245874   2.110   5.413   9.662  0.3598  2.3642  2.0544
 7227TIP3   OH245875   4.588   0.262   7.303  0.2171 -0.1116  0.0586
 7227TIP3    H145876   4.533   0.281   7.228 -0.9783 -2.6070  0.2128
 7227TIP3    H245877   4.667   0.315   7.289 -0.4056  0.2818 -2.3788
 7228TIP3   OH245878   2.092   4.431   7.503  0.0303  0.5294  0.0207
 7228TIP3    H145879   2.161   4.469   7.448  0.5365  0.0320  0.2965
 7228TIP3    H245880   2.087   4.339   7.475 -0.1770  0.4400  0.3442
 7229TIP3   OH245881   0.583   0.501   7.776 -0.2403 -0.0428  0.3689
 7229TIP3    H145882   0.604   0.444   7.849 -0.8086 -1.0996 -0.2765
 7229TIP3    H245883   0.496   0.536   7.796 -1.7220 -2.6193 -1.1218
 7230TIP3   OH245884   6.011   2.213   9.409 -0.0055 -0.8332  0.2591
 7230TIP3    H145885   5.941   2.210   9.343 -1.4180 -0.0223  1.6440
 7230TIP3    H245886   6.084   2.166   9.368 -1.5772 -2.3670 -0.9814
 7231TIP3   OH245887   6.607   3.193   8.969 -0.0564 -0.5520  0.6221
 7231TIP3    H145888   6.613   3.252   9.045  0.6284 -1.8363  1.5931
 7231TIP3    H245889   6.516   3.200   8.941 -0.5414 -0.6905  2.0891
 7232TIP3   OH245890   2.831   2.702   8.636  0.0259 -0.0997 -0.2370
 7232TIP3    H145891   2.781   2.664   8.708  0.0784 -0.8691 -0.5939
 7232TIP3    H245892   2.918   2.717   8.672 -0.2193  0.4451  0.1402
 7233TIP3   OH245893   0.107   2.739   8.837 -0.3285 -0.9946 -0.2679
 7233TIP3    H145894   0.158   2.658   8.844  0.2362 -0.5146  1.6534
 7233TIP3    H245895   0.025   2.720   8.884 -0.9467 -0.9788 -1.2937
 7234TIP3   OH245896   1.073   3.744   8.754  0.1174 -0.3153 -0.1258
 7234TIP3    H145897   1.021   3.698   8.820 -0.7132  2.0865  0.9856
 7234TIP3    H245898   1.070   3.687   8.677 -0.0378 -2.5458  1.4206
 7235TIP3   OH245899   3.369   5.097   8.620  0.3653  0.3570  0.9064
 7235TIP3    H145900   3.462   5.092   8.598  0.0105 -2.5008 -0.4580
 7235TIP3    H245901   3.360   5.046   8.700 -0.3039 -1.5442 -0.3231
 7236TIP3   OH245902   0.013   3.475   8.367 -0.2848  0.1095  0.2735
 7236TIP3    H145903   0.031   3.559   8.408 -1.5658  0.2589  0.5609
 7236TIP3    H245904   0.022   3.411   8.437  1.4071 -0.0972 -0.1028
 7237TIP3   OH245905   3.607   1.443   9.026  0.1148  0.2649 -0.3161
 7237TIP3    H145906   3.643   1.508   9.087 -1.5084  1.0138 -0.0766
 7237TIP3    H245907   3.601   1.363   9.078  2.8449 -0.3423 -0.8373
 7238TIP3   OH245908   4.694   4.638   8.240  0.0468 -0.3553 -0.5963
 7238TIP3    H145909   4.636   4.651   8.315 -1.6164 -0.8101 -1.7552
 7238TIP3    H245910   4.745   4.561   8.262 -0.3287 -0.4072  0.1249
 7239TIP3   OH245911   4.255   3.490   9.308  0.1909  0.0819  0.3469
 7239TIP3    H145912   4.329   3.467   9.252 -1.1694 -1.3879 -0.9443
 7239TIP3    H245913   4.232   3.409   9.353  0.2385  0.8621  1.8506
 7240TIP3   OH245914   1.216   3.485   8.407  1.1058 -0.9588  0.1926
 7240TIP3    H145915   1.164   3.506   8.329  1.0653 -2.3839 -0.1845
 7240TIP3    H245916   1.283   3.553   8.409 -1.1175  1.3803  1.0891
 7241TIP3   OH245917   0.426   3.451   9.425 -0.4928 -0.1747  0.7661
 7241TIP3    H145918   0.413   3.378   9.364 -1.6899 -0.2017  1.0176
 7241TIP3    H245919   0.437   3.409   9.510  1.1306 -0.1354  0.6088
 7242TIP3   OH245920   3.849   5.740   6.810 -0.8507  0.4334  0.4212
 7242TIP3    H145921   3.806   5.670   6.761  0.2673  0.5800 -0.8101
 7242TIP3    H245922   3.929   5.699   6.844  0.0217  1.2029 -0.6591
 7243TIP3   OH245923   6.083   3.621  10.044 -0.5820  0.1496  0.5454
 7243TIP3    H145924   6.089   3.621   9.948 -0.8829 -0.4928  0.5219
 7243TIP3    H245925   6.166   3.659  10.072 -0.4040  0.1625  0.0294
 7244TIP3   OH245926   5.482   3.075   7.574  0.3314  0.3083 -0.3588
 7244TIP3    H145927   5.427   3.068   7.496  1.4547 -0.2585 -1.1196
 7244TIP3    H245928   5.550   3.009   7.562  0.4317  0.0866  1.1901
 7245TIP3   OH245929   1.258   4.138   6.539 -0.6655 -0.1850 -0.1557
 7245TIP3    H145930   1.282   4.189   6.463  0.6688  0.2472  0.5285
 7245TIP3    H245931   1.216   4.200   6.598  2.3700  0.6141  1.3582
 7246TIP3   OH245932   1.926   3.879   6.613  0.2426 -0.0793 -0.3849
 7246TIP3    H145933   1.882   3.873   6.698 -1.2571 -0.8446 -1.1690
 7246TIP3    H245934   1.897   3.963   6.577  0.9045  0.2602 -0.1539
 7247TIP3   OH245935   1.166   0.712   7.096  0.0976 -0.5259  0.2099
 7247TIP3    H145936   1.089   0.753   7.056 -1.4318 -1.3976  2.1216
 7247TIP3    H245937   1.182   0.635   7.041 -0.9200 -0.7873  0.2537
 7248TIP3   OH245938   4.897   1.641   7.436 -0.3447  0.1962 -0.5671
 7248TIP3    H145939   4.991   1.646   7.450 -0.4344  0.3859  0.0098
 7248TIP3    H245940   4.859   1.666   7.520 -0.9575  2.7473 -1.5153
 7249TIP3   OH245941   5.512   0.151   8.165 -0.1296  0.4381  0.2271
 7249TIP3    H145942   5.454   0.141   8.241  0.8862 -0.5076  0.9140
 7249TIP3    H245943   5.486   0.234   8.126 -1.0957  0.6466  1.2509
 7250TIP3   OH245944   1.888   3.237   7.018  0.0043  1.0043  0.4732
 7250TIP3    H145945   1.981   3.247   7.002 -0.1018  1.0060 -0.1516
 7250TIP3    H245946   1.881   3.222   7.113  0.6758  0.5096  0.4485
 7251TIP3   OH245947   3.748   3.155   9.512  0.2421  0.6412 -0.1580
 7251TIP3    H145948   3.841   3.175   9.501  0.2506  0.3470 -0.6738
 7251TIP3    H245949   3.748   3.064   9.542  0.0967  0.3788 -0.9345
 7252TIP3   OH245950   5.260   3.794   7.584 -0.2830  0.1241 -0.6837
 7252TIP3    H145951   5.170   3.826   7.581 -0.7739 -1.1081  0.3892
 7252TIP3    H245952   5.300   3.841   7.657 -1.0655 -1.7221  1.0315
 7253TIP3   OH245953   3.818   0.353   8.758 -0.0660 -0.4808 -0.1781
 7253TIP3    H145954   3.781   0.321   8.675 -1.5592  1.3847 -0.2971
 7253TIP3    H245955   3.910   0.327   8.756 -0.4462 -1.8547 -1.6816
 7254TIP3   OH245956   1.946   1.035   9.653 -0.2060 -0.7648 -0.3163
 7254TIP3    H145957   2.033   1.015   9.619 -0.0760 -0.2532 -0.3061
 7254TIP3    H245958   1.954   1.125   9.686 -1.5170  0.4906 -3.0612
 7255TIP3   OH245959   5.713   1.793   8.817 -0.3115 -1.2141 -0.7902
 7255TIP3    H145960   5.674   1.789   8.905  1.5705 -0.9220  0.1056
 7255TIP3    H245961   5.651   1.843   8.765 -0.5791  0.2886  0.8894
 7256TIP3   OH245962   0.767   0.867   7.296 -0.7582 -0.4867 -0.5027
 7256TIP3    H145963   0.783   0.959   7.274 -0.7364 -0.3531  0.0362
 7256TIP3    H245964   0.844   0.820   7.263  0.8120  0.1337  1.9911
 7257TIP3   OH245965   5.125   3.833   6.963  0.0807  0.5169 -0.1346
 7257TIP3    H145966   5.162   3.886   7.034  0.4454  1.5952 -1.1054
 7257TIP3    H245967   5.126   3.890   6.887 -2.9360  0.3824 -0.4102
 7258TIP3   OH245968   4.859   4.109   9.170 -0.3031 -0.2973 -0.1376
 7258TIP3    H145969   4.881   4.097   9.078  0.3368 -0.6595  0.0575
 7258TIP3    H245970   4.769   4.141   9.170  0.4895  2.1179 -1.0139
 7259TIP3   OH245971   4.505   6.050   7.055  0.1992  0.1703 -0.5106
 7259TIP3    H145972   4.580   6.002   7.021  0.1964  0.5854 -1.1053
 7259TIP3    H245973   4.460   5.986   7.111  2.0123  0.4559  1.4077
 7260TIP3   OH245974   5.212   5.022   6.999 -0.1745 -0.2980  0.0470
 7260TIP3    H145975   5.245   5.056   6.915  3.6652 -1.6813  0.8011
 7260TIP3    H245976   5.165   4.942   6.976 -1.6523  0.8064 -0.9513
 7261TIP3   OH245977   1.632   2.374   9.032  0.7970  0.6146 -0.4907
 7261TIP3    H145978   1.706   2.343   8.979  1.2506 -0.4073  0.6768
 7261TIP3    H245979   1.555   2.334   8.993  1.1663 -0.4198 -0.2039
 7262TIP3   OH245980   3.034   5.000   7.665  0.1792  0.5529 -0.1981
 7262TIP3    H145981   3.106   5.046   7.623  1.2006  0.1624  1.0632
 7262TIP3    H245982   2.994   5.066   7.722  0.1201  0.5324 -0.2156
 7263TIP3   OH245983   4.391   2.930   7.531 -0.3127  0.2608  0.0649
 7263TIP3    H145984   4.416   3.023   7.536 -0.3313  0.2960 -0.4568
 7263TIP3    H245985   4.344   2.914   7.612 -0.4762  0.7598  0.0755
 7264TIP3   OH245986   6.661   0.568   8.296 -0.0518 -0.0364 -0.2459
 7264TIP3    H145987   6.627   0.530   8.377 -0.1582 -1.3115 -0.8662
 7264TIP3    H245988   6.728   0.629   8.326  0.1936 -0.7728  0.8020
 7265TIP3   OH245989   0.813   6.482  14.320  0.2704 -0.0629 -0.2038
 7265TIP3    H145990   0.852   6.481  14.232 -2.0642 -2.8241 -1.3959
 7265TIP3    H245991   0.727   6.523  14.307  1.5033  3.6161  1.8332
 7266TIP3   OH245992   4.391   2.634   8.131 -0.0878  0.4264  0.0169
 7266TIP3    H145993   4.373   2.727   8.137  1.4970  0.7453  0.1808
 7266TIP3    H245994   4.410   2.607   8.221  2.1743  0.5619 -0.3719
 7267TIP3   OH245995   2.802   3.376   6.435  0.2532 -0.3986 -0.2413
 7267TIP3    H145996   2.741   3.449   6.446 -0.4042 -1.1273  1.3285
 7267TIP3    H245997   2.745   3.298   6.433  1.0105 -0.9461 -0.7443
 7268TIP3   OH245998   0.255   4.538   7.181 -0.2458  0.4057 -0.0404
 7268TIP3    H145999   0.268   4.471   7.115  0.0154  0.7879 -0.3757
 7268TIP3    H246000   0.181   4.590   7.149 -0.9746 -0.2099  0.6136
 7269TIP3   OH246001   5.524   6.196   7.541  0.0345  0.3550  0.0684
 7269TIP3    H146002   5.497   6.137   7.612 -1.5629  0.0543 -0.7509
 7269TIP3    H246003   5.452   6.258   7.533 -0.5133 -0.4805 -2.2361
 7270TIP3   OH246004   3.266   2.348   8.515  0.4208  0.7455 -0.0640
 7270TIP3    H146005   3.341   2.304   8.476  0.8748  0.2162  1.3435
 7270TIP3    H246006   3.195   2.336   8.452  1.1905  0.1969 -0.8487
 7271TIP3   OH246007   3.110   4.268   6.635 -0.2782  0.9231 -0.5097
 7271TIP3    H146008   3.189   4.321   6.628 -0.2226  1.0376  0.8150
 7271TIP3    H246009   3.129   4.205   6.704 -1.9569  2.0958  1.1196
 7272TIP3   OH246010   1.330   4.232   9.647 -0.1702 -0.0586 -0.2495
 7272TIP3    H146011   1.244   4.190   9.647  0.3730 -1.2058 -0.6057
 7272TIP3    H246012   1.311   4.325   9.635 -1.6892  0.4945  4.5297
 7273TIP3   OH246013   0.643   1.572   9.230 -0.2064  0.0668 -0.6968
 7273TIP3    H146014   0.554   1.571   9.265 -0.3660  0.5198 -1.0783
 7273TIP3    H246015   0.634   1.606   9.141  0.4369  0.8243 -0.4813
 7274TIP3   OH246016   5.586   6.043   8.217 -0.1410 -0.2375  1.2401
 7274TIP3    H146017   5.622   5.999   8.295  0.2172 -1.9701  0.1506
 7274TIP3    H246018   5.640   6.011   8.145 -1.0116  0.6848  0.1551
 7275TIP3   OH246019   4.309   4.456   8.611  0.2219  0.7106  0.1834
 7275TIP3    H146020   4.291   4.546   8.637  0.2120  0.5864  0.6185
 7275TIP3    H246021   4.236   4.432   8.555  0.5569  1.1891 -0.4613
 7276TIP3   OH246022   6.597   1.135   8.258 -0.1825 -0.2003  0.0138
 7276TIP3    H146023   6.536   1.105   8.191  0.1753  1.5958 -1.1659
 7276TIP3    H246024   6.568   1.223   8.281 -1.1894 -1.2333  3.3936
 7277TIP3   OH246025   2.422   2.145   8.014  0.3125  0.0293 -0.5328
 7277TIP3    H146026   2.431   2.196   7.933  2.7801  1.9063  0.7656
 7277TIP3    H246027   2.480   2.070   8.001  0.6759  0.3058 -0.5507
 7278TIP3   OH246028   1.497   4.505   8.850  1.1578 -0.1536 -0.7874
 7278TIP3    H146029   1.578   4.521   8.801  1.1344 -1.5963 -1.3564
 7278TIP3    H246030   1.513   4.543   8.936  1.1639  2.5385 -1.8893
 7279TIP3   OH246031   5.277   5.837   8.408 -0.5609 -0.3341 -0.5489
 7279TIP3    H146032   5.217   5.770   8.441  0.9677 -2.6878 -2.2873
 7279TIP3    H246033   5.226   5.882   8.340 -1.0834 -0.7646 -0.4554
 7280TIP3   OH246034   5.034   3.660   6.756 -0.0808 -0.0780 -0.4915
 7280TIP3    H146035   5.093   3.685   6.828 -0.2869  0.6948 -0.5832
 7280TIP3    H246036   4.965   3.726   6.757 -0.1486 -0.1245 -1.3293
 7281TIP3   OH246037   6.345   1.152   7.534  0.4505 -0.3312 -0.3752
 7281TIP3    H146038   6.362   1.128   7.625 -0.6562 -3.2452 -0.8185
 7281TIP3    H246039   6.280   1.222   7.540  2.1233  1.2064  1.0397
 7282TIP3   OH246040   4.829   4.013   7.043 -0.2599 -0.6113  0.3694
 7282TIP3    H146041   4.793   4.083   6.990  0.3399  1.7963  2.8787
 7282TIP3    H246042   4.917   3.999   7.008  0.5399  1.7022  1.2427
 7283TIP3   OH246043   3.961   0.361   9.037  1.1990 -0.0150  0.2310
 7283TIP3    H146044   3.982   0.362   8.943  1.1755  0.7429  0.2251
 7283TIP3    H246045   3.999   0.442   9.070 -0.5631  0.7518  0.4876
 7284TIP3   OH246046   4.746   5.441   7.378 -0.0045 -0.8613 -0.1959
 7284TIP3    H146047   4.657   5.450   7.345 -0.6002 -1.5966  1.1083
 7284TIP3    H246048   4.802   5.454   7.302 -1.1391  1.3042 -0.7205
 7285TIP3   OH246049   6.586   1.600  10.248  0.2332  0.1866 -0.3973
 7285TIP3    H146050   6.574   1.695  10.244  2.0114  0.5166  1.1319
 7285TIP3    H246051   6.673   1.585  10.211  0.8640 -0.6008  1.3222
 7286TIP3   OH246052   5.384   2.408   7.868 -0.1563 -0.1535 -0.1879
 7286TIP3    H146053   5.392   2.405   7.772  0.7134  1.7525 -0.2224
 7286TIP3    H246054   5.360   2.499   7.887 -1.4050 -0.7734  1.3552
 7287TIP3   OH246055   6.679   0.744   9.592  0.2830 -0.2560 -0.1123
 7287TIP3    H146056   6.730   0.679   9.639 -0.0226 -1.0480 -0.8458
 7287TIP3    H246057   6.654   0.701   9.510  0.9949  1.1494 -1.1194
 7288TIP3   OH246058   0.854   0.888   6.487  0.5259 -0.2080  0.6967
 7288TIP3    H146059   0.809   0.803   6.493 -0.3791  0.2527  0.5542
 7288TIP3    H246060   0.819   0.928   6.408  4.7216 -1.8450 -2.3166
 7289TIP3   OH246061   0.881   4.256   9.147  0.3676 -0.4150  0.2025
 7289TIP3    H146062   0.958   4.282   9.097  0.7972  0.9000  1.4750
 7289TIP3    H246063   0.887   4.305   9.229 -1.7236 -0.4074  0.4284
 7290TIP3   OH246064   1.127   0.984   6.744  0.1527 -0.6342 -0.1743
 7290TIP3    H146065   1.094   0.899   6.717  0.5385 -0.7822 -0.1833
 7290TIP3    H246066   1.185   0.965   6.818  0.2582 -0.3844 -0.1905
 7291TIP3   OH246067   5.086   0.758   7.600  0.9577  0.3816  0.3037
 7291TIP3    H146068   5.099   0.844   7.640  2.8002  1.3778 -2.2151
 7291TIP3    H246069   5.163   0.745   7.545 -0.1934 -2.0398 -0.8941
 7292TIP3   OH246070   3.265   2.610   9.925  0.1612 -0.6398 -0.6337
 7292TIP3    H146071   3.314   2.549   9.979 -1.0297 -0.8884  0.2161
 7292TIP3    H246072   3.181   2.567   9.910 -0.5648  0.6015 -0.3512
 7293TIP3   OH246073   4.840   5.692   8.383 -0.1573 -0.2558  0.0902
 7293TIP3    H146074   4.745   5.700   8.376 -0.1031 -0.5344 -1.0269
 7293TIP3    H246075   4.862   5.612   8.337  0.7293  0.3856 -0.6475
 7294TIP3   OH246076   4.111   4.719   6.287 -0.6568 -0.1170  0.1216
 7294TIP3    H146077   4.178   4.786   6.303 -0.8469  0.5332 -1.5368
 7294TIP3    H246078   4.028   4.766   6.296 -0.7850  0.1431 -1.8351
 7295TIP3   OH246079   0.871   2.969   6.777 -0.1393 -0.4325 -0.1484
 7295TIP3    H146080   0.841   2.889   6.735 -1.5089 -1.3316  2.3293
 7295TIP3    H246081   0.930   3.009   6.714 -2.1542 -1.5578 -2.9466
 7296TIP3   OH246082   0.801   5.813   6.639 -0.0072 -0.2896  0.0254
 7296TIP3    H146083   0.706   5.805   6.633 -0.1247 -0.2163  1.4551
 7296TIP3    H246084   0.819   5.904   6.617 -0.5021  0.2804  1.8194
 7297TIP3   OH246085   1.945   0.826   9.113  0.5816  0.6081 -0.2352
 7297TIP3    H146086   1.991   0.906   9.139 -0.0596  1.1575 -0.7384
 7297TIP3    H246087   2.011   0.774   9.067  0.9965  0.8660  0.0610
 7298TIP3   OH246088   5.185   3.432   7.974  0.2037  0.1778  0.3659
 7298TIP3    H146089   5.186   3.526   7.956 -0.0133  0.1616  0.2669
 7298TIP3    H246090   5.169   3.426   8.068 -0.6065  0.2265  0.2386
 7299TIP3   OH246091   1.920   5.859   7.658 -0.6460 -0.4896  0.0625
 7299TIP3    H146092   1.984   5.899   7.716 -1.4313  3.6177 -1.5718
 7299TIP3    H246093   1.968   5.791   7.612  1.9955  1.0647  0.3402
 7300TIP3   OH246094   6.575   5.577   7.907  0.5197  0.5702  0.4903
 7300TIP3    H146095   6.628   5.537   7.839  0.5685 -1.5675  1.6966
 7300TIP3    H246096   6.497   5.521   7.913  0.3350  0.9347  1.9143
 7301TIP3   OH246097   6.010   4.498   7.575 -0.6384  0.0208 -0.1967
 7301TIP3    H146098   5.925   4.491   7.618  0.2388 -2.5009  1.3390
 7301TIP3    H246099   5.990   4.502   7.481 -2.4509  0.3511  0.1761
 7302TIP3   OH246100   3.551   1.960   9.484  0.2983  0.3164 -0.1273
 7302TIP3    H146101   3.469   1.952   9.532  0.8505  1.1583  0.9738
 7302TIP3    H246102   3.589   1.872   9.488 -0.1267  0.1376  0.0965
 7303TIP3   OH246103   6.143   5.421   6.964 -0.1847 -0.9762 -0.4058
 7303TIP3    H146104   6.092   5.464   7.033  0.7705 -0.9369  0.2952
 7303TIP3    H246105   6.230   5.459   6.970 -0.0094 -1.1758 -1.4661
 7304TIP3   OH246106   6.601   5.314   7.033 -0.1487 -0.5028  0.0670
 7304TIP3    H146107   6.568   5.323   7.122  0.3137 -0.2952  0.2217
 7304TIP3    H246108   6.545   5.370   6.980 -1.2701 -1.6345  0.0016
 7305TIP3   OH246109   1.500   3.309   9.505 -0.3210 -0.2442  0.4722
 7305TIP3    H146110   1.495   3.330   9.598 -0.8723  1.1203  0.1567
 7305TIP3    H246111   1.408   3.305   9.477 -0.1454  0.0935 -0.1616
 7306TIP3   OH246112   0.389   2.602  11.012  0.0358  0.6958  0.2751
 7306TIP3    H146113   0.327   2.556  11.067  2.1020 -1.2680  1.1020
 7306TIP3    H246114   0.343   2.614  10.928 -1.0255 -1.8427  0.4223
 7307TIP3   OH246115   4.128   0.220   7.317 -0.5336 -0.0627 -0.0817
 7307TIP3    H146116   4.059   0.285   7.321  0.5842  1.1955 -0.4513
 7307TIP3    H246117   4.183   0.247   7.243  0.2207 -1.1606  0.0421
 7308TIP3   OH246118   6.005   2.580   8.098 -0.2101 -0.2207  0.2816
 7308TIP3    H146119   5.983   2.600   8.007  1.8445 -1.1315 -0.4870
 7308TIP3    H246120   5.951   2.504   8.119 -1.3107  0.4966  0.1290
 7309TIP3   OH246121   1.776   0.094   8.458 -0.0650  0.0055  0.4228
 7309TIP3    H146122   1.746   0.180   8.486  0.0968  0.1736  0.0946
 7309TIP3    H246123   1.796   0.048   8.539 -0.6023  0.1105  0.6172
 7310TIP3   OH246124   1.716   3.387   7.825 -0.1841  0.2587  0.1460
 7310TIP3    H146125   1.685   3.325   7.760 -0.0472  1.9884 -1.6622
 7310TIP3    H246126   1.808   3.363   7.839 -0.9082 -1.8257  1.8576
 7311TIP3   OH246127   2.073   1.150   7.037 -1.0507  0.2008 -0.0565
 7311TIP3    H146128   2.113   1.066   7.016 -1.9359  0.0174 -1.1616
 7311TIP3    H246129   1.981   1.139   7.013 -1.7613  0.6680  2.2086
 7312TIP3   OH246130   1.133   6.162   7.057 -0.5549 -0.5174 -0.8393
 7312TIP3    H146131   1.043   6.188   7.076 -1.1145 -2.0144 -1.2526
 7312TIP3    H246132   1.149   6.088   7.116  0.9975  0.7202  0.3910
 7313TIP3   OH246133   3.327   2.997   8.779 -0.0205  0.1016 -0.8802
 7313TIP3    H146134   3.349   2.939   8.707 -2.7618 -3.0769  0.6107
 7313TIP3    H246135   3.363   2.954   8.857 -3.4523 -0.6227  0.4644
 7314TIP3   OH246136   5.127   2.874   8.520  0.1173  0.3771  0.1993
 7314TIP3    H146137   5.199   2.938   8.527  0.5350  0.1383 -1.5223
 7314TIP3    H246138   5.099   2.879   8.429 -1.0663 -0.6278  0.4783
 7315TIP3   OH246139   1.908   3.641   7.676 -0.0721  0.0812  0.3194
 7315TIP3    H146140   1.820   3.634   7.712 -0.2125  1.7331  0.3480
 7315TIP3    H246141   1.966   3.626   7.751 -0.3119 -0.8196  0.3354
 7316TIP3   OH246142   2.047   0.630   7.719 -0.0131 -0.0605 -0.0283
 7316TIP3    H146143   2.086   0.669   7.798  2.2856  0.9327 -1.5672
 7316TIP3    H246144   2.041   0.703   7.657 -0.8586 -1.0351 -1.1326
 7317TIP3   OH246145   2.776   3.607   9.755  0.7764 -0.4110 -0.0679
 7317TIP3    H146146   2.833   3.657   9.815  1.1928  1.4021 -1.8619
 7317TIP3    H246147   2.827   3.601   9.674 -0.2398 -1.7783 -0.6237
 7318TIP3   OH246148   0.228   2.266   7.574  0.0747  0.7026 -0.0494
 7318TIP3    H146149   0.193   2.351   7.599 -0.6145  0.8133 -1.2971
 7318TIP3    H246150   0.280   2.283   7.496  1.9980  0.3393  1.0789
 7319TIP3   OH246151   3.144   1.977   6.907 -0.0936  0.6982 -0.0801
 7319TIP3    H146152   3.124   1.951   6.997 -0.0754  1.1229  0.0503
 7319TIP3    H246153   3.068   1.947   6.856 -0.1867  0.6183  0.1044
 7320TIP3   OH246154   1.981   0.469   6.679  0.1271 -0.4095  0.5817
 7320TIP3    H146155   1.959   0.393   6.732  0.0092  0.5122  1.9105
 7320TIP3    H246156   2.069   0.494   6.708 -0.1935  0.4878  0.8454
 7321TIP3   OH246157   0.948   2.095   9.472  0.3005  0.3344  0.2067
 7321TIP3    H146158   0.987   2.011   9.495  2.3077  0.9568 -0.6757
 7321TIP3    H246159   0.875   2.074   9.414 -0.6801 -0.8722  1.7885
 7322TIP3   OH246160   4.077   4.525   7.689 -0.3614 -0.7371 -0.1244
 7322TIP3    H146161   4.097   4.542   7.781  1.7739  1.8237 -0.9495
 7322TIP3    H246162   4.162   4.515   7.647 -1.0733  1.5257 -2.3515
 7323TIP3   OH246163   6.492   4.835   9.214 -0.4632 -0.1628 -0.3772
 7323TIP3    H146164   6.538   4.754   9.190  0.4548  0.3802 -0.5060
 7323TIP3    H246165   6.408   4.829   9.170  0.0677 -0.5114 -1.3630
 7324TIP3   OH246166   2.851   3.805   7.459 -0.0108 -0.9474 -0.1222
 7324TIP3    H146167   2.767   3.762   7.444 -0.2206 -0.8343  0.6900
 7324TIP3    H246168   2.862   3.805   7.554  1.0669 -1.2626 -0.2260
 7325TIP3   OH246169   6.355   0.346   8.485 -0.0032 -0.3169  0.8098
 7325TIP3    H146170   6.350   0.328   8.392  1.4573  1.8429  0.2398
 7325TIP3    H246171   6.448   0.336   8.507 -0.3321 -0.8930  2.0859
 7326TIP3   OH246172   4.408   2.049   6.349  0.0624  0.0308 -0.6658
 7326TIP3    H146173   4.397   2.141   6.324 -2.0946  0.1318  0.4204
 7326TIP3    H246174   4.319   2.014   6.350  0.6162 -1.4803  1.1282
 7327TIP3   OH246175   1.558   4.815   7.908 -0.0342 -0.3693  0.0754
 7327TIP3    H146176   1.549   4.842   8.000 -1.5926 -1.1336  0.1708
 7327TIP3    H246177   1.500   4.874   7.860 -0.5495 -1.0826 -0.1899
 7328TIP3   OH246178   5.986   5.938   8.328  0.1220  0.1694 -0.4431
 7328TIP3    H146179   5.908   5.983   8.360  0.1305 -0.1239 -0.0054
 7328TIP3    H246180   5.955   5.852   8.301  0.5607 -0.5596  1.2830
 7329TIP3   OH246181   2.951   6.531   6.959  0.3809  0.8049 -0.0771
 7329TIP3    H146182   2.925   6.439   6.948  0.2112  1.0358 -1.9641
 7329TIP3    H246183   2.906   6.559   7.038 -2.8982  0.3705 -1.5974
 7330TIP3   OH246184   1.922   0.870   8.039  0.4220 -0.6003  0.5653
 7330TIP3    H146185   1.871   0.895   7.962  3.0836 -1.6197 -1.7104
 7330TIP3    H246186   1.958   0.953   8.072 -1.3913 -0.0613  1.2955
 7331TIP3   OH246187   3.427   0.222   8.630  0.2104 -0.0480  0.0023
 7331TIP3    H146188   3.449   0.309   8.665  0.6499  0.1818 -0.8255
 7331TIP3    H246189   3.394   0.174   8.706 -0.3597  0.9449  0.4174
 7332TIP3   OH246190   2.532   3.230   9.278 -0.0237  0.4215 -0.2218
 7332TIP3    H146191   2.592   3.304   9.290  0.9289 -0.3815  0.0403
 7332TIP3    H246192   2.576   3.156   9.318 -0.9255 -0.3280 -0.5720
 7333TIP3   OH246193   6.440   4.322   8.564  0.1709  0.2387 -0.2474
 7333TIP3    H146194   6.486   4.278   8.635  1.0270 -0.2023 -1.0453
 7333TIP3    H246195   6.380   4.257   8.529 -0.1072  0.3908 -0.0503
 7334TIP3   OH246196   6.624   1.765   8.984  0.4650  0.3474  0.9497
 7334TIP3    H146197   6.719   1.777   8.976  0.4824 -0.1264  0.4357
 7334TIP3    H246198   6.614   1.677   9.020  0.1978  0.1083  0.2994
 7335TIP3   OH246199   3.582   5.879   8.404 -0.3125 -0.3899 -0.3232
 7335TIP3    H146200   3.644   5.845   8.340  1.9777  1.2107  0.9026
 7335TIP3    H246201   3.631   5.945   8.453 -2.4006 -0.4317  2.0648
 7336TIP3   OH246202   6.243   4.716   9.369  0.0228  0.3623 -0.1760
 7336TIP3    H146203   6.171   4.752   9.421  0.6208 -0.0586  0.9828
 7336TIP3    H246204   6.230   4.752   9.281 -1.4237  0.5185  0.0846
 7337TIP3   OH246205   2.419   2.162   6.669  0.4446 -0.0646  0.2909
 7337TIP3    H146206   2.360   2.099   6.710 -0.5040  1.0741  0.7378
 7337TIP3    H246207   2.418   2.238   6.727  0.6302  0.8265 -0.8197
 7338TIP3   OH246208   1.302   5.425   8.568  0.2054  0.1445  0.6306
 7338TIP3    H146209   1.332   5.514   8.586  1.4023 -0.4943  2.0136
 7338TIP3    H246210   1.382   5.372   8.570 -0.6669 -1.2222  1.6823
 7339TIP3   OH246211   3.138   1.021   8.231 -0.1038 -0.0806  0.5209
 7339TIP3    H146212   3.169   0.943   8.184  0.7431  0.4826  0.1036
 7339TIP3    H246213   3.177   1.094   8.183 -1.4804  0.6453  0.4645
 7340TIP3   OH246214   4.318   5.261   9.868 -0.1444  0.4569  0.3328
 7340TIP3    H146215   4.404   5.292   9.897  0.1100  0.7868 -0.7090
 7340TIP3    H246216   4.325   5.258   9.772 -0.8639 -0.8173  0.2965
 7341TIP3   OH246217   2.847   2.118   9.048 -0.1897  0.1766 -0.8335
 7341TIP3    H146218   2.929   2.084   9.013 -0.3606 -1.9032  0.6155
 7341TIP3    H246219   2.799   2.040   9.077 -2.2285  1.4180 -0.6890
 7342TIP3   OH246220   3.472   3.627   8.233  0.5539 -0.6764 -0.4676
 7342TIP3    H146221   3.554   3.620   8.283  1.5859  2.1933 -1.5361
 7342TIP3    H246222   3.477   3.712   8.191 -2.8902 -0.5206 -0.8679
 7343TIP3   OH246223   1.872   3.497   8.426  0.1021 -0.4394 -0.1899
 7343TIP3    H146224   1.849   3.487   8.334  0.1127  1.1375 -0.3888
 7343TIP3    H246225   1.952   3.548   8.426  0.3101 -0.7434  0.6931
 7344TIP3   OH246226   1.694   1.797   7.327  0.3742 -0.3506 -0.1785
 7344TIP3    H146227   1.658   1.734   7.264 -0.8800  0.2114 -0.0433
 7344TIP3    H246228   1.779   1.821   7.290 -0.0963 -0.4514 -1.3753
 7345TIP3   OH246229   2.575   0.416   9.718  0.1582 -0.1715 -0.1806
 7345TIP3    H146230   2.594   0.470   9.642 -1.3461 -1.0504 -1.2412
 7345TIP3    H246231   2.660   0.381   9.744  0.7943  0.6941 -1.0186
 7346TIP3   OH246232   0.440   4.889   8.540 -0.3660 -0.0967  0.0004
 7346TIP3    H146233   0.361   4.836   8.540 -0.8495  0.5773  1.2936
 7346TIP3    H246234   0.486   4.865   8.620  0.6254 -0.2811 -0.5940
 7347TIP3   OH246235   2.734   0.180   8.000  0.9391 -0.3116 -0.2279
 7347TIP3    H146236   2.702   0.124   8.071 -0.3612  0.9059  0.1953
 7347TIP3    H246237   2.708   0.269   8.026  0.8668  0.2198 -1.9945
 7348TIP3   OH246238   1.696   6.201   9.439  0.2307 -0.5264  0.3101
 7348TIP3    H146239   1.733   6.113   9.452 -1.0757 -1.2193 -0.3973
 7348TIP3    H246240   1.767   6.261   9.461  1.0336 -1.7601  1.1776
 7349TIP3   OH246241   0.829   6.695   8.971 -0.7127  0.5083  0.2844
 7349TIP3    H146242   0.862   6.642   8.899 -0.4844  0.3380  0.5150
 7349TIP3    H246243   0.850   6.785   8.946 -1.9625  0.5963 -0.5726
 7350TIP3   OH246244   2.211   3.914   6.603 -0.3421 -0.0502  0.0929
 7350TIP3    H146245   2.266   3.849   6.646  0.0322  0.8823  1.0694
 7350TIP3    H246246   2.122   3.891   6.629 -0.2455 -0.3743  0.1427
 7351TIP3   OH246247   0.665   1.917   9.400  0.7409  0.0668  0.0402
 7351TIP3    H146248   0.591   1.978   9.395 -1.5925 -2.5556  0.5789
 7351TIP3    H246249   0.710   1.927   9.316 -0.9386  0.8731 -0.8088
 7352TIP3   OH246250   0.811   6.422   6.247 -0.4824 -0.0829 -0.7143
 7352TIP3    H146251   0.721   6.396   6.269 -0.7980  0.1683 -1.6458
 7352TIP3    H246252   0.859   6.339   6.244 -0.3052 -0.1023  1.2785
 7353TIP3   OH246253   4.314   5.245   7.507  0.4682 -0.7262 -0.3314
 7353TIP3    H146254   4.303   5.238   7.412  1.9620  1.4185 -0.7315
 7353TIP3    H246255   4.225   5.239   7.541 -0.4750  1.2453 -2.1532
 7354TIP3   OH246256   6.169   0.607   8.675 -0.1783  0.0007 -0.8787
 7354TIP3    H146257   6.075   0.622   8.663 -0.2333  1.0403  0.5887
 7354TIP3    H246258   6.175   0.516   8.705 -0.8417  0.2794  0.1519
 7355TIP3   OH246259   2.071   1.332   7.515  0.8486  0.6071  0.0964
 7355TIP3    H146260   2.036   1.282   7.440  2.6507  0.0308 -0.4177
 7355TIP3    H246261   2.100   1.265   7.577  0.0176  1.0803  1.0123
 7356TIP3   OH246262   6.420   4.125   9.126 -0.0373  0.1882  0.4702
 7356TIP3    H146263   6.406   4.126   9.031  1.1378 -1.1820  0.2526
 7356TIP3    H246264   6.412   4.216   9.152 -0.3634  0.5931 -0.9502
 7357TIP3   OH246265   5.145   2.878   7.455 -0.4268 -0.1694  0.0280
 7357TIP3    H146266   5.200   2.954   7.434 -1.4925  0.5508 -0.2823
 7357TIP3    H246267   5.096   2.862   7.374 -1.8255  0.2319  0.7544
 7358TIP3   OH246268   4.513   4.133   6.622 -0.2942  0.3017 -0.2047
 7358TIP3    H146269   4.539   4.049   6.659  4.5163  2.5767  2.6019
 7358TIP3    H246270   4.489   4.187   6.697  0.2549  2.4080 -1.4394
 7359TIP3   OH246271   6.372   6.315   9.187 -0.1582  0.1180 -0.4998
 7359TIP3    H146272   6.352   6.223   9.169 -0.8811  0.1455  0.1163
 7359TIP3    H246273   6.386   6.353   9.100  0.1120 -0.5579 -0.7627
 7360TIP3   OH246274   6.590   1.468   8.706  0.4147 -0.3580  0.0406
 7360TIP3    H146275   6.633   1.390   8.742 -0.2906  0.2790  2.4442
 7360TIP3    H246276   6.661   1.530   8.691  0.6080 -0.0303  2.0619
 7361TIP3   OH246277   0.808   5.837   8.788 -0.1463 -0.1849  0.1433
 7361TIP3    H146278   0.805   5.746   8.817 -1.8993  0.1551  1.2001
 7361TIP3    H246279   0.735   5.879   8.834  0.7313  1.7987 -0.1666
 7362TIP3   OH246280   4.447   3.030  10.041  0.3786 -0.4670 -0.4038
 7362TIP3    H146281   4.483   3.106  10.086  0.6615  0.1934 -1.6968
 7362TIP3    H246282   4.384   3.067   9.978  1.3988 -1.1590 -1.9002
 7363TIP3   OH246283   3.085   3.874   8.719 -0.6116 -0.4190 -0.4531
 7363TIP3    H146284   3.079   3.805   8.785 -1.8123  0.8069  0.7963
 7363TIP3    H246285   3.079   3.828   8.635  0.6535 -1.9885  0.2846
 7364TIP3   OH246286   1.293   0.938   7.502  0.0713 -0.3139 -0.0096
 7364TIP3    H146287   1.244   1.012   7.465 -0.6184  0.2383  1.8970
 7364TIP3    H246288   1.261   0.862   7.452 -0.7067  0.3996 -0.6447
 7365TIP3   OH246289   2.190   0.620   6.531 -0.2017  0.1630 -0.0852
 7365TIP3    H146290   2.201   0.591   6.622 -0.3037 -1.2225 -0.4852
 7365TIP3    H246291   2.237   0.703   6.527 -0.2417  0.2787  1.2475
 7366TIP3   OH246292   3.688   5.192   9.237 -0.4050  0.3765  0.3872
 7366TIP3    H146293   3.679   5.274   9.285  1.4314  1.7022 -1.3891
 7366TIP3    H246294   3.764   5.204   9.180 -0.3977 -2.3626 -0.3683
 7367TIP3   OH246295   4.129   6.217   8.994 -0.2329 -0.1718  0.6174
 7367TIP3    H146296   4.187   6.274   8.943 -1.1259  2.3213  2.2104
 7367TIP3    H246297   4.061   6.191   8.931 -1.0741  2.4656  0.3362
 7368TIP3   OH246298   6.158   2.284   7.998 -0.7427 -0.4730  0.1057
 7368TIP3    H146299   6.224   2.327   8.053  1.2450  0.6835 -2.9239
 7368TIP3    H246300   6.077   2.331   8.017  0.5511  2.0374 -0.1699
 7369TIP3   OH246301   6.580   4.144   9.676 -0.0860 -0.2424  0.1006
 7369TIP3    H146302   6.670   4.129   9.706  0.6413  0.2546 -1.6910
 7369TIP3    H246303   6.538   4.191   9.749  1.2492 -0.0611  0.7852
 7370TIP3   OH246304   3.971   3.750   7.934 -0.5861  0.0545  0.3042
 7370TIP3    H146305   3.927   3.811   7.876  0.3730 -0.7594 -1.3338
 7370TIP3    H246306   4.045   3.799   7.969 -0.1064 -0.0066 -0.6132
 7371TIP3   OH246307   0.479   0.693   6.447  0.1205  0.2194  0.9644
 7371TIP3    H146308   0.558   0.711   6.498  1.9603 -0.0453 -1.5432
 7371TIP3    H246309   0.471   0.598   6.449  1.2823  0.0346 -0.5563
 7372TIP3   OH246310   0.315   2.257   9.652  0.2089  0.3840 -0.1533
 7372TIP3    H146311   0.354   2.169   9.657  1.6495  1.0092  0.1494
 7372TIP3    H246312   0.303   2.283   9.743  1.2993  1.1254 -0.2069
 7373TIP3   OH246313   1.472   6.718   8.647  0.4015  0.4235 -0.0193
 7373TIP3    H146314   1.417   6.713   8.725 -1.6648  1.9583 -1.2755
 7373TIP3    H246315   1.418   6.679   8.577  1.2445  1.1775 -1.1209
 7374TIP3   OH246316   1.105   4.600   6.308  0.1661  0.1890 -0.1124
 7374TIP3    H146317   1.154   4.667   6.259  0.3197  0.3794  0.2973
 7374TIP3    H246318   1.106   4.523   6.252 -0.7626  0.7897 -0.9968
 7375TIP3   OH246319   3.189   6.188   8.670  0.9075  0.1709 -0.0402
 7375TIP3    H146320   3.198   6.231   8.755  1.3927  0.1312 -0.0681
 7375TIP3    H246321   3.096   6.168   8.662  0.5803  1.6448 -0.2254
 7376TIP3   OH246322   4.540   1.505   8.981  0.1264  0.6127  0.1313
 7376TIP3    H146323   4.632   1.477   8.984  0.0265  0.3511  0.9411
 7376TIP3    H246324   4.544   1.599   8.994  0.3914  0.8710 -1.5729
 7377TIP3   OH246325   4.500   4.114   7.296  0.0635 -0.1986  0.0117
 7377TIP3    H146326   4.433   4.060   7.254 -1.4755  0.5251  1.4224
 7377TIP3    H246327   4.582   4.068   7.278 -0.5564 -0.3372 -3.0468
 7378TIP3   OH246328   4.397   4.578   8.112  0.2352 -0.1721  0.2743
 7378TIP3    H146329   4.380   4.614   8.199  0.5767 -0.7128  0.5746
 7378TIP3    H246330   4.311   4.574   8.070 -0.3258 -2.1511  1.4853
 7379TIP3   OH246331   5.297   5.057   9.177 -0.4325 -0.0068  0.0245
 7379TIP3    H146332   5.345   5.139   9.177 -1.3352  0.5361  0.9526
 7379TIP3    H246333   5.328   5.012   9.098 -0.3270  1.4431 -0.7982
 7380TIP3   OH246334   6.497   6.462   9.686  0.1007 -0.4605 -0.3803
 7380TIP3    H146335   6.579   6.486   9.730  0.0891 -0.6336 -0.2660
 7380TIP3    H246336   6.439   6.536   9.702  0.7363  0.3961 -1.7967
 7381TIP3   OH246337   1.879   2.029   8.737 -0.3743  0.4363 -0.1560
 7381TIP3    H146338   1.872   2.124   8.741  1.1280  0.5882 -0.7546
 7381TIP3    H246339   1.808   1.998   8.793 -0.5993  1.9071  0.4137
 7382TIP3   OH246340   6.100   6.681   8.138 -0.1104 -0.4047 -0.5482
 7382TIP3    H146341   6.038   6.617   8.104 -0.9291  1.4716 -2.8542
 7382TIP3    H246342   6.171   6.683   8.073 -0.8724  2.0708 -1.4315
 7383TIP3   OH246343   0.758   4.935   9.539  0.3156 -0.0251 -0.4657
 7383TIP3    H146344   0.689   4.872   9.517 -0.6549  0.6281  0.5733
 7383TIP3    H246345   0.768   4.927   9.634 -1.5907  3.0413  0.1285
 7384TIP3   OH246346   4.020   4.746   9.708  0.5205 -0.0199 -0.1151
 7384TIP3    H146347   4.106   4.751   9.752  1.2346 -0.7670 -1.3786
 7384TIP3    H246348   3.958   4.734   9.780  1.4949  0.2396  0.8072
 7385TIP3   OH246349   1.029   3.204   7.850  0.0275  0.7830  0.1742
 7385TIP3    H146350   1.093   3.141   7.882 -0.3879  0.0143 -0.4736
 7385TIP3    H246351   1.073   3.247   7.777  0.5439  1.7115  1.0083
 7386TIP3   OH246352   0.501   1.555   8.063 -0.2702  0.1080  0.0333
 7386TIP3    H146353   0.471   1.474   8.021 -0.7786  1.1432 -1.6967
 7386TIP3    H246354   0.582   1.577   8.017 -0.2607  0.7137  0.3319
 7387TIP3   OH246355   5.468   2.510   8.511 -0.1783 -0.1295 -0.1231
 7387TIP3    H146356   5.506   2.587   8.553 -0.0838  0.5285 -1.3872
 7387TIP3    H246357   5.475   2.527   8.417 -2.4192 -0.5724 -0.4178
 7388TIP3   OH246358   1.476   0.611   9.269  0.0482  0.0104  0.2723
 7388TIP3    H146359   1.572   0.613   9.262  0.1676 -0.8527  1.3650
 7388TIP3    H246360   1.458   0.659   9.350 -0.4941  0.5825 -0.1794
 7389TIP3   OH246361   0.975   2.966   8.255  0.4200 -0.3851 -0.6743
 7389TIP3    H146362   1.013   2.958   8.342 -1.3902 -2.2253  0.0362
 7389TIP3    H246363   1.025   3.035   8.212  0.0072  2.0933  2.5300
 7390TIP3   OH246364   3.025   1.943   8.760 -0.5564 -0.1053  0.0866
 7390TIP3    H146365   3.041   1.921   8.669  0.0102  0.5499  0.0230
 7390TIP3    H246366   3.075   2.023   8.775  1.6104 -1.6531  1.7176
 7391TIP3   OH246367   2.477   6.207   7.000 -0.1139 -0.0347  0.1193
 7391TIP3    H146368   2.519   6.203   6.914 -0.3483  2.2355 -0.1533
 7391TIP3    H246369   2.549   6.203   7.062  0.1716 -0.3061 -0.2263
 7392TIP3   OH246370   5.227   4.228   6.493 -0.3727  0.6382  0.1532
 7392TIP3    H146371   5.150   4.264   6.449 -0.1062  0.1530 -0.7347
 7392TIP3    H246372   5.270   4.174   6.426 -0.4899 -0.9340  1.2891
 7393TIP3   OH246373   5.253   2.583   7.069 -1.0155  0.0470 -0.0943
 7393TIP3    H146374   5.206   2.587   6.986  0.3314 -1.0133 -0.9566
 7393TIP3    H246375   5.264   2.489   7.087  0.7480  0.2438  0.0452
 7394TIP3   OH246376   3.308   3.286   6.671 -0.8101  0.5253 -0.5513
 7394TIP3    H146377   3.241   3.254   6.611  1.8169  0.7888 -3.9405
 7394TIP3    H246378   3.355   3.208   6.699 -0.6739  0.5924 -0.5915
 7395TIP3   OH246379   5.695   0.291   8.813  0.4224  0.0386  0.6826
 7395TIP3    H146380   5.632   0.356   8.844  0.3988  1.6922 -2.3876
 7395TIP3    H246381   5.644   0.232   8.758  1.0914 -0.2251  0.3370
 7396TIP3   OH246382   0.046   4.240   6.574  0.4074  0.6652  0.0943
 7396TIP3    H146383   0.106   4.235   6.500 -0.1001  0.2126 -0.2976
 7396TIP3    H246384   0.099   4.215   6.650  0.7213  0.2878 -0.2412
 7397TIP3   OH246385   0.114   4.797   8.841  0.3317 -0.3769  0.2106
 7397TIP3    H146386   0.108   4.779   8.934 -1.4447  0.8170  0.3847
 7397TIP3    H246387   0.137   4.890   8.836  1.2356 -0.6244 -0.5607
 7398TIP3   OH246388   5.319   2.504   9.676 -0.8644 -0.2542 -0.2222
 7398TIP3    H146389   5.388   2.490   9.611  0.4851 -0.9832  1.3027
 7398TIP3    H246390   5.249   2.548   9.627  0.3063 -0.2790 -2.0257
 7399TIP3   OH246391   0.405   0.514   7.117 -0.4375  0.2803  0.3265
 7399TIP3    H146392   0.426   0.484   7.029 -0.6707 -1.0096  0.6897
 7399TIP3    H246393   0.390   0.608   7.108  0.2790  0.2950 -0.8694
 7400TIP3   OH246394   6.678   2.896   8.395  0.6512 -0.0588  0.8186
 7400TIP3    H146395   6.596   2.919   8.351  0.9672  0.3229  0.4197
 7400TIP3    H246396   6.658   2.904   8.488  0.3837  0.5623  0.7157
 7401TIP3   OH246397   2.011   3.951   8.115 -0.0046 -0.0244  0.4708
 7401TIP3    H146398   1.991   3.988   8.029  1.7418  0.2799  0.1618
 7401TIP3    H246399   1.948   3.880   8.126  1.5752 -2.0680 -2.4176
 7402TIP3   OH246400   5.391   1.770   8.323  0.3247  0.0061  0.0835
 7402TIP3    H146401   5.390   1.700   8.258  2.0551 -0.1139  0.1235
 7402TIP3    H246402   5.410   1.726   8.406 -1.4591  0.2079  0.6406
 7403TIP3   OH246403   3.469   4.061   6.660  0.3219 -0.4953  0.4782
 7403TIP3    H146404   3.563   4.054   6.676  0.4440 -2.6465 -0.8808
 7403TIP3    H246405   3.461   4.071   6.565 -0.7951  1.1260  0.6991
 7404TIP3   OH246406   5.377   5.548   8.312  0.3031 -0.2317  0.2357
 7404TIP3    H146407   5.299   5.499   8.340 -0.6463  0.0868 -1.6826
 7404TIP3    H246408   5.427   5.486   8.259  1.5804 -0.5313  1.7159
 7405TIP3   OH246409   2.857   2.698   7.669 -0.8044  0.0551 -0.2309
 7405TIP3    H146410   2.803   2.686   7.747  0.5131 -1.3204  0.5266
 7405TIP3    H246411   2.849   2.791   7.648 -0.3180  0.7118  2.2242
 7406TIP3   OH246412   3.866   0.636   6.815  0.0830  0.0803 -0.0910
 7406TIP3    H146413   3.802   0.706   6.803 -0.7946 -0.3115  1.9220
 7406TIP3    H246414   3.904   0.652   6.901  0.0309 -1.7640  0.3248
 7407TIP3   OH246415   6.269   3.489   7.349 -0.4481 -0.0576  0.6806
 7407TIP3    H146416   6.251   3.579   7.378  1.0457 -0.3097  2.6456
 7407TIP3    H246417   6.355   3.493   7.309 -0.3552 -0.6117  0.8128
 7408TIP3   OH246418   6.268   3.476   9.385 -0.5052 -0.0548 -0.2217
 7408TIP3    H146419   6.248   3.564   9.417  0.1226 -0.4419  1.2956
 7408TIP3    H246420   6.184   3.431   9.384 -1.0825  0.9067 -2.3091
 7409TIP3   OH246421   1.333   3.019   9.395  0.3782 -0.7519  0.4193
 7409TIP3    H146422   1.287   2.950   9.348  1.4993 -1.4892  0.3601
 7409TIP3    H246423   1.278   3.036   9.472 -2.4064  1.6778 -1.8556
 7410TIP3   OH246424   1.009   5.112   7.938  0.0542 -0.1588  0.5250
 7410TIP3    H146425   0.980   5.020   7.946  1.0423 -0.5533 -0.2822
 7410TIP3    H246426   0.935   5.162   7.973 -2.1358 -1.0668 -2.3712
 7411TIP3   OH246427   5.505   1.922   8.644 -0.3723  0.2641 -0.1155
 7411TIP3    H146428   5.420   1.962   8.664 -0.3458 -0.3335  1.3430
 7411TIP3    H246429   5.551   1.988   8.592 -0.2926  2.2465  2.2816
 7412TIP3   OH246430   6.627   1.593  10.520 -0.3821  0.5398  0.1188
 7412TIP3    H146431   6.722   1.595  10.530 -0.2832  0.2338 -0.6421
 7412TIP3    H246432   6.613   1.566  10.429 -1.2009 -0.2864  0.4610
 7413TIP3   OH246433   3.266   0.935   8.668  0.3571  0.3271  0.2930
 7413TIP3    H146434   3.278   1.004   8.733  0.1674  2.5733 -1.9248
 7413TIP3    H246435   3.215   0.976   8.598 -1.1161 -2.5209 -0.4868
 7414TIP3   OH246436   6.012   4.559   8.406 -0.7462  0.9953  0.1571
 7414TIP3    H146437   6.104   4.551   8.382 -1.3410 -0.7887 -1.8329
 7414TIP3    H246438   5.989   4.473   8.442 -1.4719  1.6699  1.3771
 7415TIP3   OH246439   3.126   3.178   8.815 -0.2895  0.1256  0.4301
 7415TIP3    H146440   3.112   3.241   8.744  3.4825  0.0106 -0.6267
 7415TIP3    H246441   3.182   3.110   8.777 -0.1825 -1.2832  2.8636
 7416TIP3   OH246442   1.356   1.463   8.579  0.1928  0.4208  0.1281
 7416TIP3    H146443   1.353   1.534   8.642 -0.1860  0.2123  0.3476
 7416TIP3    H246444   1.346   1.506   8.494 -2.1391  0.4869  0.3565
 7417TIP3   OH246445   3.828   2.126   8.950 -0.3357  0.0348 -0.5895
 7417TIP3    H146446   3.798   2.130   9.041 -1.5064  0.4565 -0.9773
 7417TIP3    H246447   3.748   2.134   8.898  0.3229 -0.1853 -1.6607
 7418TIP3   OH246448   4.651   3.101   9.474 -0.3467 -0.4108  0.1556
 7418TIP3    H146449   4.615   3.144   9.396  0.3027  1.2023  0.7015
 7418TIP3    H246450   4.702   3.028   9.439  0.8011  0.8847 -1.0684
 7419TIP3   OH246451   2.980   0.976   9.387  0.8921 -0.5085  0.1571
 7419TIP3    H146452   2.972   0.884   9.364 -3.0367  0.2909 -2.7326
 7419TIP3    H246453   2.944   0.982   9.475 -0.6416 -1.5417 -0.3684
 7420TIP3   OH246454   4.934   1.349   7.624 -0.0989 -0.0499 -0.6636
 7420TIP3    H146455   4.839   1.346   7.636 -0.0267 -1.3599 -0.1536
 7420TIP3    H246456   4.966   1.404   7.696 -0.4572  0.1967 -0.6937
 7421TIP3   OH246457   1.840   6.489   7.033 -0.2528  0.0720  0.1129
 7421TIP3    H146458   1.753   6.529   7.041 -1.2225 -1.8634 -0.1243
 7421TIP3    H246459   1.865   6.506   6.943 -1.2917 -1.0157 -0.4110
 7422TIP3   OH246460   1.361   5.493   7.045 -0.0333 -0.2398  0.3588
 7422TIP3    H146461   1.293   5.543   7.000 -0.8863 -2.8929 -1.5823
 7422TIP3    H246462   1.439   5.502   6.990 -0.3735 -1.4443 -0.3745
 7423TIP3   OH246463   3.789   6.551   8.373 -0.3169  0.1441 -0.3511
 7423TIP3    H146464   3.873   6.562   8.328  1.9914 -3.6986  2.3944
 7423TIP3    H246465   3.753   6.470   8.338 -0.8810 -0.2970  1.1646
 7424TIP3   OH246466   2.812   1.090   8.778  0.2266 -0.0883 -0.7414
 7424TIP3    H146467   2.743   1.156   8.777  0.8549  0.5900 -2.1106
 7424TIP3    H246468   2.793   1.035   8.701  0.8510 -0.2675 -0.7739
 7425TIP3   OH246469   0.323   3.375  10.296 -0.0770  0.0128  0.1277
 7425TIP3    H146470   0.408   3.356  10.336 -0.5468  0.8096  1.5772
 7425TIP3    H246471   0.259   3.352  10.364 -1.0333 -0.5453 -0.9233
 7426TIP3   OH246472   6.581   3.901   8.138  0.6401  0.3235  0.9155
 7426TIP3    H146473   6.573   3.935   8.227  0.8607 -1.9936  1.8964
 7426TIP3    H246474   6.634   3.822   8.147 -0.9125 -1.0400 -0.9445
 7427TIP3   OH246475   4.712   5.655   7.602  0.5083 -0.4290  0.2259
 7427TIP3    H146476   4.728   5.582   7.541  2.7642  2.1731 -2.6207
 7427TIP3    H246477   4.785   5.651   7.663  0.1729 -1.0003  0.5983
 7428TIP3   OH246478   2.015   2.380   7.248 -0.0971 -0.4029 -0.4969
 7428TIP3    H146479   2.044   2.344   7.332 -0.4830 -1.6435 -0.8768
 7428TIP3    H246480   1.964   2.457   7.272  2.1234  0.9608  0.2649
 7429TIP3   OH246481   6.424   2.668   7.748  0.0511 -0.0867  0.4895
 7429TIP3    H146482   6.359   2.602   7.773  1.1090 -0.6627  1.8351
 7429TIP3    H246483   6.493   2.659   7.813  0.7065  1.6589  0.0773
 7430TIP3   OH246484   4.617   0.651   6.840 -0.3598  0.3560  0.1738
 7430TIP3    H146485   4.638   0.725   6.897 -1.2135 -0.2783  1.3680
 7430TIP3    H246486   4.521   0.645   6.844 -0.2669 -1.1983  0.6176
 7431TIP3   OH246487   4.158   1.194   6.686  0.1897 -0.0257  0.3360
 7431TIP3    H146488   4.088   1.232   6.632  1.4689  0.9909 -0.6790
 7431TIP3    H246489   4.116   1.174   6.769 -1.1460  1.2927  0.0286
 7432TIP3   OH246490   6.166   2.805   9.771 -0.0717  0.1000 -0.1571
 7432TIP3    H146491   6.157   2.748   9.695 -0.6511  1.1049 -0.8737
 7432TIP3    H246492   6.260   2.821   9.778 -0.1082  1.0948 -1.5265
 7433TIP3   OH246493   1.573   3.826   8.207  0.1617 -0.1858  0.1029
 7433TIP3    H146494   1.604   3.849   8.119  0.3494 -0.4790  0.0912
 7433TIP3    H246495   1.652   3.827   8.261 -0.2103  1.8770  0.6791
 7434TIP3   OH246496   2.535   0.761   8.251 -1.0278  0.5089  0.0087
 7434TIP3    H146497   2.523   0.738   8.159 -0.8379 -1.0554  0.3390
 7434TIP3    H246498   2.628   0.744   8.268 -1.1723  0.2753  0.6084
 7435TIP3   OH246499   2.528   0.500   8.428 -0.1195  0.1944  0.0410
 7435TIP3    H146500   2.526   0.538   8.341  0.6965 -0.1537 -0.1431
 7435TIP3    H246501   2.528   0.575   8.487  2.5509  0.5850 -0.3378
 7436TIP3   OH246502   3.716   5.487   9.271  0.4909  0.6694  0.6589
 7436TIP3    H146503   3.748   5.532   9.193 -1.4699  0.2282 -0.4697
 7436TIP3    H246504   3.686   5.558   9.329 -0.4196  0.9266 -0.1062
 7437TIP3   OH246505   3.401   3.681   8.491  0.6937  0.1738  0.6367
 7437TIP3    H146506   3.399   3.631   8.410 -1.5576 -1.2714  1.5097
 7437TIP3    H246507   3.442   3.622   8.554 -0.0390  0.2184  1.1671
 7438TIP3   OH246508   4.378   2.020   6.761  0.3918 -0.9688  0.6336
 7438TIP3    H146509   4.295   1.973   6.761 -0.5912  0.7058  0.6630
 7438TIP3    H246510   4.397   2.035   6.854  0.5427 -1.0376  0.6143
 7439TIP3   OH246511   3.790   3.239   7.997 -0.1257  0.0439  0.0303
 7439TIP3    H146512   3.756   3.301   7.933  0.6349 -0.1755 -0.5933
 7439TIP3    H246513   3.736   3.253   8.075 -1.1144  0.2519 -0.6776
 7440TIP3   OH246514   0.374   3.369   8.600  0.1313  0.0375 -0.4229
 7440TIP3    H146515   0.325   3.375   8.682 -0.4654  1.2407 -0.8370
 7440TIP3    H246516   0.452   3.319   8.622  1.0244  2.0893  1.4258
 7441TIP3   OH246517   3.860   2.593   7.991  0.1055 -0.0993 -0.0529
 7441TIP3    H146518   3.894   2.670   7.945 -2.0972  0.5376 -0.7588
 7441TIP3    H246519   3.918   2.582   8.066  1.1237  1.5935 -0.5348
 7442TIP3   OH246520   0.316   2.567   7.682 -0.5448 -0.1772 -0.2280
 7442TIP3    H146521   0.366   2.644   7.710  0.9573 -1.4265  0.6013
 7442TIP3    H246522   0.372   2.524   7.618 -0.8222 -1.2490  0.2365
 7443TIP3   OH246523   4.496   2.405   7.629  0.3004  1.0803 -0.3255
 7443TIP3    H146524   4.573   2.421   7.574  0.2965  0.6010 -0.4695
 7443TIP3    H246525   4.531   2.400   7.718  0.4164  1.0008 -0.3755
 7444TIP3   OH246526   0.088   4.550   7.903  0.1794  0.0218 -0.1933
 7444TIP3    H146527   0.112   4.466   7.942  0.6083  0.4094  0.4198
 7444TIP3    H246528   0.088   4.611   7.977 -1.0602  0.3859 -0.4645
 7445TIP3   OH246529   2.406   4.115   6.557  0.2124 -0.1236 -0.3882
 7445TIP3    H146530   2.336   4.049   6.558  0.4940 -0.4255 -0.3130
 7445TIP3    H246531   2.427   4.128   6.649  1.0457 -0.8861 -0.4629
 7446TIP3   OH246532   1.004   5.435   8.631  0.0470  0.1448 -0.1936
 7446TIP3    H146533   0.983   5.523   8.599 -2.5795 -0.3491 -0.0775
 7446TIP3    H246534   1.087   5.414   8.589  0.2803  2.3005 -0.9663
 7447TIP3   OH246535   5.772   2.539   8.450  0.4332 -0.2564  0.6734
 7447TIP3    H146536   5.772   2.444   8.443 -0.2668 -0.1914 -0.5846
 7447TIP3    H246537   5.843   2.559   8.512  2.2415 -1.4839 -0.8779
 7448TIP3   OH246538   1.360   2.466   9.465  0.5793 -0.7202  0.2338
 7448TIP3    H146539   1.416   2.483   9.390  0.0593 -2.2413 -0.5527
 7448TIP3    H246540   1.295   2.403   9.432 -1.4525  0.7769  1.1594
 7449TIP3   OH246541   5.271   6.122   7.746  0.4892 -0.2181 -0.1315
 7449TIP3    H146542   5.209   6.058   7.711 -1.3175  0.7933  1.0164
 7449TIP3    H246543   5.334   6.071   7.796  0.5693 -1.2860 -1.2758
 7450TIP3   OH246544   4.586   2.882   8.316 -0.9180 -0.0093 -0.3505
 7450TIP3    H146545   4.660   2.920   8.269 -0.4530 -1.3825 -0.7805
 7450TIP3    H246546   4.597   2.911   8.406 -0.2179  0.3289 -0.5356
 7451TIP3   OH246547   0.098   6.637   7.936 -0.6915  0.3165 -0.5842
 7451TIP3    H146548   0.175   6.668   7.983 -0.2934  0.7742 -1.5091
 7451TIP3    H246549   0.122   6.642   7.843 -1.5132 -0.3927 -0.8566
 7452TIP3   OH246550   3.115   5.005   9.576 -0.4712  0.0008  0.2175
 7452TIP3    H146551   3.168   5.000   9.656 -1.9184  0.3515  1.2593
 7452TIP3    H246552   3.138   5.089   9.537  0.5805 -0.3732  0.0230
 7453TIP3   OH246553   0.717   0.986   8.033  0.1014  0.1798 -0.3763
 7453TIP3    H146554   0.733   1.080   8.039 -1.2626  0.3909  0.6116
 7453TIP3    H246555   0.657   0.968   8.105 -1.1027 -1.1175 -1.6368
 7454TIP3   OH246556   3.926   5.550   9.484  0.1457  0.1483  0.0059
 7454TIP3    H146557   3.831   5.544   9.497  0.0499  0.8437 -0.3176
 7454TIP3    H246558   3.942   5.643   9.468  0.7824 -0.0776 -0.7384
 7455TIP3   OH246559   1.271   0.656   8.637 -0.4596  0.8183  0.2420
 7455TIP3    H146560   1.180   0.681   8.620 -0.6141  0.9143  1.1564
 7455TIP3    H246561   1.295   0.703   8.716 -0.5069 -1.2600  1.5890
 7456TIP3   OH246562   5.223   5.310   8.414 -0.0489  0.0616 -0.3428
 7456TIP3    H146563   5.173   5.243   8.460 -1.2844 -0.5625 -2.4606
 7456TIP3    H246564   5.308   5.269   8.399  0.5970  0.4953  1.7934
 7457TIP3   OH246565   6.097   2.720   9.008  0.1457  0.2249 -0.3148
 7457TIP3    H146566   6.013   2.701   8.966 -0.0113  0.3940 -0.0806
 7457TIP3    H246567   6.150   2.642   8.991 -0.9309 -1.0755  1.8064
 7458TIP3   OH246568   3.899   3.743  10.141 -0.1177 -0.0176 -0.1545
 7458TIP3    H146569   3.938   3.826  10.112  2.7755 -1.1735  0.0622
 7458TIP3    H246570   3.827   3.728  10.080  1.8309  0.7027 -2.8500
 7459TIP3   OH246571   0.633   6.222   8.063 -0.6471  0.1069  0.3047
 7459TIP3    H146572   0.639   6.210   8.157 -0.3991  1.0801  0.4159
 7459TIP3    H246573   0.554   6.273   8.050 -0.3055  0.5719  0.0404
 7460TIP3   OH246574   1.597   4.320   9.112 -0.5889 -0.4567 -0.4516
 7460TIP3    H146575   1.567   4.411   9.116  1.0927  0.1590 -1.1017
 7460TIP3    H246576   1.526   4.270   9.153 -2.0441  1.0069 -1.0595
 7461TIP3   OH246577   1.543   3.573   9.731  0.6590 -0.0858 -0.5494
 7461TIP3    H146578   1.520   3.621   9.811  0.4027 -2.2379  0.7460
 7461TIP3    H246579   1.636   3.590   9.719  1.3916 -1.8554  1.8334
 7462TIP3   OH246580   1.814   5.901   8.813 -0.3044 -0.4009  0.2184
 7462TIP3    H146581   1.773   5.826   8.856 -2.0886  0.0913 -0.5268
 7462TIP3    H246582   1.771   5.907   8.728  0.8487  0.5870 -0.3314
 7463TIP3   OH246583   3.080   4.427   8.824  0.3481 -0.1695 -0.5730
 7463TIP3    H146584   3.066   4.375   8.746 -0.1910 -0.9791  0.0474
 7463TIP3    H246585   3.012   4.494   8.821  0.5010 -0.0274 -0.9295
 7464TIP3   OH246586   4.709   1.948   7.070 -0.2594 -0.0311  0.0421
 7464TIP3    H146587   4.625   1.994   7.064 -0.3480 -0.2482 -0.4915
 7464TIP3    H246588   4.720   1.909   6.983  1.3250  1.6097 -0.5619
 7465TIP3   OH246589   4.698   5.855   7.005  0.6371 -0.6146 -0.0324
 7465TIP3    H146590   4.790   5.880   6.995  0.7049 -0.8771 -0.0564
 7465TIP3    H246591   4.679   5.799   6.930  0.5108 -0.7158  0.0737
 7466TIP3   OH246592   5.688   0.190   7.807 -0.2246  0.1565  0.6930
 7466TIP3    H146593   5.661   0.195   7.715 -0.2183 -0.6678  0.6442
 7466TIP3    H246594   5.606   0.200   7.856 -0.2597  0.3534  0.5955
 7467TIP3   OH246595   2.034   3.526   7.104  0.0252  0.0217 -0.4438
 7467TIP3    H146596   2.003   3.587   7.170  0.9600 -1.6429  1.6651
 7467TIP3    H246597   1.961   3.465   7.091  0.2174 -0.2927 -0.0866
 7468TIP3   OH246598   1.406   2.265   8.874  0.3135  0.4985 -0.1923
 7468TIP3    H146599   1.351   2.203   8.921  2.3609 -1.8168 -0.5994
 7468TIP3    H246600   1.381   2.351   8.908 -2.0515 -0.5956  1.0678
 7469TIP3   OH246601   2.626   3.011   8.270  0.4245 -0.3355  0.3689
 7469TIP3    H146602   2.628   2.956   8.192  0.9418  0.4282 -0.1739
 7469TIP3    H246603   2.697   2.978   8.325  0.3929 -0.5369  0.2888
 7470TIP3   OH246604   2.512   1.709   6.316 -0.5067  0.0718  0.0968
 7470TIP3    H146605   2.566   1.788   6.315  0.6701 -0.6719  1.5305
 7470TIP3    H246606   2.567   1.642   6.358 -2.2613 -0.9102  0.9599
 7471TIP3   OH246607   2.256   3.831   9.409 -0.1322 -0.1684  0.2436
 7471TIP3    H146608   2.239   3.924   9.393 -1.0598  0.1087  2.4839
 7471TIP3    H246609   2.327   3.809   9.348  1.2865  2.4360  0.7995
 7472TIP3   OH246610   5.769   3.491  10.737  0.0714 -0.1081  0.2000
 7472TIP3    H146611   5.707   3.436  10.690 -0.1971 -1.7551  2.3125
 7472TIP3    H246612   5.715   3.548  10.791  0.3760  1.6510 -1.2601
 7473TIP3   OH246613   4.205   2.911   8.820  0.2435 -1.0851 -0.7636
 7473TIP3    H146614   4.177   2.992   8.779  1.1651 -0.3329  0.0383
 7473TIP3    H246615   4.171   2.915   8.909  0.1146 -1.6782 -0.7800
 7474TIP3   OH246616   6.326   6.221   7.428 -0.2819 -0.2964 -0.7194
 7474TIP3    H146617   6.387   6.289   7.400 -0.0711 -0.4511 -0.6368
 7474TIP3    H246618   6.259   6.268   7.477  0.8356 -0.3587  0.9264
 7475TIP3   OH246619   4.871   4.062   8.895 -0.3844  0.4733  0.4740
 7475TIP3    H146620   4.962   4.038   8.880 -0.4798 -0.1919  0.9276
 7475TIP3    H246621   4.859   4.142   8.843  0.7339  1.1449  1.1914
 7476TIP3   OH246622   0.845   6.556   7.624  0.1921  0.1397 -0.1670
 7476TIP3    H146623   0.757   6.582   7.598 -0.2746 -2.0833 -0.9894
 7476TIP3    H246624   0.832   6.490   7.692  1.1959 -0.7733 -0.8318
 7477TIP3   OH246625   2.108   1.694   7.780 -0.3561 -0.1802 -0.3689
 7477TIP3    H146626   2.083   1.785   7.763 -0.9863 -0.1133  0.7739
 7477TIP3    H246627   2.156   1.666   7.702 -0.2410  1.1014 -0.7700
 7478TIP3   OH246628   6.641   2.527   9.703  0.5117 -0.4643 -0.0930
 7478TIP3    H146629   6.681   2.518   9.790 -1.5020  1.0414  1.0807
 7478TIP3    H246630   6.641   2.438   9.667 -0.6234 -1.6047  2.4369
 7479TIP3   OH246631   6.053   3.493  16.135  0.0981 -0.0416  0.4638
 7479TIP3    H146632   6.094   3.408  16.150 -0.1879 -0.1106  0.8858
 7479TIP3    H246633   5.962   3.473  16.113  0.4007  0.0840 -1.0152
 7480TIP3   OH246634   6.290   3.395   7.866 -0.3457 -0.0349 -0.2666
 7480TIP3    H146635   6.331   3.311   7.885 -1.3074  0.0058  2.4993
 7480TIP3    H246636   6.323   3.419   7.780  1.0568 -2.5578 -0.5346
 7481TIP3   OH246637   5.495   2.074   9.745  0.0834 -0.3894  0.4443
 7481TIP3    H146638   5.485   2.150   9.802 -1.2883 -0.8871  0.9086
 7481TIP3    H246639   5.406   2.047   9.725  0.5422 -1.8143  0.1957
 7482TIP3   OH246640   0.142   0.789   9.338 -0.2861 -0.4032  0.0422
 7482TIP3    H146641   0.104   0.724   9.398 -1.2016 -0.7120 -0.8402
 7482TIP3    H246642   0.137   0.872   9.386  1.4010 -1.0194  1.4069
 7483TIP3   OH246643   5.901   0.185   8.994 -0.1767  0.4476  0.3630
 7483TIP3    H146644   5.962   0.182   8.920  1.3479  2.2839  1.4474
 7483TIP3    H246645   5.825   0.135   8.964  1.3725 -1.0152 -1.4904
 7484TIP3   OH246646   3.275   2.299   7.286 -0.1045 -0.1052  0.2085
 7484TIP3    H146647   3.281   2.223   7.345  0.7230  0.9129  1.4961
 7484TIP3    H246648   3.366   2.325   7.273 -0.3998  0.8631  0.0549
 7485TIP3   OH246649   2.765   4.097   8.214  0.4122  0.7485  0.0511
 7485TIP3    H146650   2.766   4.056   8.127  0.5759  0.7133  0.0692
 7485TIP3    H246651   2.840   4.059   8.259 -0.5716 -0.4257  0.7657
 7486TIP3   OH246652   1.953   0.391   8.719  0.0149 -0.2505 -0.4911
 7486TIP3    H146653   2.011   0.391   8.796  0.7426 -0.1722 -1.0248
 7486TIP3    H246654   2.013   0.384   8.645 -0.5521  1.2519 -1.1409
 7487TIP3   OH246655   5.402   0.385   8.076  0.6152  0.0420  0.4862
 7487TIP3    H146656   5.370   0.472   8.099 -0.4043  0.0843 -0.9964
 7487TIP3    H246657   5.338   0.325   8.113  1.0926 -0.0826  1.1386
 7488TIP3   OH246658   3.386   2.866   6.537  0.3292  0.1051 -0.2865
 7488TIP3    H146659   3.309   2.892   6.487 -0.2932 -1.1945 -0.0360
 7488TIP3    H246660   3.373   2.773   6.555  0.5910  0.4881  2.1843
 7489TIP3   OH246661   0.181   4.803   8.575 -0.6288 -0.0626  0.2642
 7489TIP3    H146662   0.139   4.776   8.657 -0.8672  1.2987  0.6102
 7489TIP3    H246663   0.130   4.878   8.545  0.1764  0.1857 -0.5180
 7490TIP3   OH246664   2.669   5.427   7.956 -0.4322  0.1922 -0.6715
 7490TIP3    H146665   2.738   5.490   7.975 -1.1188  1.5519 -2.4178
 7490TIP3    H246666   2.625   5.461   7.878 -0.8185 -2.4786 -1.7410
 7491TIP3   OH246667   4.823   5.371   7.677 -0.0370 -0.1157  0.4402
 7491TIP3    H146668   4.877   5.419   7.614  0.8971 -0.1601  1.1955
 7491TIP3    H246669   4.864   5.388   7.762 -1.7177  0.5646  1.1607
 7492TIP3   OH246670   2.309   0.384   6.464  0.2766 -0.2698  0.2637
 7492TIP3    H146671   2.258   0.326   6.521 -1.7631  1.0525 -0.1013
 7492TIP3    H246672   2.264   0.468   6.469  0.7462  0.2305 -2.3329
 7493TIP3   OH246673   2.670   5.331   9.290  0.4644 -0.4523 -0.0520
 7493TIP3    H146674   2.692   5.313   9.199  0.1853 -0.3744 -0.1342
 7493TIP3    H246675   2.755   5.333   9.335  0.7176  0.8016 -0.5422
 7494TIP3   OH246676   5.748   5.899   9.688 -0.2662 -0.7313 -0.0656
 7494TIP3    H146677   5.754   5.824   9.629  0.2781 -1.4711  0.8980
 7494TIP3    H246678   5.657   5.928   9.681  0.0449 -0.1099 -2.0559
 7495TIP3   OH246679   6.235   5.735   6.928  0.3342 -0.0583 -0.0258
 7495TIP3    H146680   6.239   5.785   6.846 -1.5075 -0.5523 -0.4696
 7495TIP3    H246681   6.203   5.798   6.993 -2.2628 -0.6239 -0.6463
 7496TIP3   OH246682   2.507   3.557   8.830  0.0298  0.0570 -0.4266
 7496TIP3    H146683   2.450   3.480   8.826  0.3761 -0.1633 -1.4447
 7496TIP3    H246684   2.591   3.526   8.796  0.3168  0.7623 -0.3802
 7497TIP3   OH246685   0.044   5.293   7.857 -0.1735 -0.5066 -0.0547
 7497TIP3    H146686   0.031   5.222   7.920 -1.3446  0.1417  0.4756
 7497TIP3    H246687   0.023   5.254   7.772 -2.2310 -0.4744  0.3770
 7498TIP3   OH246688   0.155   1.837   6.775  0.3542 -0.1538 -0.3775
 7498TIP3    H146689   0.207   1.784   6.836 -0.6228 -0.1517  0.4887
 7498TIP3    H246690   0.090   1.775   6.740  0.7076 -0.0793 -1.2051
 7499TIP3   OH246691   3.908   4.636   8.733  0.2945 -0.4301 -0.0563
 7499TIP3    H146692   3.853   4.634   8.654 -0.5104 -0.4322  0.4908
 7499TIP3    H246693   3.849   4.610   8.804  1.2021 -1.1888  0.4455
 7500TIP3   OH246694   2.690   3.237   7.071  0.6256  0.1581  0.0065
 7500TIP3    H146695   2.692   3.299   7.145  0.4537  0.1813 -0.0091
 7500TIP3    H246696   2.711   3.152   7.111 -1.2421 -0.1534  0.4012
 7501TIP3   OH246697   0.050   1.408   6.633 -0.7131  0.2992 -0.4653
 7501TIP3    H146698   0.024   1.496   6.657 -1.0327  0.4505 -1.3336
 7501TIP3    H246699  -0.028   1.354   6.648  0.6661 -0.8017  4.5365
 7502TIP3   OH246700   5.865   4.575   9.433  0.4696  0.6803 -0.0867
 7502TIP3    H146701   5.953   4.557   9.466  0.2713  0.5654  0.3886
 7502TIP3    H246702   5.806   4.531   9.495  0.1168 -0.5111 -1.2192
 7503TIP3   OH246703   2.679   5.122   8.308  0.2635  0.1385  0.4536
 7503TIP3    H146704   2.716   5.176   8.377  2.1770  0.6216 -0.8414
 7503TIP3    H246705   2.703   5.032   8.332  0.0589  0.2010  0.8964
 7504TIP3   OH246706   3.446   3.686   7.183  0.2692 -0.2788  0.0430
 7504TIP3    H146707   3.474   3.755   7.243  1.2728  0.6834 -1.4523
 7504TIP3    H246708   3.374   3.642   7.228  0.7688  0.6004  1.7849
 7505TIP3   OH246709   4.256   0.576   9.343 -0.3994 -0.0461 -0.2934
 7505TIP3    H146710   4.245   0.500   9.400 -2.5478 -0.1352 -0.7249
 7505TIP3    H246711   4.341   0.613   9.367  1.9492 -3.9143 -1.6965
 7506TIP3   OH246712   5.081   0.612   8.363 -0.4070 -0.0151 -0.0269
 7506TIP3    H146713   5.082   0.664   8.444  1.6817 -0.1418  0.1071
 7506TIP3    H246714   5.131   0.665   8.301 -0.5329 -0.6714 -0.6958
 7507TIP3   OH246715   4.295   3.455   7.068 -0.0597 -0.1650  0.2576
 7507TIP3    H146716   4.224   3.483   7.126  1.2608  2.4332  0.7635
 7507TIP3    H246717   4.292   3.516   6.994  1.0122 -0.6640 -0.2310
 7508TIP3   OH246718   4.809   3.679   8.279 -0.0608  0.0477 -0.6828
 7508TIP3    H146719   4.795   3.589   8.307 -1.3234  0.4227 -0.0294
 7508TIP3    H246720   4.873   3.714   8.341 -1.1094  0.1850  0.3534
 7509TIP3   OH246721   4.132   0.881   7.923  0.0050 -0.2243 -0.1271
 7509TIP3    H146722   4.039   0.901   7.929 -0.4639 -2.0075 -0.8825
 7509TIP3    H246723   4.142   0.831   7.842  2.1327  2.3536 -1.6387
 7510TIP3   OH246724   6.547   2.900  10.917  0.1193 -0.1993 -0.2811
 7510TIP3    H146725   6.495   2.832  10.873  0.0401 -2.5236  3.0239
 7510TIP3    H246726   6.638   2.876  10.898  0.0761 -0.7416  0.1733
 7511TIP3   OH246727   4.006   2.410  10.004 -0.1400 -0.5317  0.1625
 7511TIP3    H146728   3.972   2.340  10.060 -0.0784 -0.5091  0.2294
 7511TIP3    H246729   3.929   2.451   9.967 -0.2009 -0.2235  0.6280
 7512TIP3   OH246730   6.409   5.827   7.897  0.3621  0.0979 -0.0714
 7512TIP3    H146731   6.454   5.749   7.867 -0.0325 -0.8532  1.6417
 7512TIP3    H246732   6.478   5.883   7.932  0.7822  1.0721 -2.2925
 7513TIP3   OH246733   2.523   0.100   9.038 -0.3685  0.2115 -0.6394
 7513TIP3    H146734   2.439   0.114   9.082  0.3929  1.6906  0.4339
 7513TIP3    H246735   2.570   0.039   9.096 -0.5523 -0.3522 -1.0704
 7514TIP3   OH246736   5.735   3.839   7.956 -0.4225 -0.3379 -0.2584
 7514TIP3    H146737   5.817   3.857   7.911  0.7036 -0.8027  1.4942
 7514TIP3    H246738   5.739   3.746   7.978 -1.0468 -0.1856  0.5607
 7515TIP3   OH246739   0.321   1.472   7.819  0.0724 -0.1558 -0.6950
 7515TIP3    H146740   0.393   1.496   7.761 -0.8274  1.1964 -1.3144
 7515TIP3    H246741   0.243   1.478   7.764 -0.6226 -0.6243  0.2038
 7516TIP3   OH246742   2.253   4.891   8.091 -0.2140  0.2904  0.7758
 7516TIP3    H146743   2.319   4.961   8.095  0.5587 -0.2255 -1.4401
 7516TIP3    H246744   2.295   4.816   8.132  0.5903  0.0108 -0.4787
 7517TIP3   OH246745   2.632   3.381   9.772  0.0766 -0.2363 -0.2161
 7517TIP3    H146746   2.552   3.432   9.787 -1.2223 -1.9195 -1.1582
 7517TIP3    H246747   2.701   3.447   9.768 -0.4858  1.0831  4.7178
 7518TIP3   OH246748   5.840   0.434   7.894  0.1125  0.4362  0.1477
 7518TIP3    H146749   5.805   0.349   7.868 -0.8914  0.8233  0.1925
 7518TIP3    H246750   5.844   0.484   7.812 -0.3082  0.6898  0.2760
 7519TIP3   OH246751   4.505   0.679   9.399 -0.2481  0.1377 -0.5482
 7519TIP3    H146752   4.537   0.593   9.423  0.0265  0.6640  1.0589
 7519TIP3    H246753   4.584   0.732   9.387 -0.3436  1.2406  2.7006
 7520TIP3   OH246754   2.086   2.351   6.709  0.3976  0.1404  0.0789
 7520TIP3    H146755   2.150   2.379   6.775 -0.4877  2.0049  0.1806
 7520TIP3    H246756   2.004   2.391   6.735 -0.3290 -0.3629 -1.3064
 7521TIP3   OH246757   1.501   1.115   7.665  0.0755  0.1519  0.2415
 7521TIP3    H146758   1.421   1.150   7.704 -0.6582 -2.0279  0.8361
 7521TIP3    H246759   1.512   1.029   7.706  1.3650 -0.6403 -1.6292
 7522TIP3   OH246760   3.758   1.485   7.210 -0.2901  0.1244  0.0394
 7522TIP3    H146761   3.710   1.537   7.146  0.9503 -0.1441 -1.1488
 7522TIP3    H246762   3.790   1.548   7.274 -2.0127  0.3322  0.7620
 7523TIP3   OH246763   1.250   2.745   7.088  0.2825  0.0369  0.0323
 7523TIP3    H146764   1.338   2.780   7.071  0.3101 -0.2974 -0.5309
 7523TIP3    H246765   1.253   2.656   7.054  0.1458 -0.4526  1.2625
 7524TIP3   OH246766   4.122   3.661  10.433  0.0379  0.0571 -0.0036
 7524TIP3    H146767   4.165   3.745  10.415 -0.4686  0.3331  0.0295
 7524TIP3    H246768   4.191   3.596  10.427  0.0175  0.1540 -2.5421
 7525TIP3   OH246769   4.488   1.300   9.164  0.3761 -0.1923  0.0147
 7525TIP3    H146770   4.540   1.300   9.245  0.2064 -0.7384  0.1257
 7525TIP3    H246771   4.527   1.369   9.111  1.9862 -1.3628 -0.3949
 7526TIP3   OH246772   0.337   1.059   7.397  0.4888  0.3428 -0.0991
 7526TIP3    H146773   0.355   0.965   7.403  0.5486  0.3248 -0.4860
 7526TIP3    H246774   0.287   1.079   7.476 -0.9215 -0.3426 -0.7621
 7527TIP3   OH246775   1.243   6.576   8.511 -0.4960  0.2040 -0.2337
 7527TIP3    H146776   1.183   6.627   8.457 -0.6840  0.6335  0.3719
 7527TIP3    H246777   1.194   6.560   8.592 -0.7428 -1.5821 -0.6895
 7528TIP3   OH246778   4.665   1.261   8.670 -0.1188 -0.5841  0.2307
 7528TIP3    H146779   4.690   1.179   8.712 -1.4124 -0.5875  1.0385
 7528TIP3    H246780   4.573   1.249   8.647  0.0701  0.1058 -0.9773
 7529TIP3   OH246781   4.924   0.004   9.083 -0.1635 -0.4110 -0.6763
 7529TIP3    H146782   5.004   0.055   9.098 -0.4843 -0.7589  3.2705
 7529TIP3    H246783   4.866   0.028   9.156 -3.0291 -1.4688 -2.4219
 7530TIP3   OH246784   2.540   5.271   7.375 -0.5461 -0.3003 -0.1766
 7530TIP3    H146785   2.477   5.253   7.304 -0.4862 -2.7048  0.3086
 7530TIP3    H246786   2.576   5.186   7.398  0.3689  0.5792  1.9314
 7531TIP3   OH246787   1.660   4.416   6.819 -0.1386 -0.1355 -0.4151
 7531TIP3    H146788   1.610   4.490   6.852  0.3187  0.9542 -2.0869
 7531TIP3    H246789   1.596   4.345   6.812 -0.5728  0.0530  1.2098
 7532TIP3   OH246790   0.769   6.185   7.556  0.1600 -0.2490  0.1158
 7532TIP3    H146791   0.699   6.124   7.537  0.3379 -0.3301 -0.2965
 7532TIP3    H246792   0.840   6.131   7.592  0.4995 -0.3622 -0.7069
 7533TIP3   OH246793   4.494   6.266   8.044  0.1058  0.2951 -0.3537
 7533TIP3    H146794   4.542   6.212   8.107 -0.7736  1.1169  1.0798
 7533TIP3    H246795   4.562   6.318   8.001  0.5353  2.0324  2.2127
 7534TIP3   OH246796   1.192   1.474   7.126  0.0850  0.0385  0.7293
 7534TIP3    H146797   1.245   1.429   7.061 -3.1876 -0.2721 -1.9615
 7534TIP3    H246798   1.187   1.565   7.095 -1.5497 -0.1236  0.4423
 7535TIP3   OH246799   0.433   1.908   6.718  0.2059  0.4187  0.3168
 7535TIP3    H146800   0.356   1.874   6.673  0.8888  0.9686 -1.3356
 7535TIP3    H246801   0.399   1.980   6.772 -0.2760  1.8719 -1.7724
 7536TIP3   OH246802   3.504   5.839   6.697 -1.0412  0.0097 -0.2432
 7536TIP3    H146803   3.410   5.857   6.689 -0.8834  0.5784 -0.9661
 7536TIP3    H246804   3.524   5.855   6.789 -1.5263  0.5332 -0.2210
 7537TIP3   OH246805   1.214   4.866   6.422 -0.5899 -0.1852 -0.3190
 7537TIP3    H146806   1.158   4.940   6.445  1.0895  0.5298  1.8417
 7537TIP3    H246807   1.207   4.806   6.496  0.4071 -0.7193 -0.6296
 7538TIP3   OH246808   4.539   2.732  10.061  0.0589  0.0537 -0.0946
 7538TIP3    H146809   4.486   2.713   9.983  0.6142 -1.8145 -0.0729
 7538TIP3    H246810   4.543   2.827  10.065 -2.0291  0.2233 -0.9409
 7539TIP3   OH246811   4.326   2.783   8.445 -0.7848  0.2750  0.1029
 7539TIP3    H146812   4.399   2.786   8.508  0.2353 -1.2209 -0.9553
 7539TIP3    H246813   4.363   2.818   8.364 -0.9646 -1.2739 -0.6775
 7540TIP3   OH246814   0.588   3.963   6.966  0.1685 -0.2508  0.4270
 7540TIP3    H146815   0.645   3.959   7.043  0.2245 -0.4733  0.3747
 7540TIP3    H246816   0.502   3.938   6.999  0.0864  0.1339  0.5162
 7541TIP3   OH246817   5.625   1.031   7.867  0.1671 -0.2008  0.2751
 7541TIP3    H146818   5.681   0.968   7.912 -1.9293 -0.9651  1.9573
 7541TIP3    H246819   5.549   0.981   7.838 -0.5021  1.1276 -0.3697
 7542TIP3   OH246820   3.560   0.550   9.187  0.1937 -0.0584 -0.4116
 7542TIP3    H146821   3.637   0.497   9.208 -0.0522 -0.2816 -0.0702
 7542TIP3    H246822   3.592   0.614   9.124  0.1876 -1.5526 -2.0277
 7543TIP3   OH246823   4.964   6.157   8.349 -0.1899  0.2149 -0.0889
 7543TIP3    H146824   5.006   6.176   8.265 -0.1516 -1.6965 -0.5502
 7543TIP3    H246825   4.997   6.225   8.408 -0.3948  1.7402 -1.6375
 7544TIP3   OH246826   5.553   3.964  10.256  0.1924  0.9471 -0.0966
 7544TIP3    H146827   5.595   3.939  10.339 -1.7133 -1.9847  0.1097
 7544TIP3    H246828   5.470   4.003  10.282  0.0085  0.9185 -0.6411
 7545TIP3   OH246829   2.715   1.304   7.501 -0.1623  0.5951 -0.5694
 7545TIP3    H146830   2.750   1.228   7.548  0.3791 -0.0215 -1.9033
 7545TIP3    H246831   2.760   1.379   7.539 -0.2305  0.1866  0.3429
 7546TIP3   OH246832   4.887   5.746   6.589  0.3548 -0.2817 -0.4527
 7546TIP3    H146833   4.897   5.840   6.604  1.0076 -0.2971 -0.7213
 7546TIP3    H246834   4.976   5.717   6.567 -0.0536 -0.7488 -1.5173
 7547TIP3   OH246835   4.919   3.908   7.801 -0.2614 -0.4947  0.1231
 7547TIP3    H146836   4.849   3.853   7.767  0.4245 -0.3384 -1.6824
 7547TIP3    H246837   4.982   3.914   7.729  1.0712  0.2918  1.2859
 7548TIP3   OH246838   2.214   6.324   6.952  0.0453  0.5623 -0.8559
 7548TIP3    H146839   2.128   6.308   6.912 -0.2508  0.1954 -0.0997
 7548TIP3    H246840   2.262   6.243   6.938  0.2461  0.7442 -1.2212
 7549TIP3   OH246841   5.990   1.807   6.352 -0.0056 -0.0068  0.1719
 7549TIP3    H146842   6.048   1.799   6.277 -1.4582  0.6423 -1.0580
 7549TIP3    H246843   6.047   1.840   6.423  0.9746  1.4435 -1.2137
 7550TIP3   OH246844   3.878   2.928   8.180  0.5483 -0.2005 -0.1028
 7550TIP3    H146845   3.931   2.940   8.101 -0.1254  0.2138 -0.4949
 7550TIP3    H246846   3.789   2.916   8.149  0.2219  0.2978  0.6113
 7551TIP3   OH246847   2.878   5.047  10.002  0.4197  0.4250  0.2315
 7551TIP3    H146848   2.800   5.089   9.966  0.2547  2.7256  2.9234
 7551TIP3    H246849   2.845   4.992  10.073  1.0611 -0.7307 -0.3417
 7552TIP3   OH246850   2.922   2.544   7.417  0.3629 -0.2311 -0.0514
 7552TIP3    H146851   2.881   2.582   7.339  0.3102  2.5894  1.2336
 7552TIP3    H246852   2.866   2.572   7.490  1.4004 -1.2283  1.1807
 7553TIP3   OH246853   4.790   3.616   7.310 -0.2394 -0.0118 -0.0945
 7553TIP3    H146854   4.880   3.650   7.314  0.5766 -2.1310  1.4396
 7553TIP3    H246855   4.748   3.652   7.388  0.0785 -0.9757  0.5455
 7554TIP3   OH246856   2.059   2.663   9.549 -0.8432 -0.0451  0.1824
 7554TIP3    H146857   2.004   2.638   9.623  1.7393 -3.0923  1.2698
 7554TIP3    H246858   2.123   2.724   9.587 -1.0598  0.4179 -0.1818
 7555TIP3   OH246859   1.613   6.395   9.221 -0.0594  0.3715  0.6850
 7555TIP3    H146860   1.612   6.474   9.276  0.5275  0.6744  0.2701
 7555TIP3    H246861   1.615   6.323   9.284 -2.5730  0.5822  1.1351
 7556TIP3   OH246862   6.688   3.646   8.141 -0.0665  0.3711 -0.3808
 7556TIP3    H146863   6.659   3.595   8.217  0.0660  3.3263  1.8590
 7556TIP3    H246864   6.778   3.616   8.125 -0.2907 -0.6985  0.2635
 7557TIP3   OH246865   1.212   0.987   7.754 -0.0411  0.3454  0.6587
 7557TIP3    H146866   1.187   0.909   7.803  0.9185 -0.1510  0.3794
 7557TIP3    H246867   1.231   0.954   7.666  1.5808  0.6755  0.8550
 7558TIP3   OH246868   6.301   2.663   7.510  0.3692 -0.0049 -0.0848
 7558TIP3    H146869   6.321   2.570   7.499  0.8244  0.3790 -3.7141
 7558TIP3    H246870   6.369   2.695   7.569  2.4377 -1.3369 -1.6143
 7559TIP3   OH246871   1.047   2.734   8.904 -0.0593 -0.0091  0.0130
 7559TIP3    H146872   1.105   2.810   8.902 -0.0533 -0.0302 -0.9999
 7559TIP3    H246873   0.994   2.742   8.824 -1.3143 -0.0978  0.8056
 7560TIP3   OH246874   1.728   3.964   9.265 -0.1456  0.1460 -0.2581
 7560TIP3    H146875   1.774   3.949   9.182 -0.4618  1.9274 -0.8090
 7560TIP3    H246876   1.791   3.938   9.332  0.4399 -0.5096 -1.0451
 7561TIP3   OH246877   4.443   5.387   8.851 -0.4543  0.1677 -0.1927
 7561TIP3    H146878   4.461   5.354   8.939 -1.3665  0.2579  0.0375
 7561TIP3    H246879   4.405   5.313   8.804  0.3745  0.0122 -0.6324
 7562TIP3   OH246880   2.788   2.590   8.380  0.1273  0.3441  0.0643
 7562TIP3    H146881   2.857   2.653   8.359 -0.5401  1.1667  0.3084
 7562TIP3    H246882   2.772   2.602   8.474 -0.7951  0.6220 -0.1177
 7563TIP3   OH246883   3.980   1.002   7.669 -0.4649 -0.3712 -0.3892
 7563TIP3    H146884   3.934   0.936   7.721  0.1718 -0.5001  0.0212
 7563TIP3    H246885   3.917   1.028   7.602 -1.6445  0.4717  0.9903
 7564TIP3   OH246886   1.641   2.523   8.274 -0.2943  0.0243  0.3451
 7564TIP3    H146887   1.569   2.482   8.321 -1.4227  1.7380  0.2011
 7564TIP3    H246888   1.719   2.476   8.304 -1.0214  0.4872  3.3497
 7565TIP3   OH246889   3.314   3.723   7.827  0.0257 -0.0602 -0.1156
 7565TIP3    H146890   3.378   3.747   7.893  0.2803 -1.4270  0.1715
 7565TIP3    H246891   3.302   3.802   7.775 -0.5261  1.1816  1.8126
 7566TIP3   OH246892   0.099   5.071   8.828 -0.1761  0.2554  0.3254
 7566TIP3    H146893   0.060   5.140   8.881  0.6457  1.3120 -0.3853
 7566TIP3    H246894   0.176   5.112   8.787 -0.6920 -0.5304 -1.5651
 7567TIP3   OH246895   3.397   2.990   9.066 -0.0495 -0.3697 -0.3277
 7567TIP3    H146896   3.318   3.019   9.113 -1.4346 -2.6960 -1.0596
 7567TIP3    H246897   3.442   3.071   9.043 -1.2915  0.9781  1.6470
 7568TIP3   OH246898   0.294   3.448   9.048  0.0839  0.5082  0.0873
 7568TIP3    H146899   0.222   3.510   9.061  0.2964  0.4711  1.6840
 7568TIP3    H246900   0.360   3.497   9.000 -1.1364  0.4183 -1.7801
 7569TIP3   OH246901   5.918   6.522   8.018  0.2966  0.3855  0.3200
 7569TIP3    H146902   5.910   6.472   7.937  0.2834 -0.4707  0.8249
 7569TIP3    H246903   5.836   6.571   8.025 -0.2985 -0.6012  0.4881
 7570TIP3   OH246904   2.540   3.459   6.849  0.2601 -0.2717  0.3025
 7570TIP3    H146905   2.557   3.365   6.843 -1.1798 -0.6063  1.0138
 7570TIP3    H246906   2.548   3.490   6.759 -0.4778 -1.3015 -0.1350
 7571TIP3   OH246907   5.804   5.098   8.477 -0.0529  0.2415  0.2266
 7571TIP3    H146908   5.884   5.044   8.479 -0.8265 -0.9415  1.7903
 7571TIP3    H246909   5.747   5.058   8.542 -1.3829  1.9246  0.1650
 7572TIP3   OH246910   2.873   3.942   7.209 -0.4222  0.0664  0.1213
 7572TIP3    H146911   2.852   3.924   7.300 -1.5883  1.1580  0.0929
 7572TIP3    H246912   2.965   3.915   7.200 -0.3224 -0.1590  1.5749
 7573TIP3   OH246913   0.773   5.238   6.760  0.3449  0.4344  0.0299
 7573TIP3    H146914   0.814   5.212   6.843  0.0628 -0.8882 -0.2193
 7573TIP3    H246915   0.707   5.303   6.785 -0.4682 -0.7094  0.9898
 7574TIP3   OH246916   3.515   0.286   7.090 -0.3275 -0.3268  0.0729
 7574TIP3    H146917   3.565   0.288   7.171 -0.0524  2.9962 -0.0509
 7574TIP3    H246918   3.529   0.372   7.051 -4.0382 -0.1742 -1.3031
 7575TIP3   OH246919   6.055   3.071   9.081 -0.1128  0.2311  0.4447
 7575TIP3    H146920   6.103   3.021   9.015  2.5661 -0.1642  2.5301
 7575TIP3    H246921   6.035   3.007   9.150 -1.2192  1.0121  0.8845
 7576TIP3   OH246922   1.834   1.627   8.625  0.0271 -0.1075  0.0483
 7576TIP3    H146923   1.792   1.690   8.684  0.1653  2.5882 -2.4877
 7576TIP3    H246924   1.928   1.647   8.632  0.0014  0.6520 -1.4180
 7577TIP3   OH246925   5.392   1.184   7.261  0.1269  0.9378 -0.4519
 7577TIP3    H146926   5.432   1.232   7.189  0.4058  2.5569  0.7205
 7577TIP3    H246927   5.359   1.252   7.320  0.9225 -0.2740  1.5083
 7578TIP3   OH246928   0.443   1.083   8.305  0.5524 -0.4310 -0.7276
 7578TIP3    H146929   0.393   1.104   8.383  0.8363  2.6198 -1.2595
 7578TIP3    H246930   0.535   1.092   8.332  0.6511  0.6638 -1.3845
 7579TIP3   OH246931   2.777   1.665   9.212  0.0484  0.4964 -0.4794
 7579TIP3    H146932   2.752   1.573   9.213 -0.4234  0.6179 -0.7050
 7579TIP3    H246933   2.870   1.665   9.187 -0.3540  0.1673 -2.0223
 7580TIP3   OH246934   4.465   2.087   7.042 -0.2502 -0.1364 -0.4622
 7580TIP3    H146935   4.398   2.082   7.110 -1.2772  0.5537 -1.3865
 7580TIP3    H246936   4.496   2.178   7.047 -0.4871 -0.0223 -1.0552
 7581TIP3   OH246937   4.599   4.104   8.298  0.5323 -0.1749 -0.0945
 7581TIP3    H146938   4.548   4.087   8.377 -0.1408 -1.5552 -0.8012
 7581TIP3    H246939   4.549   4.170   8.251  1.3346  1.2564  0.9550
 7582TIP3   OH246940   3.326   2.611   9.398  0.1695  0.3663 -0.0379
 7582TIP3    H146941   3.257   2.620   9.333 -0.2875 -3.5734 -0.3069
 7582TIP3    H246942   3.279   2.593   9.480  0.8346  2.2784  0.8211
 7583TIP3   OH246943   3.741   1.977   6.688 -0.1612 -0.5095 -0.6340
 7583TIP3    H146944   3.816   2.000   6.633  0.4484 -2.3796 -0.6725
 7583TIP3    H246945   3.665   2.012   6.641  0.6493  1.2658 -0.6851
 7584TIP3   OH246946   1.877   0.164   7.669  0.1852  0.2425 -0.3766
 7584TIP3    H146947   1.960   0.203   7.644  1.3199 -1.4830  0.4597
 7584TIP3    H246948   1.888   0.070   7.652 -2.1143  0.1057 -1.5820
 7585TIP3   OH246949   0.018   1.044   7.363  0.3733  0.0141 -0.1348
 7585TIP3    H146950   0.008   1.016   7.454 -0.0606  0.5978 -0.0017
 7585TIP3    H246951   0.088   0.988   7.329  1.4510  0.6824  0.9246
 7586TIP3   OH246952   0.998   1.783   9.288  0.2000  0.4065  0.7071
 7586TIP3    H146953   1.086   1.778   9.251 -0.0580  2.6405 -0.4110
 7586TIP3    H246954   1.013   1.798   9.381  0.9876 -0.0613  0.6657
 7587TIP3   OH246955   3.352   4.852   8.827  0.1606 -0.0229 -0.2078
 7587TIP3    H146956   3.414   4.803   8.774  0.4046  0.0597  0.0016
 7587TIP3    H246957   3.336   4.795   8.903  0.8396  0.4444  0.2920
 7588TIP3   OH246958   0.320   6.626   8.103  0.3952  0.3701  0.3135
 7588TIP3    H146959   0.404   6.612   8.059 -0.2845 -0.4945 -0.7486
 7588TIP3    H246960   0.314   6.553   8.165 -0.5065 -0.8128 -1.1122
 7589TIP3   OH246961   3.365   4.417   8.405 -0.5078 -0.2027 -0.0133
 7589TIP3    H146962   3.416   4.367   8.468 -2.0407 -0.1457  1.3431
 7589TIP3    H246963   3.312   4.351   8.359 -0.2520 -0.1265 -0.4231
 7590TIP3   OH246964   3.615   4.925   7.323 -0.4579 -0.5193 -0.7393
 7590TIP3    H146965   3.573   4.987   7.382  0.1083 -1.9098  1.2486
 7590TIP3    H246966   3.547   4.901   7.260 -1.0938  0.9707 -0.6564
 7591TIP3   OH246967   6.328   4.407  10.073 -0.4498 -0.2046  0.3342
 7591TIP3    H146968   6.238   4.440  10.072 -0.0076  1.0546  0.3583
 7591TIP3    H246969   6.375   4.466  10.132  0.7230  0.0654 -0.8343
 7592TIP3   OH246970   5.785   2.500   9.676 -0.3358 -0.1619 -0.1916
 7592TIP3    H146971   5.864   2.478   9.627 -0.6913 -0.5328 -0.6107
 7592TIP3    H246972   5.722   2.433   9.650 -1.1806  0.8542 -0.8361
 7593TIP3   OH246973   5.967   3.873   7.757  0.4257  0.1831  0.3315
 7593TIP3    H146974   6.023   3.951   7.749  3.6342 -2.0077 -0.7814
 7593TIP3    H246975   5.949   3.847   7.667  0.0916 -0.7882  0.6638
 7594TIP3   OH246976   1.545   4.042   7.090  0.5081  0.4933 -0.2867
 7594TIP3    H146977   1.578   3.995   7.013  0.7650 -0.4364  0.3735
 7594TIP3    H246978   1.520   4.128   7.056 -0.0282 -0.1300 -1.5377
 7595TIP3   OH246979   4.001   3.528   6.899 -0.5339  0.4274 -0.3352
 7595TIP3    H146980   4.063   3.600   6.908  0.6700 -0.5765 -0.2358
 7595TIP3    H246981   3.995   3.513   6.805  0.7376 -0.5681 -0.2878
 7596TIP3   OH246982   3.084   3.704   8.517  0.4470  0.0296  0.4157
 7596TIP3    H146983   3.148   3.647   8.560  1.0226 -0.3506 -0.8670
 7596TIP3    H246984   3.091   3.681   8.424 -0.6461  0.8960  0.0993
 7597TIP3   OH246985   3.590   0.341   8.352  0.0873  0.2813 -0.3149
 7597TIP3    H146986   3.675   0.301   8.374  0.7545  0.5786 -2.2175
 7597TIP3    H246987   3.583   0.415   8.411  0.1685 -0.9281  1.2916
 7598TIP3   OH246988   3.790   5.644   8.282  0.4247  0.2165 -0.2960
 7598TIP3    H146989   3.840   5.674   8.207 -1.6818  0.5153 -1.6689
 7598TIP3    H246990   3.766   5.554   8.261 -0.2777  0.3387 -0.0651
 7599TIP3   OH246991   6.615   6.442   8.327  0.1218  0.3549  0.2935
 7599TIP3    H146992   6.597   6.389   8.404 -1.9223 -0.4657 -0.6775
 7599TIP3    H246993   6.533   6.489   8.310  0.3494  0.1358 -1.6536
 7600TIP3   OH246994   3.100   6.027   8.349  0.1793 -0.4290 -0.8625
 7600TIP3    H146995   3.194   6.013   8.362 -0.0489 -0.2688  1.3619
 7600TIP3    H246996   3.091   6.122   8.342 -0.0194 -0.2096  1.5302
 7601TIP3   OH246997   1.260   3.999   8.873  0.0374 -0.4509  0.2293
 7601TIP3    H146998   1.297   3.914   8.897  0.6313 -0.4365 -0.5873
 7601TIP3    H246999   1.274   4.005   8.779 -0.4009  0.3652  0.2093
 7602TIP3   OH247000   0.606   3.224   7.961  0.3600 -0.0414 -0.4944
 7602TIP3    H147001   0.693   3.264   7.962  0.6295 -0.5886 -1.2405
 7602TIP3    H247002   0.567   3.249   8.045  0.4673  1.8725 -0.9811
 7603TIP3   OH247003   5.687   6.679   6.616 -0.1110  0.3302  0.0258
 7603TIP3    H147004   5.745   6.755   6.620  0.2813  0.1050 -1.0214
 7603TIP3    H247005   5.624   6.693   6.687  0.6937  1.0113  0.6271
 7604TIP3   OH247006   3.350   5.992   8.455 -0.1007  0.0800  0.2161
 7604TIP3    H147007   3.437   5.976   8.417 -0.0963 -0.8537  0.5795
 7604TIP3    H247008   3.369   6.042   8.535 -0.0775  1.6476 -0.7314
 7605TIP3   OH247009   3.672   1.217   6.393 -0.3875  0.1306 -0.1221
 7605TIP3    H147010   3.719   1.134   6.380 -0.1403  0.2654 -0.1018
 7605TIP3    H247011   3.591   1.207   6.343 -1.3102 -0.9168  1.4827
 7606TIP3   OH247012   5.648   2.070   7.700  0.1261 -0.1578  0.2680
 7606TIP3    H147013   5.684   2.040   7.783 -0.4797  0.9287  0.9396
 7606TIP3    H247014   5.556   2.042   7.703  0.3766 -1.1126 -0.5410
 7607TIP3   OH247015   4.273   0.634   7.093  0.5263 -0.3262 -0.5644
 7607TIP3    H147016   4.302   0.680   7.015  2.7294 -2.5503 -1.1846
 7607TIP3    H247017   4.350   0.633   7.150 -0.0136 -1.6220  0.1888
 7608TIP3   OH247018   2.827   4.129   9.712  0.0356  0.1619  0.5339
 7608TIP3    H147019   2.880   4.053   9.687 -0.4915  0.4691 -1.7459
 7608TIP3    H247020   2.882   4.205   9.689 -0.1069  0.4841  1.2346
 7609TIP3   OH247021   4.484   0.301   7.542 -0.4232  0.2724 -0.2703
 7609TIP3    H147022   4.392   0.325   7.549 -0.6803 -0.6086 -0.3890
 7609TIP3    H247023   4.484   0.228   7.479 -0.1784 -2.3088  2.5050
 7610TIP3   OH247024   6.223   2.711   8.197  0.3735 -0.3216  0.2009
 7610TIP3    H147025   6.150   2.672   8.149  0.5805  0.8380 -1.0971
 7610TIP3    H247026   6.251   2.642   8.258 -0.7225 -1.3678 -0.4373
 7611TIP3   OH247027   4.581   0.398   8.630  0.5449 -0.2846 -0.3906
 7611TIP3    H147028   4.612   0.488   8.637  1.2802 -0.4469 -1.4457
 7611TIP3    H247029   4.657   0.345   8.653 -0.5040 -0.6735  2.6708
 7612TIP3   OH247030   2.435   2.202   7.739 -0.1155  0.0030 -0.1507
 7612TIP3    H147031   2.388   2.281   7.713  0.1792  0.0448 -0.5749
 7612TIP3    H247032   2.508   2.196   7.677 -0.1172 -0.5854 -0.1055
 7613TIP3   OH247033   5.762   4.326   7.420 -0.3550 -0.3329  0.0251
 7613TIP3    H147034   5.678   4.290   7.391 -1.4606  2.5021 -0.6644
 7613TIP3    H247035   5.801   4.362   7.340 -0.2491  1.6009  0.8866
 7614TIP3   OH247036   2.555   5.155   6.638 -0.6772 -0.4888 -0.2336
 7614TIP3    H147037   2.571   5.062   6.655 -0.0143  0.0243  2.3541
 7614TIP3    H247038   2.638   5.187   6.602 -0.3623 -0.5744  0.4119
 7615TIP3   OH247039   4.814   2.723  10.031  0.0111  0.4410  0.0321
 7615TIP3    H147040   4.850   2.802  10.071  0.0495  0.2716  0.3346
 7615TIP3    H247041   4.725   2.718  10.065 -1.1516  2.1159 -2.4631
 7616TIP3   OH247042   2.628   3.098   8.976  0.0772 -0.5224 -0.3803
 7616TIP3    H147043   2.532   3.089   8.972  0.0797 -0.2642 -2.8159
 7616TIP3    H247044   2.653   3.051   9.055 -1.9966 -1.3451 -0.1364
 7617TIP3   OH247045   1.931   2.372   9.685 -0.8418  0.5578 -0.3459
 7617TIP3    H147046   1.885   2.432   9.627 -2.3975 -0.0589  0.1889
 7617TIP3    H247047   1.975   2.428   9.748 -2.7056  1.1851  0.4725
 7618TIP3   OH247048   1.343   3.224   9.189  0.5088 -0.1658 -0.1267
 7618TIP3    H147049   1.429   3.266   9.180  0.0847  1.6807  3.0134
 7618TIP3    H247050   1.358   3.150   9.247 -0.0043  0.0959  0.3404
 7619TIP3   OH247051   3.617   5.785   8.759 -0.8633  0.1151  0.5916
 7619TIP3    H147052   3.524   5.801   8.775 -0.7802  0.7029  0.5337
 7619TIP3    H247053   3.620   5.712   8.698 -1.3527  1.0511 -0.6082
 7620TIP3   OH247054   5.142   5.122   8.879 -0.1904  0.2791 -0.2957
 7620TIP3    H147055   5.191   5.041   8.892  1.0844  1.1621  0.6291
 7620TIP3    H247056   5.052   5.093   8.862  0.6750 -1.3810 -2.3646
 7621TIP3   OH247057   2.277   4.031   7.938  0.3275  0.2156  0.6905
 7621TIP3    H147058   2.202   3.991   7.982  0.4340 -0.7495  0.0361
 7621TIP3    H247059   2.276   3.993   7.850  1.4736  0.3356  0.6125
 7622TIP3   OH247060   1.189   1.235   7.462  0.8975  0.6809 -0.1837
 7622TIP3    H147061   1.206   1.327   7.484  0.4188  0.8514 -0.4974
 7622TIP3    H247062   1.136   1.239   7.382 -0.8499  0.2219  0.8914
 7623TIP3   OH247063   5.921   6.105   9.550 -0.3782 -0.5849  0.3741
 7623TIP3    H147064   5.861   6.042   9.590 -0.2295 -0.3545  0.9707
 7623TIP3    H247065   6.008   6.079   9.582 -0.3267 -0.0213  0.7040
 7624TIP3   OH247066   2.925   3.338   9.999 -0.0081  0.1534  0.3413
 7624TIP3    H147067   2.959   3.409  10.053  0.2409  0.7809 -0.6237
 7624TIP3    H247068   2.999   3.311   9.945 -0.2318 -0.5188  0.3636
 7625TIP3   OH247069   3.912   4.358   6.497  0.4620 -0.0987  0.5591
 7625TIP3    H147070   3.978   4.392   6.436  1.3755 -0.1106  1.5139
 7625TIP3    H247071   3.910   4.264   6.480 -0.9580  0.1603 -1.0166
 7626TIP3   OH247072   5.789   2.737   8.230  0.1857 -0.1410 -0.0380
 7626TIP3    H147073   5.883   2.723   8.235  0.0104 -1.2302  0.5966
 7626TIP3    H247074   5.751   2.650   8.245 -0.8984  0.0623 -1.3704
 7627TIP3   OH247075   1.315   2.815  10.818  0.4482 -0.2013 -0.4141
 7627TIP3    H147076   1.279   2.733  10.784  0.5740 -0.6515  0.4883
 7627TIP3    H247077   1.408   2.796  10.834  0.0244 -0.6403  1.9272
 7628TIP3   OH247078   5.218   2.483   9.361  0.3389 -0.2643 -0.4288
 7628TIP3    H147079   5.312   2.490   9.382  0.5019 -0.5988 -1.0245
 7628TIP3    H247080   5.185   2.420   9.425  0.5945 -0.4138 -0.4398
 7629TIP3   OH247081   4.388   3.430   9.675 -0.0738  0.0686 -0.6949
 7629TIP3    H147082   4.457   3.408   9.613  0.2761 -0.0233 -0.2752
 7629TIP3    H247083   4.313   3.377   9.647 -0.3493  1.0294 -1.8524
 7630TIP3   OH247084   4.546   5.400   7.605 -0.1216 -0.2407 -0.2216
 7630TIP3    H147085   4.517   5.309   7.601  0.7205 -0.4854 -1.4314
 7630TIP3    H247086   4.640   5.395   7.624  0.4999  0.2197 -2.7808
 7631TIP3   OH247087   6.418   3.863   7.812  0.0821  0.4389 -0.1414
 7631TIP3    H147088   6.420   3.873   7.717 -1.0507 -1.5685 -0.4428
 7631TIP3    H247089   6.330   3.829   7.830  0.7511 -0.5474  1.4507
 7632TIP3   OH247090   5.816   5.353   9.148 -0.0456  0.4295  1.1577
 7632TIP3    H147091   5.903   5.357   9.108 -0.6250  1.1251 -0.0920
 7632TIP3    H247092   5.827   5.393   9.234  1.3721 -1.6559  2.0114
 7633TIP3   OH247093   6.305   2.867   7.051  0.0355  0.0523  0.2546
 7633TIP3    H147094   6.268   2.955   7.039  0.2022  0.3662  1.8641
 7633TIP3    H247095   6.271   2.838   7.135  0.5626 -1.1475  0.0709
 7634TIP3   OH247096   6.701   4.481   6.752 -0.3092  0.0971  0.4637
 7634TIP3    H147097   6.762   4.554   6.761  0.9288 -1.1045  2.7239
 7634TIP3    H247098   6.739   4.425   6.685 -0.2879  0.5943  0.0552
 7635TIP3   OH247099   6.235   2.671   8.652 -0.4855 -0.2628 -0.5134
 7635TIP3    H147100   6.309   2.711   8.608 -0.9275 -1.0505 -2.0526
 7635TIP3    H247101   6.270   2.593   8.694 -0.3499 -0.4003 -0.8778
 7636TIP3   OH247102   4.815   4.135   7.532  1.1512 -0.3958 -0.1488
 7636TIP3    H147103   4.762   4.120   7.610  0.3581  1.5869 -0.2594
 7636TIP3    H247104   4.758   4.107   7.459  1.1999 -0.5438 -0.1311
 7637TIP3   OH247105   2.131   4.143   8.679 -0.6445  0.3482  0.1145
 7637TIP3    H147106   2.219   4.177   8.669 -0.5305 -0.1017 -0.4604
 7637TIP3    H247107   2.074   4.213   8.648 -0.6016  1.2843  1.9754
 7638TIP3   OH247108   0.759   5.390   9.617 -0.1049  0.3450 -0.0441
 7638TIP3    H147109   0.708   5.320   9.576 -1.7872  2.0094 -0.9530
 7638TIP3    H247110   0.770   5.456   9.548  1.5827  0.9082  0.7230
 7639TIP3   OH247111   5.239   6.482   8.243  0.7942 -0.1778 -0.1375
 7639TIP3    H147112   5.222   6.553   8.181 -0.4259 -0.3014  0.0262
 7639TIP3    H247113   5.332   6.461   8.231  0.9001  0.6927 -0.9678
 7640TIP3   OH247114   5.885   6.065   7.755 -0.1535 -0.2692 -0.1261
 7640TIP3    H147115   5.970   6.091   7.793 -1.0344 -0.7205  2.3267
 7640TIP3    H247116   5.907   5.998   7.691  1.4911  1.0041 -0.9809
 7641TIP3   OH247117   5.141   0.883   9.233 -0.0741  0.0176 -0.3214
 7641TIP3    H147118   5.122   0.959   9.287 -1.3701  0.7011 -1.6522
 7641TIP3    H247119   5.075   0.818   9.257 -0.1851  0.0480 -0.5359
 7642TIP3   OH247120   1.657   0.620   7.182  0.1666  0.2845 -0.4986
 7642TIP3    H147121   1.598   0.556   7.142  0.1773 -0.9557  1.3374
 7642TIP3    H247122   1.601   0.675   7.236  0.6380 -1.6377  2.2097
 7643TIP3   OH247123   3.466   3.472   6.789 -0.0539 -0.2093  0.1885
 7643TIP3    H147124   3.416   3.403   6.746 -0.0049 -0.7113  0.9291
 7643TIP3    H247125   3.557   3.455   6.766 -0.2294  0.9145 -1.4587
 7644TIP3   OH247126   5.767   0.870   8.066 -0.2249 -0.0117 -0.0448
 7644TIP3    H147127   5.715   0.790   8.054  1.1455 -0.8328 -0.7407
 7644TIP3    H247128   5.765   0.885   8.160  0.7467 -1.7568  0.3038
 7645TIP3   OH247129   2.987   6.241   6.567 -0.1671 -0.1760 -0.3998
 7645TIP3    H147130   2.999   6.330   6.600  0.8880 -0.9868  1.5602
 7645TIP3    H247131   3.050   6.234   6.494 -0.1941  0.6376 -0.5124
 7646TIP3   OH247132   2.888   1.896   6.872 -0.7145  0.1170 -0.1343
 7646TIP3    H147133   2.871   1.811   6.913 -0.3874  0.4771  0.7771
 7646TIP3    H247134   2.818   1.952   6.905 -1.2497  0.0747 -1.1684
 7647TIP3   OH247135   6.589   0.279   6.909 -0.0432 -0.1755 -0.1853
 7647TIP3    H147136   6.584   0.240   6.996 -0.8838 -2.2810 -1.1034
 7647TIP3    H247137   6.679   0.312   6.903 -0.0034  0.1451  1.4966
 7648TIP3   OH247138   1.390   6.244   7.804  0.0697  0.4622  0.2259
 7648TIP3    H147139   1.339   6.182   7.751  0.4362 -2.7188  3.2288
 7648TIP3    H247140   1.333   6.264   7.879  1.0054  1.6972  0.6430
 7649TIP3   OH247141   2.178   0.717   9.358  0.0385  0.2612  0.0263
 7649TIP3    H147142   2.153   0.705   9.266  3.1935 -0.0076 -0.9052
 7649TIP3    H247143   2.257   0.663   9.368 -0.8253 -0.6079  3.2476
 7650TIP3   OH247144   6.231   5.764   6.633  0.8080  0.0895  0.3238
 7650TIP3    H147145   6.289   5.835   6.606 -0.5753  0.5686 -1.6168
 7650TIP3    H247146   6.168   5.756   6.561 -1.8950 -0.0034  2.5336
 7651TIP3   OH247147   4.254   1.481   7.198  0.4289 -0.4513 -0.0306
 7651TIP3    H147148   4.268   1.484   7.293  1.2184 -0.5509 -0.1334
 7651TIP3    H247149   4.217   1.567   7.177 -1.5026 -1.0861  0.6089
 7652TIP3   OH247150   0.623   2.850   6.498  0.1011  0.6622  0.4844
 7652TIP3    H147151   0.550   2.800   6.463  0.6669  1.3871 -1.9530
 7652TIP3    H247152   0.582   2.927   6.539 -0.5721  0.0260  1.0318
 7653TIP3   OH247153   1.165   1.705   8.687  0.0744  0.3474  0.0283
 7653TIP3    H147154   1.242   1.736   8.639  0.7653 -2.3325 -0.8003
 7653TIP3    H247155   1.201   1.665   8.766 -0.8560  2.3899  1.5757
 7654TIP3   OH247156   2.068   5.613   8.779  0.2818  0.1912  0.2019
 7654TIP3    H147157   2.114   5.543   8.733 -0.5506 -0.0007 -0.3651
 7654TIP3    H247158   2.047   5.576   8.865  0.5806  0.0401  0.2102
 7655TIP3   OH247159   2.651   2.152   9.290 -0.7164 -0.4273 -0.1983
 7655TIP3    H147160   2.594   2.163   9.366 -0.6442  1.4882 -0.3802
 7655TIP3    H247161   2.696   2.069   9.306 -1.3080 -0.4662  1.4439
 7656TIP3   OH247162   1.505   4.477   7.990  0.1053  0.2858 -0.0205
 7656TIP3    H147163   1.483   4.531   8.066 -1.1057 -0.1819 -0.0049
 7656TIP3    H247164   1.436   4.410   7.988  0.8642 -0.5057 -0.7618
 7657TIP3   OH247165   3.501   5.864   9.658 -0.0933 -0.2501  0.2856
 7657TIP3    H147166   3.446   5.940   9.677 -1.3759 -0.4276 -2.2737
 7657TIP3    H247167   3.464   5.794   9.713 -1.7526 -0.0793 -0.5374
 7658TIP3   OH247168   4.553   3.386   7.753 -0.0905  0.5461 -0.4055
 7658TIP3    H147169   4.474   3.420   7.795  1.5536  3.6814  0.4617
 7658TIP3    H247170   4.580   3.313   7.810 -1.0341  1.0088  0.6807
 7659TIP3   OH247171   5.010   4.708   8.418 -0.0394 -0.2318  0.1812
 7659TIP3    H147172   5.008   4.795   8.378  1.4195  0.4134  1.4011
 7659TIP3    H247173   5.045   4.651   8.349  1.7155  0.7200  0.2185
 7660TIP3   OH247174   3.663   6.389   7.883  0.5050 -0.3191 -0.0043
 7660TIP3    H147175   3.705   6.439   7.952  2.4199 -0.1833 -1.1985
 7660TIP3    H247176   3.637   6.307   7.925 -0.8186  0.7957  1.4761
 7661TIP3   OH247177   2.186   0.195   6.621 -0.2804  0.1711 -0.4345
 7661TIP3    H147178   2.167   0.103   6.601 -0.3560 -0.0323  0.5564
 7661TIP3    H247179   2.136   0.213   6.700  0.1613  0.9178 -0.3229
 7662TIP3   OH247180   3.021   5.007   8.158 -0.5479  0.2527 -0.0796
 7662TIP3    H147181   2.973   4.931   8.192 -2.0108  1.7773  1.4049
 7662TIP3    H247182   2.954   5.073   8.144  1.0523  2.4651  1.9970
 7663TIP3   OH247183   3.050   6.120   7.973 -0.0040  0.5478  0.2238
 7663TIP3    H147184   3.046   6.175   7.895  0.3619  1.1398  0.6139
 7663TIP3    H247185   2.985   6.158   8.033  1.9777  2.1658  1.4837
 7664TIP3   OH247186   1.494   4.341  10.390  0.3526  0.3583 -0.1613
 7664TIP3    H147187   1.435   4.416  10.383  1.9195  1.8153  1.4113
 7664TIP3    H247188   1.454   4.285  10.457 -0.0464  0.5288 -0.2552
 7665TIP3   OH247189   3.767   6.308   8.149  0.1887 -0.0590  0.2342
 7665TIP3    H147190   3.831   6.245   8.182 -0.7617 -1.1254  0.0787
 7665TIP3    H247191   3.705   6.320   8.221 -1.1188 -1.3592 -0.6148
 7666TIP3   OH247192   1.229   0.707   9.159  0.1832  0.6028  0.1076
 7666TIP3    H147193   1.194   0.642   9.098  0.7418  0.6109 -0.2263
 7666TIP3    H247194   1.316   0.675   9.181 -0.1952  0.3547  1.2741
 7667TIP3   OH247195   2.297   1.140   8.973 -0.1008  0.6145  0.0913
 7667TIP3    H147196   2.256   1.076   8.914 -0.9123  1.2730 -0.0857
 7667TIP3    H247197   2.325   1.088   9.048 -0.1371 -0.0561 -0.3485
 7668TIP3   OH247198   3.935   5.621   7.663  0.2270 -0.0861 -0.0309
 7668TIP3    H147199   3.988   5.688   7.707 -0.5632  1.2944 -1.1181
 7668TIP3    H247200   3.999   5.562   7.623  0.9354  0.0059  0.9334
 7669TIP3   OH247201   5.713   0.735   7.730  0.1419  0.1583  0.3641
 7669TIP3    H147202   5.700   0.721   7.636  0.9461  0.4916  0.1969
 7669TIP3    H247203   5.653   0.674   7.772 -0.5222  0.2959 -0.3672
 7670TIP3   OH247204   6.660   6.719   6.920 -0.0315 -0.2606  0.1163
 7670TIP3    H147205   6.715   6.752   6.991  0.0846  0.5577 -0.3451
 7670TIP3    H247206   6.634   6.798   6.872 -1.0467 -0.6996 -0.0719
 7671TIP3   OH247207   4.752   3.101   8.111 -0.3412 -0.2132 -0.5604
 7671TIP3    H147208   4.844   3.124   8.110 -0.2998 -0.3778 -1.0229
 7671TIP3    H247209   4.751   3.007   8.092 -0.5883 -0.2590 -0.3195
 7672TIP3   OH247210   6.634   6.462   7.649  0.0591 -0.3207  0.4482
 7672TIP3    H147211   6.602   6.448   7.559  0.3282  1.3857  0.0438
 7672TIP3    H247212   6.718   6.505   7.637 -0.4671  1.0651  1.5073
 7673TIP3   OH247213   4.643   0.456   9.459 -0.1378  0.1590 -0.2227
 7673TIP3    H147214   4.719   0.494   9.503 -0.8677  1.1329  0.2452
 7673TIP3    H247215   4.677   0.379   9.414  1.1617  0.6776 -0.1728
 7674TIP3   OH247216   5.471   5.176   7.230 -0.4152  0.0977  0.2417
 7674TIP3    H147217   5.375   5.171   7.231 -0.4514  0.2452 -0.9710
 7674TIP3    H247218   5.500   5.110   7.293 -1.3080  0.0767  0.6430
 7675TIP3   OH247219   4.140   2.022   7.859  0.5588  0.1412  0.2520
 7675TIP3    H147220   4.139   1.945   7.801  2.5415  0.2935 -0.0809
 7675TIP3    H247221   4.228   2.058   7.847  0.4758  1.0754  2.2210
 7676TIP3   OH247222   4.245   0.011   8.612 -0.2935 -0.2662  0.2205
 7676TIP3    H147223   4.164   0.056   8.586 -0.8371 -0.1498  1.9887
 7676TIP3    H247224   4.313   0.050   8.556 -1.2172  0.6891 -0.2711
 7677TIP3   OH247225   4.778   3.456   6.410  0.3162  0.2803 -0.3759
 7677TIP3    H147226   4.861   3.434   6.451  0.8318  0.1526 -1.4473
 7677TIP3    H247227   4.791   3.435   6.317 -0.8630  0.3830 -0.5798
 7678TIP3   OH247228   4.247   5.000   7.680  0.8577  0.0265 -0.1253
 7678TIP3    H147229   4.270   5.000   7.587  1.0633  0.6144 -0.0813
 7678TIP3    H247230   4.179   5.067   7.689 -0.3111 -1.1316 -0.1098
 7679TIP3   OH247231   0.518   5.793   6.561 -0.3268 -0.3373  0.0686
 7679TIP3    H147232   0.529   5.722   6.498  2.4532  0.2056 -0.1973
 7679TIP3    H247233   0.439   5.770   6.610 -0.5660 -2.6213 -1.2543
 7680TIP3   OH247234   2.122   2.892   6.738 -0.9957 -0.0893  0.0200
 7680TIP3    H147235   2.142   2.983   6.719  0.7487 -0.3227  0.5435
 7680TIP3    H247236   2.031   2.893   6.767 -1.8213  1.1054 -2.3139
 7681TIP3   OH247237   5.665   2.614   6.958 -0.3427 -0.0644 -0.9113
 7681TIP3    H147238   5.745   2.577   6.921 -0.0197 -2.0886  1.5320
 7681TIP3    H247239   5.595   2.556   6.927 -0.3111 -0.6329  0.0345
 7682TIP3   OH247240   0.758   4.060   9.428  0.4749  0.1509  0.5682
 7682TIP3    H147241   0.779   4.076   9.520  0.3318  0.3408  0.5679
 7682TIP3    H247242   0.825   4.106   9.379 -0.1663  1.1068  0.5599
 7683TIP3   OH247243   4.062   2.518   9.120  0.1686 -0.3031 -0.0928
 7683TIP3    H147244   4.060   2.443   9.061  2.7973 -1.2120  0.8489
 7683TIP3    H247245   4.138   2.569   9.092  0.2958  0.2972  1.2597
 7684TIP3   OH247246   4.656   2.557   7.222 -0.1359 -0.3985  0.6867
 7684TIP3    H147247   4.623   2.602   7.300 -0.5579 -1.8499  1.3979
 7684TIP3    H247248   4.750   2.571   7.225 -0.4227  2.3836 -0.4387
 7685TIP3   OH247249   1.570   5.465   8.205  0.1775  0.2185  0.2692
 7685TIP3    H147250   1.607   5.472   8.117 -0.3887 -1.8661 -0.2097
 7685TIP3    H247251   1.629   5.405   8.250 -1.2524 -1.2864  0.2353
 7686TIP3   OH247252   3.782   1.484   6.373  0.4951  0.3118 -0.2083
 7686TIP3    H147253   3.746   1.397   6.355  1.9756 -0.5215  0.5862
 7686TIP3    H247254   3.874   1.477   6.346  1.0524  1.1043  1.3920
 7687TIP3   OH247255   1.409   3.504  10.627 -0.3414  0.1098  0.3403
 7687TIP3    H147256   1.339   3.561  10.594 -1.2043 -0.2785  1.4264
 7687TIP3    H247257   1.374   3.416  10.617 -0.2636 -0.0584  1.4230
 7688TIP3   OH247258   0.229   2.978   6.664 -0.0022  0.6175  0.5164
 7688TIP3    H147259   0.208   3.071   6.674 -1.4774  0.3310  0.3732
 7688TIP3    H247260   0.209   2.940   6.750 -1.1482  0.1609  0.0766
 7689TIP3   OH247261   1.711   5.260   8.352 -0.9513 -0.1277 -0.2173
 7689TIP3    H147262   1.714   5.229   8.262 -1.3139 -1.0678  0.0864
 7689TIP3    H247263   1.706   5.181   8.405 -1.2073  0.4277  0.6109
 7690TIP3   OH247264   3.863   3.185   9.223  0.2641  0.6206 -0.4732
 7690TIP3    H147265   3.889   3.168   9.313 -0.4009 -0.5914 -0.4872
 7690TIP3    H247266   3.934   3.239   9.187  1.5246 -0.5183  0.2099
 7691TIP3   OH247267   1.136   4.287   6.792 -0.6060  0.0001 -0.1181
 7691TIP3    H147268   1.135   4.353   6.722  0.2952  3.4961  2.8709
 7691TIP3    H247269   1.043   4.269   6.809 -0.8674  0.2406 -1.2101
 7692TIP3   OH247270   3.155   3.333   9.838 -0.3780  0.2364 -0.2162
 7692TIP3    H147271   3.154   3.426   9.861  0.0480  0.1079  0.3413
 7692TIP3    H247272   3.240   3.302   9.869 -0.1227 -0.1284 -1.2604
 7693TIP3   OH247273   2.455   3.532  16.583 -0.4339 -0.1417 -0.0595
 7693TIP3    H147274   2.505   3.496  16.509  0.6039  1.8040 -0.3610
 7693TIP3    H247275   2.365   3.505  16.566 -0.0952 -0.4002 -1.6262
 7694TIP3   OH247276   4.949   0.316   8.041 -0.1496 -0.2078 -0.5483
 7694TIP3    H147277   4.878   0.368   8.078  1.7925  1.3257  1.3449
 7694TIP3    H247278   4.951   0.339   7.949 -0.9590  1.1377 -0.2518
 7695TIP3   OH247279   5.272   2.429   8.192 -0.7501 -0.0445 -0.0404
 7695TIP3    H147280   5.345   2.376   8.223  0.0990  1.9817  1.6299
 7695TIP3    H247281   5.311   2.491   8.130 -1.1265  0.6921  0.4375
 7696TIP3   OH247282   2.207   3.414   7.309 -0.2657  0.2976 -0.0311
 7696TIP3    H147283   2.293   3.421   7.269 -0.4085  1.1637 -0.2102
 7696TIP3    H247284   2.145   3.433   7.239 -0.6365 -0.8291 -0.0287
 7697TIP3   OH247285   6.032   0.183   8.767 -0.5455  0.2194 -0.0014
 7697TIP3    H147286   6.032   0.249   8.698 -0.7335  1.5814  1.2392
 7697TIP3    H247287   6.118   0.141   8.762 -0.5220  0.3713 -0.9738
 7698TIP3   OH247288   0.651   0.923   8.520  0.5560  0.2687  0.0470
 7698TIP3    H147289   0.746   0.934   8.523  0.4726  0.8268  2.6299
 7698TIP3    H247290   0.634   0.850   8.580 -0.5709 -0.8647 -1.5715
 7699TIP3   OH247291   0.364   3.152   9.823  0.0570 -0.5626  0.6690
 7699TIP3    H147292   0.459   3.148   9.837 -0.1492 -0.9663  2.1458
 7699TIP3    H247293   0.330   3.190   9.904 -1.0174 -0.0764  0.0067
 7700TIP3   OH247294   4.793   1.406   8.893 -0.0504  0.3916  0.3098
 7700TIP3    H147295   4.818   1.318   8.919 -1.4990 -0.1630 -0.1177
 7700TIP3    H247296   4.743   1.394   8.812 -1.3669  1.4788  0.9238
 7701TIP3   OH247297   4.474   6.088   8.530  0.7696 -0.0593 -0.3945
 7701TIP3    H147298   4.467   6.071   8.623 -0.7622  0.4918 -0.3725
 7701TIP3    H247299   4.385   6.078   8.497  1.5870 -2.3402 -2.2021
 7702TIP3   OH247300   2.426   5.302   8.109  0.3858  0.2049  0.1435
 7702TIP3    H147301   2.502   5.343   8.069  0.3226  0.5538  0.3823
 7702TIP3    H247302   2.365   5.374   8.126  0.0452 -0.0573  0.0539
 7703TIP3   OH247303   1.687   3.140  10.361  0.4914 -0.3216  0.2839
 7703TIP3    H147304   1.714   3.184  10.442 -2.7027  2.5913  0.0316
 7703TIP3    H247305   1.756   3.161  10.298  1.6514 -0.2368  1.5456
 7704TIP3   OH247306   0.947   4.943   7.525  0.6237  0.1365  0.3181
 7704TIP3    H147307   0.875   4.905   7.475  0.7437 -0.8508  0.8770
 7704TIP3    H247308   0.908   5.019   7.568  0.0986  0.0198  0.0588
 7705TIP3   OH247309   6.287   6.074   8.678 -0.0086 -0.3084 -0.2997
 7705TIP3    H147310   6.264   6.069   8.585 -0.9883  0.3702 -0.1098
 7705TIP3    H247311   6.355   6.142   8.681  0.8575 -1.1331 -0.6501
 7706TIP3   OH247312   2.996   5.613   9.281  0.5497  0.0738 -0.0244
 7706TIP3    H147313   2.933   5.645   9.345  1.2233 -0.6428  1.0330
 7706TIP3    H247314   3.072   5.670   9.290  1.2951 -1.0471  1.0323
 7707TIP3   OH247315   5.933   1.372   8.284  0.2145 -0.1946 -0.6187
 7707TIP3    H147316   5.866   1.419   8.332  0.9962 -0.7317  1.0587
 7707TIP3    H247317   5.968   1.437   8.222 -1.4420  0.2270 -1.1591
 7708TIP3   OH247318   3.980   2.174   9.263  0.5935  0.1768  0.0053
 7708TIP3    H147319   3.909   2.218   9.215  0.1673 -0.7236 -0.2201
 7708TIP3    H247320   4.054   2.233   9.255  0.2456  0.5114 -0.9322
 7709TIP3   OH247321   4.353   5.081   9.026 -0.5860 -0.3056  0.6892
 7709TIP3    H147322   4.392   5.090   9.113 -1.2830 -1.1122  1.0949
 7709TIP3    H247323   4.261   5.101   9.038 -0.5015  0.6366 -0.0812
 7710TIP3   OH247324   2.407   1.746   7.360 -0.3169  0.1274 -0.0954
 7710TIP3    H147325   2.353   1.818   7.392 -2.5086  0.1996 -3.3681
 7710TIP3    H247326   2.351   1.669   7.370  0.7745 -0.5961  0.5310
 7711TIP3   OH247327   1.854   5.445   8.618  0.6737 -0.4096 -0.4268
 7711TIP3    H147328   1.890   5.364   8.582  1.2698 -1.2922  1.9945
 7711TIP3    H247329   1.923   5.510   8.606  1.3834 -1.0218  0.2717
 7712TIP3   OH247330   0.981   3.253   9.366  0.2648 -0.3097  0.3885
 7712TIP3    H147331   0.968   3.226   9.275  2.8211 -0.1014 -0.1188
 7712TIP3    H247332   0.906   3.308   9.385 -1.1413 -1.6130 -1.0664
 7713TIP3   OH247333   0.016   5.291   6.529 -0.5329 -0.3029 -0.1708
 7713TIP3    H147334  -0.058   5.318   6.583 -1.0129 -2.6440  0.4631
 7713TIP3    H247335  -0.023   5.261   6.447  0.1948  3.2597 -1.9976
 7714TIP3   OH247336   2.740   1.282   6.600 -0.4369 -0.2468  0.4487
 7714TIP3    H147337   2.770   1.251   6.515  0.3560 -0.0056  0.6340
 7714TIP3    H247338   2.691   1.208   6.636  2.3032 -1.7627  1.3486
 7715TIP3   OH247339   4.227   4.383   6.746 -0.6924  0.4245 -0.4607
 7715TIP3    H147340   4.142   4.362   6.786 -0.7625  0.4654 -0.5864
 7715TIP3    H247341   4.292   4.346   6.806 -0.7701  1.1983  0.1087
 7716TIP3   OH247342   3.738   0.379   6.779  0.0485  0.0887  0.3426
 7716TIP3    H147343   3.750   0.444   6.848  1.1853 -0.1088  0.3559
 7716TIP3    H247344   3.768   0.297   6.819  2.5138  0.2794 -0.9189
 7717TIP3   OH247345   3.454   0.675   8.096 -0.2010  0.3804  0.2055
 7717TIP3    H147346   3.488   0.734   8.029 -0.7875  0.5750  0.0728
 7717TIP3    H247347   3.506   0.595   8.086 -2.0896 -0.6699 -2.4082
 7718TIP3   OH247348   6.043   4.970   8.479  0.1723 -1.0338 -0.1805
 7718TIP3    H147349   6.106   4.963   8.407  0.0526 -1.6716 -0.2283
 7718TIP3    H247350   6.080   4.915   8.548 -0.0044 -0.8860  0.0333
 7719TIP3   OH247351   6.697   4.373   8.190  0.1410  0.0073 -0.0386
 7719TIP3    H147352   6.714   4.312   8.118 -1.6124  0.2468 -0.7002
 7719TIP3    H247353   6.649   4.445   8.150  0.3102  0.7987  1.1331
 7720TIP3   OH247354   6.125   4.789   8.051 -0.0251 -0.2859 -0.0778
 7720TIP3    H147355   6.072   4.823   7.979 -0.6859 -0.4386  0.3302
 7720TIP3    H247356   6.179   4.721   8.010  1.5639  1.4225 -0.9747
 7721TIP3   OH247357   4.357   6.095   7.864  0.0318 -0.2948  0.0991
 7721TIP3    H147358   4.395   6.167   7.914  0.5580 -0.1202 -0.5449
 7721TIP3    H247359   4.429   6.032   7.854 -0.1746 -0.4995 -0.1203
 7722TIP3   OH247360   2.852   3.062   8.682 -0.1272 -0.2787 -0.0693
 7722TIP3    H147361   2.888   3.063   8.771  0.0728 -1.3432 -0.1313
 7722TIP3    H247362   2.768   3.109   8.689  0.9718  1.7889  0.1794
 7723TIP3   OH247363   5.593   3.189  10.297  0.3737 -0.3863  0.4098
 7723TIP3    H147364   5.635   3.145  10.371  1.2913  0.9632  0.7466
 7723TIP3    H247365   5.532   3.251  10.338 -0.0276 -0.5045 -0.0046
 7724TIP3   OH247366   5.689   0.881   8.347  0.1088 -0.2459  0.0356
 7724TIP3    H147367   5.689   0.917   8.435 -1.5301  1.2402 -0.5334
 7724TIP3    H247368   5.633   0.803   8.353  0.8526 -0.7566  0.5114
 7725TIP3   OH247369   2.344   0.300   9.337  0.6143 -0.2545 -0.2787
 7725TIP3    H147370   2.335   0.210   9.368 -1.6467  0.0088  0.0026
 7725TIP3    H247371   2.264   0.317   9.288  0.9802  1.6133 -0.3096
 7726TIP3   OH247372   1.472   1.741   9.757  0.1417  0.2846  0.2073
 7726TIP3    H147373   1.562   1.761   9.782  1.5806 -2.9579 -1.7012
 7726TIP3    H247374   1.453   1.657   9.799 -1.5420  0.3045 -0.4278
 7727TIP3   OH247375   2.508   3.982   8.314 -0.0938 -0.4704  0.4964
 7727TIP3    H147376   2.473   4.057   8.266  1.3459  0.0037  0.1391
 7727TIP3    H247377   2.601   3.982   8.293  0.3166 -1.0936  2.1695
 7728TIP3   OH247378   5.229   3.427  10.713  0.9084  0.4336  0.5037
 7728TIP3    H147379   5.221   3.476  10.631  0.2268 -0.3475  0.0803
 7728TIP3    H247380   5.300   3.365  10.697  1.9274  1.4349  1.1230
 7729TIP3   OH247381   3.754   6.489   6.758  0.7151 -1.0655 -0.1213
 7729TIP3    H147382   3.796   6.551   6.698  1.5085 -1.9234 -0.4838
 7729TIP3    H247383   3.753   6.534   6.843  1.2394 -0.5462 -0.3845
 7730TIP3   OH247384   6.166   0.358   6.181  0.4434 -0.1149  0.4179
 7730TIP3    H147385   6.093   0.388   6.236  0.0839  1.9632 -1.0517
 7730TIP3    H247386   6.171   0.264   6.197 -0.4384  0.1917  3.0012
 7731TIP3   OH247387   4.640   5.762   6.710 -0.6617  0.2951  0.1580
 7731TIP3    H147388   4.732   5.738   6.711 -0.9751 -1.0418  2.8151
 7731TIP3    H247389   4.612   5.745   6.620  0.9627 -2.2514  0.0497
 7732TIP3   OH247390   6.502   5.446   6.626  0.4837  0.3569 -0.2821
 7732TIP3    H147391   6.446   5.422   6.552 -0.2077 -0.5888  0.5393
 7732TIP3    H247392   6.442   5.484   6.690  0.6195 -1.4070  0.9367
 7733TIP3   OH247393   2.985   2.465   9.087 -0.1638 -0.2951 -0.2075
 7733TIP3    H147394   2.911   2.430   9.135  0.5402 -0.0767  1.0913
 7733TIP3    H247395   3.034   2.387   9.057  0.6379 -0.4704  1.4571
 7734TIP3   OH247396   6.496   2.137   9.771 -0.0524  0.5531  0.1365
 7734TIP3    H147397   6.498   2.101   9.860  1.4894  1.0766  0.3452
 7734TIP3    H247398   6.405   2.167   9.760 -0.1196  1.1070  1.8131
 7735TIP3   OH247399   1.124   2.810   7.697 -0.1804  0.2935  0.2394
 7735TIP3    H147400   1.155   2.735   7.748 -0.5816  0.6272  0.9841
 7735TIP3    H247401   1.036   2.785   7.669  0.1965 -0.0642 -0.6685
 7736TIP3   OH247402   2.476   3.786   9.212  0.1241 -0.3880  0.7225
 7736TIP3    H147403   2.514   3.772   9.126 -0.4073 -1.5979  0.6561
 7736TIP3    H247404   2.546   3.764   9.273  0.6225  0.8433  0.6144
 7737TIP3   OH247405   4.720   1.488   9.227  0.0683  0.1710  0.1344
 7737TIP3    H147406   4.802   1.438   9.227 -1.2071 -2.1155 -1.0621
 7737TIP3    H247407   4.746   1.577   9.252  2.9618 -0.3433 -0.6352
 7738TIP3   OH247408   2.695   4.325   8.368 -0.4232 -0.3423 -0.4054
 7738TIP3    H147409   2.708   4.266   8.294  0.9360  0.2043 -0.6308
 7738TIP3    H247410   2.674   4.268   8.442 -0.1350 -1.0175 -0.8466
 7739TIP3   OH247411   2.019   1.118   7.654  0.3323 -0.3312 -0.9653
 7739TIP3    H147412   1.934   1.162   7.665  0.0962 -0.6942 -1.3311
 7739TIP3    H247413   2.056   1.115   7.742  0.9195  1.7208 -1.0936
 7740TIP3   OH247414   3.001   1.320   8.520  1.0338 -0.6050 -0.3346
 7740TIP3    H147415   2.966   1.298   8.606  1.5661 -2.1829 -0.4841
 7740TIP3    H247416   3.050   1.402   8.534 -2.0350  1.3130 -0.0050
 7741TIP3   OH247417   6.596   5.558   7.640 -0.5532  0.5221 -0.4461
 7741TIP3    H147418   6.598   5.653   7.631 -0.8852  0.6600  0.7774
 7741TIP3    H247419   6.512   5.532   7.602  0.1255  0.5379 -2.0570
 7742TIP3   OH247420   0.951   3.732   7.724 -0.4710  0.4019  0.1528
 7742TIP3    H147421   0.873   3.765   7.680  1.9967  0.9788 -4.3904
 7742TIP3    H247422   1.018   3.797   7.705  2.1520 -2.2047 -0.1702
 7743TIP3   OH247423   1.116   2.099   7.844  0.1936  0.0825  0.7251
 7743TIP3    H147424   1.081   2.177   7.802  1.3003  0.4333  0.4445
 7743TIP3    H247425   1.108   2.116   7.938  0.1535  0.3940  0.6637
 7744TIP3   OH247426   3.469   4.222   9.096 -0.0274 -0.1351  0.2678
 7744TIP3    H147427   3.480   4.299   9.152  2.6628  1.7961 -2.6018
 7744TIP3    H247428   3.383   4.233   9.057 -0.7222  0.0080  1.7566
 7745TIP3   OH247429   0.647   1.731   9.011 -0.0359 -0.1626  0.0871
 7745TIP3    H147430   0.569   1.771   8.971 -0.4850 -0.2480  0.8692
 7745TIP3    H247431   0.683   1.800   9.066 -0.0772 -0.4203  0.4348
 7746TIP3   OH247432   4.703   0.973   8.766  0.3896 -0.3505  0.3763
 7746TIP3    H147433   4.623   0.949   8.719  0.9928  0.8333 -1.3288
 7746TIP3    H247434   4.678   0.969   8.859 -1.3238 -1.0801 -0.0782
 7747TIP3   OH247435   3.040   3.047   8.037  0.4768  0.7238 -0.5730
 7747TIP3    H147436   3.110   3.023   7.976 -0.5323  1.8126 -2.2430
 7747TIP3    H247437   3.014   2.964   8.078  2.1754  0.1884 -0.5149
 7748TIP3   OH247438   3.715   3.841   9.476  0.0423  0.1136 -0.3019
 7748TIP3    H147439   3.690   3.888   9.556  0.6441 -0.0281 -0.0272
 7748TIP3    H247440   3.801   3.805   9.495  1.4654  2.3396 -1.9430
 7749TIP3   OH247441   2.600   3.859   6.733 -0.1199 -0.3676 -0.6152
 7749TIP3    H147442   2.506   3.877   6.721 -0.3375 -0.2720  0.9745
 7749TIP3    H247443   2.621   3.901   6.816  1.1361 -1.1248 -0.5375
 7750TIP3   OH247444   0.251   1.815   9.341  0.0389  0.1806  0.4013
 7750TIP3    H147445   0.332   1.783   9.381  0.3686  1.1963  0.5914
 7750TIP3    H247446   0.281   1.863   9.263 -0.4927 -0.5835 -0.2863
 7751TIP3   OH247447   3.252   1.257   8.110  0.2251 -0.3386  0.2258
 7751TIP3    H147448   3.321   1.318   8.083  2.8926 -1.7363  3.3037
 7751TIP3    H247449   3.208   1.302   8.182 -0.1824 -0.6112  0.1470
 7752TIP3   OH247450   3.449   3.444   9.814  0.4162  0.0538  0.0037
 7752TIP3    H147451   3.432   3.513   9.878 -0.7812 -1.1289  1.0284
 7752TIP3    H247452   3.538   3.415   9.832  0.0010 -0.4411  1.3331
 7753TIP3   OH247453   6.307   0.585   8.969 -0.5322  0.0712 -0.1583
 7753TIP3    H147454   6.294   0.513   8.907 -0.2264 -0.9988  0.9870
 7753TIP3    H247455   6.219   0.618   8.986 -0.9343 -1.4888  0.9741
 7754TIP3   OH247456   3.127   4.786   7.855 -0.3570 -0.1819 -0.2130
 7754TIP3    H147457   3.158   4.835   7.779 -0.9640  0.0223 -0.3396
 7754TIP3    H247458   3.155   4.696   7.839 -2.2823 -0.5829 -1.7558
 7755TIP3   OH247459   3.095   6.327   7.622 -0.3062 -0.1411  0.0145
 7755TIP3    H147460   3.018   6.313   7.567  0.3523 -0.1528 -0.9378
 7755TIP3    H247461   3.169   6.324   7.560  0.5260 -0.9626  1.0097
 7756TIP3   OH247462   5.730   0.252   9.538  0.2034 -0.3663  0.1910
 7756TIP3    H147463   5.661   0.258   9.605 -0.1542 -0.2495 -0.1800
 7756TIP3    H247464   5.729   0.338   9.496  1.0486 -0.1363  0.6391
 7757TIP3   OH247465   6.154   6.220   6.513 -0.0176  0.0863 -0.8695
 7757TIP3    H147466   6.189   6.275   6.583 -0.7125 -0.0512 -0.3927
 7757TIP3    H247467   6.135   6.281   6.441 -1.6721  0.6612 -0.0066
 7758TIP3   OH247468   3.385   4.005   7.925 -0.6257  0.1675 -0.5416
 7758TIP3    H147469   3.473   4.004   7.961 -0.5662 -0.5021 -0.6961
 7758TIP3    H247470   3.337   4.067   7.980 -0.4991 -0.7208  0.6035
 7759TIP3   OH247471   0.911   0.253   8.913 -0.2220 -0.1948  0.1629
 7759TIP3    H147472   0.964   0.294   8.982  0.5055 -1.2605  0.2685
 7759TIP3    H247473   0.968   0.253   8.836 -0.4897 -0.3309 -0.0359
 7760TIP3   OH247474   4.515   1.503   7.510  0.7954  0.4833 -0.5047
 7760TIP3    H147475   4.420   1.502   7.519  0.8184 -3.0513  1.0504
 7760TIP3    H247476   4.535   1.590   7.477 -2.8193  1.9578  0.6807
 7761TIP3   OH247477   6.709   3.007   7.795 -0.4447 -0.2789 -0.3764
 7761TIP3    H147478   6.739   3.072   7.731 -1.4268 -0.6815 -1.2897
 7761TIP3    H247479   6.683   3.059   7.871  1.3115  0.1593 -0.0420
 7762TIP3   OH247480   1.905   3.354   8.987 -0.2766  0.5269 -0.0418
 7762TIP3    H147481   1.835   3.416   9.006 -0.5585  0.7112 -1.5123
 7762TIP3    H247482   1.932   3.375   8.897  0.4814 -0.6571 -0.1218
 7763TIP3   OH247483   3.417   0.148   6.480 -0.4140  0.2213 -0.1528
 7763TIP3    H147484   3.431   0.108   6.394 -0.5518  1.1663 -0.6214
 7763TIP3    H247485   3.500   0.192   6.501  0.2537 -1.4550  1.0204
 7764TIP3   OH247486   5.597   3.967   8.691 -0.2445 -0.1377 -0.5428
 7764TIP3    H147487   5.549   4.048   8.706  0.4578  0.3167 -0.7164
 7764TIP3    H247488   5.582   3.915   8.770 -0.0003  0.5052 -0.0716
 7765TIP3   OH247489   1.860   6.664   8.674  0.9195 -0.0269  0.2811
 7765TIP3    H147490   1.872   6.575   8.640  3.2014  0.4905 -0.4315
 7765TIP3    H247491   1.934   6.678   8.732 -1.3545  0.1800  3.4232
 7766TIP3   OH247492   3.502   5.535   8.699 -0.1275 -0.0241 -0.2268
 7766TIP3    H147493   3.535   5.530   8.609 -0.0572 -0.3833 -0.1815
 7766TIP3    H247494   3.417   5.577   8.692 -0.1678 -0.1502 -0.4732
 7767TIP3   OH247495   5.457   0.658   7.134  0.1902 -0.3962 -0.3839
 7767TIP3    H147496   5.523   0.724   7.112  0.1841  0.0192  0.7564
 7767TIP3    H247497   5.480   0.631   7.223 -0.5398 -1.0375 -0.3830
 7768TIP3   OH247498   5.949   6.043   8.982  0.7250 -0.0306  0.1119
 7768TIP3    H147499   6.037   6.070   9.005  0.3408 -0.5202  2.3674
 7768TIP3    H247500   5.892   6.106   9.026 -0.0773 -0.2573 -0.5659
 7769TIP3   OH247501   5.164   5.127   8.053 -0.0191  0.0015 -0.1729
 7769TIP3    H147502   5.234   5.093   7.998 -0.3491  0.3364 -0.8149
 7769TIP3    H247503   5.186   5.219   8.066 -0.4995  0.1934 -0.6569
 7770TIP3   OH247504   0.347   5.221   9.110 -0.2261 -0.1598 -0.3412
 7770TIP3    H147505   0.371   5.131   9.134  0.6132  0.4702  1.3144
 7770TIP3    H247506   0.264   5.236   9.155 -0.1350  0.0407 -0.2400
 7771TIP3   OH247507   5.335   6.425   7.443 -0.2366 -0.5238  0.7539
 7771TIP3    H147508   5.396   6.486   7.484 -0.0661  0.7662 -1.2904
 7771TIP3    H247509   5.353   6.432   7.350 -1.7296 -2.0903  0.2909
 7772TIP3   OH247510   2.111   1.748   9.135  0.1191  0.1683 -0.1833
 7772TIP3    H147511   2.176   1.736   9.204  0.4280  0.1750 -0.4713
 7772TIP3    H247512   2.032   1.779   9.181 -0.7200 -2.8159  0.6228
 7773TIP3   OH247513   3.823   1.898   9.285 -0.0240 -0.0872  0.3297
 7773TIP3    H147514   3.751   1.839   9.305  1.2149 -1.9971 -0.5543
 7773TIP3    H247515   3.839   1.945   9.367 -0.6354 -1.4554  1.2738
 7774TIP3   OH247516   1.383   2.273   7.667 -0.0810 -0.0275  0.5232
 7774TIP3    H147517   1.302   2.243   7.707 -0.8137  0.1971 -0.7428
 7774TIP3    H247518   1.371   2.367   7.654  0.1274 -0.0975 -0.2317
 7775TIP3   OH247519   4.703   6.163   7.616  0.1302  0.3686 -0.0209
 7775TIP3    H147520   4.626   6.107   7.609  0.5966 -0.5047  1.4724
 7775TIP3    H247521   4.668   6.251   7.629 -0.6092  0.1730 -0.6244
 7776TIP3   OH247522   6.205   4.885   8.283 -0.0890 -0.2955 -0.0775
 7776TIP3    H147523   6.172   4.864   8.195 -1.7165 -1.6558  0.8115
 7776TIP3    H247524   6.259   4.810   8.307  1.4113  0.6482 -0.3766
 7777TIP3   OH247525   3.190   4.794   8.414 -0.5798 -0.1697  0.2355
 7777TIP3    H147526   3.141   4.722   8.374  0.3388 -0.9052  0.4017
 7777TIP3    H247527   3.264   4.752   8.458  0.0656  0.8901  0.2066
 7778TIP3   OH247528   5.824   4.097   9.420 -0.1794  0.2982 -0.2872
 7778TIP3    H147529   5.880   4.155   9.369  0.5160 -0.0156  0.1071
 7778TIP3    H247530   5.874   4.079   9.500 -0.1168 -1.2668 -0.6305
 7779TIP3   OH247531   0.074   5.035   7.967 -0.3091 -0.0976 -0.2256
 7779TIP3    H147532   0.163   5.000   7.967 -1.0162 -2.0157 -1.0699
 7779TIP3    H247533   0.017   4.959   7.975 -1.9271  0.8571 -1.7015
 7780TIP3   OH247534   3.902   5.886   9.134  0.1319 -0.3763 -0.2526
 7780TIP3    H147535   3.852   5.957   9.093  1.7191  1.3960  0.6846
 7780TIP3    H247536   3.965   5.859   9.067  0.8644  0.5570  0.0371
 7781TIP3   OH247537   3.040   3.708   9.307  0.5949 -0.0018 -0.0946
 7781TIP3    H147538   3.107   3.700   9.375  1.1746  0.1472 -0.6313
 7781TIP3    H247539   3.054   3.796   9.271  0.1848 -0.0140 -0.2825
 7782TIP3   OH247540   3.059   1.962   9.280 -0.0852 -0.3114 -0.0577
 7782TIP3    H147541   3.143   1.915   9.282 -0.9324 -1.9178 -0.5486
 7782TIP3    H247542   3.031   1.955   9.189  0.4616  2.5394 -0.5377
 7783TIP3   OH247543   3.421   0.248   8.006 -0.9311 -0.6096 -0.4652
 7783TIP3    H147544   3.513   0.273   8.005 -1.1587  0.2303 -1.0415
 7783TIP3    H247545   3.419   0.169   8.060  0.0035 -0.1561  0.2667
 7784TIP3   OH247546   1.712   1.518   6.519  0.0257 -0.5837  0.0724
 7784TIP3    H147547   1.668   1.566   6.449 -1.3619 -2.5276 -0.4581
 7784TIP3    H247548   1.797   1.562   6.528 -1.0526  1.7765 -0.5137
 7785TIP3   OH247549   4.877   5.746   7.944 -0.2354 -0.8497  0.1818
 7785TIP3    H147550   4.892   5.840   7.956 -0.8602 -0.8942  1.4352
 7785TIP3    H247551   4.949   5.703   7.990 -1.3535 -0.9868  1.9158
 7786TIP3   OH247552   0.456   0.305   8.379  0.0025 -0.8932  0.5004
 7786TIP3    H147553   0.510   0.226   8.378 -0.2814 -1.1102 -1.1767
 7786TIP3    H247554   0.386   0.287   8.316 -1.4815 -0.2331  1.8699
 7787TIP3   OH247555   2.660   4.853   9.330  1.1918 -0.4220  0.0373
 7787TIP3    H147556   2.568   4.854   9.303  1.3783 -1.3716 -0.7355
 7787TIP3    H247557   2.658   4.835   9.424  0.5911 -0.6577 -0.0164
 7788TIP3   OH247558   2.702   1.954   6.380 -0.5256 -0.4606 -0.4864
 7788TIP3    H147559   2.677   2.045   6.366  1.3323  0.0452 -0.8334
 7788TIP3    H247560   2.785   1.959   6.427 -0.8914 -2.0032  0.3890
 7789TIP3   OH247561   2.983   0.837   8.561 -0.8307 -0.4184 -0.0288
 7789TIP3    H147562   3.014   0.773   8.497  0.0204 -0.7105  0.6526
 7789TIP3    H247563   3.034   0.916   8.544 -0.8179 -0.3989  0.0946
 7790TIP3   OH247564   2.937   4.198   7.311 -0.0433 -0.0323 -0.3625
 7790TIP3    H147565   2.871   4.266   7.326  0.9657  0.5430  2.0486
 7790TIP3    H247566   2.887   4.117   7.308 -0.9053  0.3084  2.1579
 7791TIP3   OH247567   1.645   1.438   8.008 -0.1229 -0.3813  0.3567
 7791TIP3    H147568   1.549   1.436   7.999 -0.0173 -2.2374 -0.7467
 7791TIP3    H247569   1.673   1.508   7.949 -0.7077 -0.9580 -0.6342
 7792TIP3   OH247570   0.541   3.775   7.830 -0.1691 -0.7230 -0.6765
 7792TIP3    H147571   0.620   3.800   7.782  1.0922 -1.4935  0.8942
 7792TIP3    H247572   0.555   3.683   7.853 -0.5070 -0.3076  1.4372
 7793TIP3   OH247573   2.603   1.488   6.484  0.7702 -0.7307 -0.0843
 7793TIP3    H147574   2.664   1.427   6.525  0.4571 -2.4349 -1.9701
 7793TIP3    H247575   2.557   1.435   6.418  0.1673  1.4600 -1.5419
 7794TIP3   OH247576   2.781   2.105   9.646 -0.0084 -0.0841  0.2814
 7794TIP3    H147577   2.794   2.164   9.720  2.6080 -1.0711  0.7495
 7794TIP3    H247578   2.837   2.141   9.577  0.8943 -1.4512  0.2632
 7795TIP3   OH247579   5.499   0.137   8.671 -0.6615 -0.2045 -0.6693
 7795TIP3    H147580   5.492   0.119   8.578  0.8893 -1.0823 -0.6409
 7795TIP3    H247581   5.413   0.115   8.707 -1.2793  0.1833 -1.8766
 7796TIP3   OH247582   6.142   3.973   8.706 -0.6132  0.3743 -0.5343
 7796TIP3    H147583   6.190   3.932   8.634  1.1683  1.6771 -0.1685
 7796TIP3    H247584   6.123   3.902   8.766 -1.6248 -0.6389 -1.9804
 7797TIP3   OH247585   2.352   5.351   8.389  0.2321  0.5836  0.3832
 7797TIP3    H147586   2.392   5.423   8.341  0.1631  0.8052  0.6495
 7797TIP3    H247587   2.341   5.281   8.325  0.0378  0.9140  0.0530
 7798TIP3   OH247588   0.903   0.051   6.585 -0.4397  0.2055  0.1251
 7798TIP3    H147589   0.936  -0.009   6.652  0.6783  0.5800 -0.0576
 7798TIP3    H247590   0.913   0.004   6.503 -0.5458  0.2444  0.0902
 7799TIP3   OH247591   2.995   0.375   9.076 -0.0923  0.3090  0.7511
 7799TIP3    H147592   3.085   0.346   9.061 -0.1777 -0.3993  1.5101
 7799TIP3    H247593   2.997   0.411   9.165 -1.1313 -2.2624  1.9159
 7800TIP3   OH247594   0.737   6.333   7.789 -0.1225 -0.1083 -0.3314
 7800TIP3    H147595   0.660   6.302   7.837 -0.0488  1.6318  1.0307
 7800TIP3    H247596   0.742   6.276   7.713 -2.9748 -0.1029 -0.6601
 7801TIP3   OH247597   0.466   0.284   6.560  0.2683  0.1319  0.0380
 7801TIP3    H147598   0.461   0.276   6.465 -0.2333  1.6796 -0.0915
 7801TIP3    H247599   0.553   0.252   6.583  0.1748 -0.8175 -0.8623
 7802TIP3   OH247600   5.199   2.541   6.599  0.0807 -0.2040 -0.1983
 7802TIP3    H147601   5.150   2.482   6.541 -0.0720  1.1234 -1.4952
 7802TIP3    H247602   5.149   2.623   6.597  0.2117 -0.0356  1.6612
 7803TIP3   OH247603   4.022   4.360   8.796  0.0437 -0.2087  0.1192
 7803TIP3    H147604   4.098   4.387   8.846 -0.0738 -0.1888  0.2865
 7803TIP3    H247605   3.967   4.438   8.791 -0.9116 -0.7343  1.7160
 7804TIP3   OH247606   4.731   2.585   9.802  0.3590 -0.1715  0.2591
 7804TIP3    H147607   4.687   2.650   9.748 -0.2342 -0.2980  0.5778
 7804TIP3    H247608   4.754   2.632   9.882  1.3816  0.0589 -0.1570
 7805TIP3   OH247609   2.822   4.415   8.040 -0.2188 -0.4645  0.2422
 7805TIP3    H147610   2.830   4.507   8.016 -0.4743 -1.1244 -2.8394
 7805TIP3    H247611   2.909   4.379   8.026 -0.3125 -0.8534  0.6392
 7806TIP3   OH247612   0.300   6.702   7.376 -0.1668 -0.0253 -0.3060
 7806TIP3    H147613   0.211   6.730   7.394  0.1661  1.0002 -0.2319
 7806TIP3    H247614   0.328   6.754   7.301  0.4859 -0.0959 -0.1250
 7807TIP3   OH247615   2.019   0.218   6.830  1.0727 -0.5149  0.1472
 7807TIP3    H147616   1.987   0.134   6.864  0.0238  0.8116  2.6470
 7807TIP3    H247617   2.025   0.275   6.906  1.5442  1.7899 -1.4989
 7808TIP3   OH247618   6.097   1.423   9.272  0.1028 -0.2216 -0.2745
 7808TIP3    H147619   6.149   1.409   9.192  0.3745  2.1238 -0.5745
 7808TIP3    H247620   6.008   1.440   9.240 -0.0744 -0.5494  0.0282
 7809TIP3   OH247621   1.352   2.544   7.637 -0.3888 -0.4931  0.2583
 7809TIP3    H147622   1.282   2.546   7.702  0.4805 -0.4982  1.2132
 7809TIP3    H247623   1.315   2.588   7.561 -1.3053 -0.1785  0.8690
 7810TIP3   OH247624   1.354   2.144   7.411  0.0536  0.0876 -0.2073
 7810TIP3    H147625   1.407   2.066   7.427  0.0530  0.0447 -0.4094
 7810TIP3    H247626   1.394   2.212   7.465  1.1442  0.4033 -1.3769
 7811TIP3   OH247627   5.855   3.746  11.060 -0.0340 -0.1304 -0.0176
 7811TIP3    H147628   5.888   3.735  10.971 -0.5502 -2.2596  0.0177
 7811TIP3    H247629   5.817   3.661  11.083 -1.0510  0.7498  1.7777
 7812TIP3   OH247630   5.017   1.869   8.824  0.2096 -0.2740 -0.5127
 7812TIP3    H147631   4.950   1.900   8.762 -0.4104  3.3614  1.7011
 7812TIP3    H247632   4.971   1.807   8.880  0.0366 -1.4144 -1.8569
 7813TIP3   OH247633   0.816   1.912   9.142  0.1661 -0.3775  0.0353
 7813TIP3    H147634   0.874   1.866   9.202  0.2115  1.7543  1.7775
 7813TIP3    H247635   0.862   1.912   9.058  0.9887 -1.7969  0.4478
 7814TIP3   OH247636   0.964   5.011   8.703 -0.1588 -0.1604 -0.3203
 7814TIP3    H147637   0.884   5.058   8.680  0.6012  2.2058  1.4580
 7814TIP3    H247638   1.028   5.080   8.721  1.2006 -1.8701  1.9491
 7815TIP3   OH247639   0.939   6.273   8.815  0.1182 -0.2393  0.3749
 7815TIP3    H147640   1.001   6.338   8.784 -0.3281 -0.2775 -0.6299
 7815TIP3    H247641   0.977   6.189   8.791  0.7381 -0.3832  1.7509
 7816TIP3   OH247642   5.609   1.548   9.285 -0.3373 -0.3685  0.0200
 7816TIP3    H147643   5.678   1.528   9.348 -0.1138  0.2925 -0.0075
 7816TIP3    H247644   5.542   1.594   9.336  0.8868  2.3295 -0.6207
 7817TIP3   OH247645   5.793   3.179   6.497  0.4512 -0.1008 -0.2516
 7817TIP3    H147646   5.872   3.125   6.487  1.3050  0.5294  2.1807
 7817TIP3    H247647   5.725   3.118   6.522  1.6614 -0.1413  3.5821
 7818TIP3   OH247648   4.308   4.897   8.466  0.3925  0.7418 -0.6321
 7818TIP3    H147649   4.339   4.978   8.425 -0.2626  0.7906 -1.0362
 7818TIP3    H247650   4.227   4.923   8.511  0.2975  0.3596 -0.5829
 7819TIP3   OH247651   2.116   0.276   8.416 -0.0332 -0.1192 -0.3568
 7819TIP3    H147652   2.077   0.327   8.346 -0.3814  0.1215  0.0032
 7819TIP3    H247653   2.172   0.338   8.463  0.3964 -0.3394 -0.5660
 7820TIP3   OH247654   5.729   0.365   7.252 -0.9586 -0.0749  0.4885
 7820TIP3    H147655   5.642   0.393   7.279 -1.7806 -2.9105  1.1355
 7820TIP3    H247656   5.768   0.328   7.332  0.0147 -0.6975 -0.2408
 7821TIP3   OH247657   6.323   5.538   8.689 -0.0975  0.1878  0.2131
 7821TIP3    H147658   6.394   5.589   8.649 -1.4868  1.1301 -1.1568
 7821TIP3    H247659   6.281   5.599   8.750  0.1227 -0.3105  0.8798
 7822TIP3   OH247660   2.134   3.646   8.491  0.3725 -0.3732 -0.3284
 7822TIP3    H147661   2.128   3.736   8.525 -0.5987 -0.9218  1.0286
 7822TIP3    H247662   2.198   3.652   8.420  0.9621  1.2275  0.2875
 7823TIP3   OH247663   1.964   4.907   8.083  0.2724  0.1867 -0.2296
 7823TIP3    H147664   1.941   4.843   8.150 -0.0052  0.2518 -0.2612
 7823TIP3    H247665   2.058   4.896   8.071  0.1594 -0.5329 -0.5507
 7824TIP3   OH247666   0.667   6.314   8.859  0.1465  0.5048  0.1809
 7824TIP3    H147667   0.760   6.310   8.842  0.1068 -1.3072  0.2051
 7824TIP3    H247668   0.661   6.336   8.952  0.5071  1.8900 -0.1107
 7825TIP3   OH247669   3.352   2.909   8.515  0.2661  0.0919 -0.4203
 7825TIP3    H147670   3.278   2.969   8.506  0.2267  0.4241  1.7271
 7825TIP3    H247671   3.312   2.822   8.512 -0.5825  0.2591  2.6027
 7826TIP3   OH247672   3.880   2.478   7.621  0.0749 -0.2122  0.3727
 7826TIP3    H147673   3.835   2.449   7.701  0.1190 -1.2214  0.0408
 7826TIP3    H247674   3.970   2.447   7.632 -0.0906 -0.9824 -0.3800
 7827TIP3   OH247675   0.118   1.471   8.941 -0.4449  0.3422 -0.3087
 7827TIP3    H147676   0.028   1.446   8.922 -0.6614  1.0615 -0.2336
 7827TIP3    H247677   0.171   1.404   8.897 -0.9950  0.5634 -1.3264
 7828TIP3   OH247678   4.210   5.981   9.313  0.2260  0.3381  0.5239
 7828TIP3    H147679   4.274   6.040   9.353 -1.4972 -0.0190  4.2946
 7828TIP3    H247680   4.126   6.024   9.328 -0.7145 -0.7922 -1.1912
 7829TIP3   OH247681   1.366   5.822   7.097 -0.9395 -0.1463 -0.1757
 7829TIP3    H147682   1.380   5.741   7.147 -0.8497 -1.4213 -2.1604
 7829TIP3    H247683   1.423   5.886   7.138  0.3864 -1.5885  0.3255
 7830TIP3   OH247684   2.699   4.018   6.951  0.9500 -0.0535 -0.3389
 7830TIP3    H147685   2.628   4.031   7.014  2.0386  1.4070  0.6617
 7830TIP3    H247686   2.766   3.970   7.000  1.2524 -0.1083 -0.8017
 7831TIP3   OH247687   5.242   4.057   9.472 -0.2176 -0.1383  0.2060
 7831TIP3    H147688   5.225   4.128   9.533 -1.1330  1.0640 -1.3685
 7831TIP3    H247689   5.334   4.068   9.447  0.2098 -0.7430  1.4586
 7832TIP3   OH247690   4.380   0.138   6.594 -0.7076  0.1811  0.0465
 7832TIP3    H147691   4.441   0.202   6.556 -0.6641 -0.6258 -1.3131
 7832TIP3    H247692   4.357   0.174   6.679  1.2164  0.7965  0.3435
 7833TIP3   OH247693   5.576   3.230   8.293 -0.4313 -0.0162 -0.4370
 7833TIP3    H147694   5.512   3.187   8.350 -0.6457  0.4934 -0.2895
 7833TIP3    H247695   5.609   3.160   8.237 -1.3743 -0.2292 -0.7484
 7834TIP3   OH247696   5.471   1.764   6.701  0.1706 -0.4552 -0.0231
 7834TIP3    H147697   5.420   1.710   6.640 -1.7750 -0.0347  1.1510
 7834TIP3    H247698   5.562   1.750   6.675 -0.4071 -2.6103 -1.1162
 7835TIP3   OH247699   6.538   2.831  10.452  0.4239  0.2538  0.1855
 7835TIP3    H147700   6.515   2.924  10.462  2.0044  0.5625  1.1610
 7835TIP3    H247701   6.629   2.832  10.425  0.5626 -1.0385  0.5660
 7836TIP3   OH247702   0.532   3.376   9.833  0.4703 -0.2363 -0.5644
 7836TIP3    H147703   0.572   3.463   9.825  0.5001 -0.2330 -0.3809
 7836TIP3    H247704   0.601   3.321   9.870  0.0741 -0.0520  0.5086
 7837TIP3   OH247705   0.262   0.265   6.835  0.6709 -0.0522 -0.1993
 7837TIP3    H147706   0.346   0.310   6.823 -0.3853  1.6057 -1.8552
 7837TIP3    H247707   0.260   0.200   6.765 -0.2895  1.3427 -1.5055
 7838TIP3   OH247708   5.781   6.348   7.255  0.5770  0.0951  0.0523
 7838TIP3    H147709   5.719   6.309   7.194  1.2797 -2.3949  0.8173
 7838TIP3    H247710   5.853   6.379   7.200 -0.9263  2.3690 -0.7683
 7839TIP3   OH247711   2.815   4.402   7.036  0.1429 -0.3306 -0.6371
 7839TIP3    H147712   2.894   4.350   7.046  1.0631  0.4407 -2.9828
 7839TIP3    H247713   2.772   4.365   6.959 -0.8879  0.3189 -0.3917
 7840TIP3   OH247714   4.583   1.945   6.598  0.1681  0.5258  0.1197
 7840TIP3    H147715   4.548   1.978   6.516 -1.2812 -1.7531 -0.2609
 7840TIP3    H247716   4.514   1.962   6.662  1.3192  2.3662  0.9545
 7841TIP3   OH247717   2.029   2.125   9.171  0.5010  0.6201  0.3527
 7841TIP3    H147718   1.968   2.053   9.183 -0.1690  1.3357  1.4516
 7841TIP3    H247719   2.114   2.089   9.196  0.3395 -0.0493 -0.0363
 7842TIP3   OH247720   0.636   2.857   9.769 -0.2985  0.4525  0.4220
 7842TIP3    H147721   0.701   2.861   9.699  0.2994 -2.6021  0.6705
 7842TIP3    H247722   0.572   2.793   9.739 -2.4429  2.2543  0.8670
 7843TIP3   OH247723   0.691   3.591   7.013  0.1236  0.0119  0.3456
 7843TIP3    H147724   0.631   3.543   7.070 -0.3017  0.5600  0.3592
 7843TIP3    H247725   0.722   3.525   6.950  1.3994 -0.8692  1.8049
 7844TIP3   OH247726   6.027   1.510   7.883  0.7835 -0.7054 -0.1561
 7844TIP3    H147727   6.058   1.559   7.807  0.7378  0.1684  0.3833
 7844TIP3    H247728   6.047   1.419   7.862  1.3516 -0.4111 -0.9393
 7845TIP3   OH247729   3.554   4.138   6.380  1.2725 -0.3309  0.4354
 7845TIP3    H147730   3.471   4.160   6.338  1.4947  0.3276  0.3318
 7845TIP3    H247731   3.596   4.222   6.396  1.1815 -0.5546  2.0042
 7846TIP3   OH247732   5.834   5.260   6.903  0.2928  0.4783  0.0155
 7846TIP3    H147733   5.890   5.291   6.974  1.1428  0.8117 -0.7810
 7846TIP3    H247734   5.768   5.329   6.892 -0.9083 -0.3671  1.6127
 7847TIP3   OH247735   0.993   2.116   8.440  0.1008 -0.2291 -0.0218
 7847TIP3    H147736   0.995   2.204   8.480  0.7431 -0.7923  1.2577
 7847TIP3    H247737   0.987   2.057   8.515 -1.0035 -1.2613 -0.9064
 7848TIP3   OH247738   6.518   1.791   7.273 -0.1053  0.0539 -0.0154
 7848TIP3    H147739   6.603   1.778   7.231 -0.2234  0.2475 -0.3186
 7848TIP3    H247740   6.502   1.885   7.265  0.3027  0.2632  1.2997
 7849TIP3   OH247741   1.328   4.827   6.946 -0.1779 -0.2694  0.4290
 7849TIP3    H147742   1.275   4.882   7.004 -1.5075 -0.5321 -0.4774
 7849TIP3    H247743   1.288   4.741   6.951 -0.1488 -0.3629 -0.6400
 7850TIP3   OH247744   2.315   4.540   6.575 -0.4367  0.0120 -0.6446
 7850TIP3    H147745   2.338   4.498   6.658 -1.0792 -0.3662 -0.6487
 7850TIP3    H247746   2.309   4.468   6.512  0.2991  0.3215 -1.0900
 7851TIP3   OH247747   0.627   4.146   7.704  0.5342 -0.2571 -0.3960
 7851TIP3    H147748   0.543   4.099   7.700  1.5047 -2.0108 -2.2920
 7851TIP3    H247749   0.648   4.165   7.612  0.6786  3.2017  0.2101
 7852TIP3   OH247750   1.874   6.010   9.359  0.3888 -0.2814 -0.0699
 7852TIP3    H147751   1.852   5.995   9.267 -0.5481 -2.5951  0.4418
 7852TIP3    H247752   1.969   6.020   9.360  0.4098 -0.2819 -1.2872
 7853TIP3   OH247753   3.408   2.061   7.407 -0.0343  0.4145 -0.1186
 7853TIP3    H147754   3.496   2.097   7.421 -0.0593 -0.2791  2.1072
 7853TIP3    H247755   3.391   2.006   7.483 -1.4235 -1.5086 -1.7014
 7854TIP3   OH247756   5.264   3.222   9.753 -0.1487  0.3765 -0.0251
 7854TIP3    H147757   5.330   3.175   9.701  0.2622 -0.3803  1.1466
 7854TIP3    H247758   5.226   3.154   9.810 -2.8004  0.4963 -1.4526
 7855TIP3   OH247759   0.569   3.919   8.064 -0.1406  0.7692 -0.3716
 7855TIP3    H147760   0.486   3.915   8.113  0.5966  0.2821  0.8791
 7855TIP3    H247761   0.547   3.883   7.978 -1.2852  0.8811 -0.1544
 7856TIP3   OH247762   4.537   1.955   9.697 -0.6831  0.0730  0.7418
 7856TIP3    H147763   4.543   1.959   9.602  1.1709 -0.6115  0.8007
 7856TIP3    H247764   4.455   2.001   9.717  0.0591  2.3561 -1.0123
 7857TIP3   OH247765   2.374   0.458   7.667  0.1316 -0.0966 -0.0947
 7857TIP3    H147766   2.393   0.529   7.606  0.5864 -1.9471 -2.2419
 7857TIP3    H247767   2.280   0.443   7.659  0.4885 -1.6960 -2.0415
 7858TIP3   OH247768   1.354   3.146   7.820 -0.1874 -0.2473  0.0464
 7858TIP3    H147769   1.345   3.111   7.731  0.4192  0.2240 -0.2070
 7858TIP3    H247770   1.302   3.086   7.874 -0.4252 -0.6396 -0.5969
 7859TIP3   OH247771   1.296   5.904   8.155  0.7494 -0.0716  0.1504
 7859TIP3    H147772   1.239   5.962   8.106  0.0511 -0.5667  0.3620
 7859TIP3    H247773   1.359   5.963   8.199 -1.4734  0.8094  2.4219
 7860TIP3   OH247774   0.199   2.167   8.272 -0.1662  0.0905  0.2706
 7860TIP3    H147775   0.157   2.242   8.315  0.8336  1.0009 -0.3031
 7860TIP3    H247776   0.273   2.204   8.225 -0.6904 -0.9848 -1.5257
 7861TIP3   OH247777   5.082   4.758  10.157  0.1482 -0.5245 -0.0039
 7861TIP3    H147778   5.082   4.677  10.208  1.8657  0.2606  1.3243
 7861TIP3    H247779   5.022   4.740  10.084 -0.0051 -2.7498  0.5971
 7862TIP3   OH247780   2.155   0.653   9.072  0.2120  0.3450  0.7624
 7862TIP3    H147781   2.088   0.587   9.091 -0.8457  1.3378  0.5848
 7862TIP3    H247782   2.232   0.602   9.046  0.7782 -1.0018  4.4391
 7863TIP3   OH247783   2.389   1.480   7.194 -0.0398  0.1817 -0.3819
 7863TIP3    H147784   2.319   1.521   7.244  0.3663  1.7872 -1.0567
 7863TIP3    H247785   2.419   1.549   7.134  0.5243 -1.1983 -1.7488
 7864TIP3   OH247786   4.190   6.538   7.486 -0.1527 -0.3290 -0.4317
 7864TIP3    H147787   4.233   6.483   7.551 -0.0728 -1.2441 -1.2242
 7864TIP3    H247788   4.147   6.607   7.536  0.4661 -0.6282  0.5262
 7865TIP3   OH247789   4.081   0.609   8.318 -0.1016  0.0464 -0.0473
 7865TIP3    H147790   4.017   0.631   8.386  0.7160  0.3189  0.6635
 7865TIP3    H247791   4.103   0.517   8.335  1.1056  0.4850  0.9484
 7866TIP3   OH247792   6.261   1.259   7.285  0.6009  0.2372 -0.1885
 7866TIP3    H147793   6.316   1.237   7.361  2.3318  1.7987 -0.9150
 7866TIP3    H247794   6.190   1.312   7.322  1.6023  1.2647  0.3501
 7867TIP3   OH247795   4.789   4.239   8.675  0.0971  0.1247 -0.2012
 7867TIP3    H147796   4.840   4.310   8.637  0.0467  0.4889  0.4121
 7867TIP3    H247797   4.698   4.260   8.652 -0.2512  1.7881  2.3445
 7868TIP3   OH247798   5.833   4.194   7.652  0.4753  0.1597  0.2131
 7868TIP3    H147799   5.768   4.124   7.654  0.9474 -0.2796  0.3245
 7868TIP3    H247800   5.815   4.241   7.571  1.1808 -1.0879 -0.6989
 7869TIP3   OH247801   2.066   3.646   8.857 -0.4464 -0.2463 -0.1108
 7869TIP3    H147802   2.084   3.562   8.813 -0.0024 -0.7587  1.0210
 7869TIP3    H247803   2.132   3.651   8.925 -1.1208  0.5516  0.4928
 7870TIP3   OH247804   2.163   0.360   7.049 -0.1270  0.5265 -0.5051
 7870TIP3    H147805   2.218   0.413   7.107  0.8136  0.2028 -1.0768
 7870TIP3    H247806   2.159   0.274   7.090 -2.1752  1.1518  0.7531
 7871TIP3   OH247807   4.906   3.495   7.560  0.0399  0.8417  0.4954
 7871TIP3    H147808   4.818   3.510   7.526  0.4234  2.1627  0.0345
 7871TIP3    H247809   4.942   3.583   7.575  0.6453  0.3424  2.3700
 7872TIP3   OH247810   2.901   1.470   7.962  0.3796 -0.1622  0.4068
 7872TIP3    H147811   2.930   1.405   8.026 -1.4814 -1.1667  0.2945
 7872TIP3    H247812   2.818   1.503   7.997 -0.6186 -0.6331 -1.3566
 7873TIP3   OH247813   4.762   0.781   6.516  0.0940 -0.3907 -1.0642
 7873TIP3    H147814   4.733   0.827   6.595  3.2253  1.4509 -0.8234
 7873TIP3    H247815   4.770   0.690   6.543 -1.2408 -0.2198 -0.0019
 7874TIP3   OH247816   6.178   4.560   7.786  0.0032 -0.3147  0.1834
 7874TIP3    H147817   6.087   4.585   7.805  0.2656  0.2914  0.6760
 7874TIP3    H247818   6.178   4.538   7.693 -0.6259 -0.1947  0.1511
 7875TIP3   OH247819   1.749   2.837   7.489  0.1566  0.8573 -0.0917
 7875TIP3    H147820   1.683   2.845   7.420 -0.9425 -3.0009  0.3195
 7875TIP3    H247821   1.701   2.851   7.571  0.1925 -0.2550  0.1280
 7876TIP3   OH247822   1.962   5.680   9.108 -0.4847  0.0258  0.5842
 7876TIP3    H147823   1.869   5.671   9.085 -0.6439 -0.7300  1.4890
 7876TIP3    H247824   1.981   5.603   9.162 -0.2665  1.9093  3.3964
 7877TIP3   OH247825   2.388   3.464   9.894 -0.0223 -0.0245  0.2720
 7877TIP3    H147826   2.374   3.374   9.865  0.0645 -0.0538  0.3209
 7877TIP3    H247827   2.349   3.467   9.982 -1.2205  0.3361 -0.2386
 7878TIP3   OH247828   1.292   6.695   8.866  0.8019  0.3140 -0.1382
 7878TIP3    H147829   1.210   6.661   8.831  0.5582  1.9266 -1.2330
 7878TIP3    H247830   1.313   6.636   8.939 -1.2284 -0.2302  0.0721
 7879TIP3   OH247831   4.206   0.395   7.086 -0.0648  0.1776 -0.0358
 7879TIP3    H147832   4.279   0.351   7.043  1.2462  0.2530  2.0174
 7879TIP3    H247833   4.232   0.487   7.089  0.2012  0.0763  1.4822
 7880TIP3   OH247834   1.999   0.450   8.193  0.1392  0.5810 -0.4290
 7880TIP3    H147835   1.922   0.471   8.140  0.1689 -0.1295 -0.7559
 7880TIP3    H247836   2.048   0.533   8.198  0.2351  0.6100 -1.6737
 7881TIP3   OH247837   3.310   3.753   9.452 -0.3155  0.4451  0.3402
 7881TIP3    H147838   3.357   3.834   9.474  2.1731 -1.1097  1.1783
 7881TIP3    H247839   3.372   3.704   9.398 -2.3249 -0.3312 -1.3687
 7882TIP3   OH247840   4.087   5.845   8.348 -0.1785 -0.0023  0.1456
 7882TIP3    H147841   4.087   5.751   8.368 -0.3727 -0.2327 -0.8860
 7882TIP3    H247842   4.106   5.849   8.255 -3.7309  0.7757 -0.6959
 7883TIP3   OH247843   4.277   4.835   9.283 -0.0198  0.0995  0.2793
 7883TIP3    H147844   4.236   4.809   9.200 -1.7418 -1.2024  1.4651
 7883TIP3    H247845   4.228   4.912   9.311  0.3878  0.3819  0.2186
 7884TIP3   OH247846   0.313   3.328   7.306  0.1279 -0.2679  0.3118
 7884TIP3    H147847   0.238   3.290   7.259 -0.2930  0.3914  0.4404
 7884TIP3    H247848   0.290   3.319   7.399 -0.1009  0.5390  0.3383
 7885TIP3   OH247849   1.571   6.563   6.983 -0.4851  0.2332  0.6066
 7885TIP3    H147850   1.527   6.552   6.899 -1.8721  0.2375  1.3087
 7885TIP3    H247851   1.523   6.633   7.027  1.2467  1.3928  0.7661
 7886TIP3   OH247852   6.076   1.788   6.618 -0.3359  0.0104  0.0398
 7886TIP3    H147853   6.039   1.708   6.656 -0.2678  0.8601  2.0620
 7886TIP3    H247854   6.066   1.853   6.688  2.5817  0.9354 -0.3118
 7887TIP3   OH247855   4.222   2.293   6.713 -0.1313  0.1375 -0.0025
 7887TIP3    H147856   4.277   2.217   6.731 -1.0222 -0.3148  0.9854
 7887TIP3    H247857   4.283   2.362   6.687  0.6926 -0.8965 -0.8820
 7888TIP3   OH247858   6.366   2.759  10.123 -0.3874 -0.6820 -1.0058
 7888TIP3    H147859   6.297   2.706  10.162  1.0133 -2.9009 -1.3485
 7888TIP3    H247860   6.387   2.825  10.189 -0.2760 -2.3289  0.6523
 7889TIP3   OH247861   5.267   4.030  10.229  0.4063 -0.2629  0.2965
 7889TIP3    H147862   5.200   4.071  10.175  0.2129 -1.5128 -0.4423
 7889TIP3    H247863   5.230   3.946  10.256  0.6091  0.2083  2.1720
 7890TIP3   OH247864   0.288   5.966   6.903 -0.5252 -0.6386  0.2652
 7890TIP3    H147865   0.265   5.876   6.880  0.9258 -0.7299 -0.9222
 7890TIP3    H247866   0.376   5.979   6.868 -0.7370  1.2816  0.3140
 7891TIP3   OH247867   2.032   5.584   7.134  0.1327 -0.2594 -0.0390
 7891TIP3    H147868   2.052   5.557   7.224 -1.7401  2.4138  1.3193
 7891TIP3    H247869   1.945   5.549   7.117  0.1677 -0.1212 -0.5237
 7892TIP3   OH247870   0.505   3.258  10.485 -0.3965  0.1131  0.1942
 7892TIP3    H147871   0.594   3.237  10.458 -0.2160  0.8596  0.1636
 7892TIP3    H247872   0.509   3.260  10.581  0.0845  1.9361  0.1733
 7893TIP3   OH247873   1.576   2.990   9.520  0.0683  0.4580  0.5420
 7893TIP3    H147874   1.494   2.985   9.471  0.4103  0.2312 -0.0165
 7893TIP3    H247875   1.634   3.043   9.466  0.7121 -0.4567  0.3113
 7894TIP3   OH247876   1.592   1.021   8.181  0.1975 -0.2975  0.6789
 7894TIP3    H147877   1.597   1.032   8.087 -0.1149 -0.4201  0.6461
 7894TIP3    H247878   1.629   1.102   8.217  0.7573 -0.4468  0.4590
 7895TIP3   OH247879   4.880   4.627   9.531 -0.2386 -0.2242 -0.1155
 7895TIP3    H147880   4.805   4.644   9.473 -0.1575  0.3355 -0.0562
 7895TIP3    H247881   4.845   4.641   9.619  0.2231  1.2243 -0.1284
 7896TIP3   OH247882   6.620   3.881   9.768 -0.3525  0.8868  0.5200
 7896TIP3    H147883   6.678   3.956   9.776 -0.9989  1.3518  0.8647
 7896TIP3    H247884   6.549   3.898   9.830 -0.0238 -0.4596  1.3142
 7897TIP3   OH247885   3.453   6.673   7.829 -0.1251  0.2308  0.0426
 7897TIP3    H147886   3.455   6.578   7.836  0.0959  0.3387  1.9850
 7897TIP3    H247887   3.383   6.691   7.767  0.0665 -1.2002 -0.6200
 7898TIP3   OH247888   2.856   0.708   7.407  0.3632 -0.4253  0.1162
 7898TIP3    H147889   2.804   0.635   7.374  0.0706 -0.5943  0.9438
 7898TIP3    H247890   2.901   0.742   7.329  0.6311 -1.5800 -0.2489
 7899TIP3   OH247891   3.930   1.913   8.112  0.6064  0.4071 -0.1202
 7899TIP3    H147892   3.930   1.973   8.038  0.7780 -1.4485 -1.7239
 7899TIP3    H247893   3.967   1.832   8.076  2.3308 -0.0470  2.4623
 7900TIP3   OH247894   1.874   6.017   7.013  0.5377 -0.1135 -0.0720
 7900TIP3    H147895   1.817   5.948   7.046 -0.5670  0.9359  0.3033
 7900TIP3    H247896   1.962   5.979   7.014  0.1620 -1.0088  1.5663
 7901TIP3   OH247897   0.322   2.631   7.225 -0.9198 -0.0407  0.1393
 7901TIP3    H147898   0.331   2.551   7.277 -1.7594  0.4440  1.0574
 7901TIP3    H247899   0.294   2.698   7.287 -3.6315  0.1811 -1.1445
 7902TIP3   OH247900   5.874   0.558   8.518  0.1654  0.2030  0.3167
 7902TIP3    H147901   5.817   0.556   8.441  0.2085 -0.5526  0.2931
 7902TIP3    H247902   5.886   0.651   8.537 -1.5837  0.3766  0.7262
 7903TIP3   OH247903   3.308   1.911   8.341  0.0770  0.3004  0.0705
 7903TIP3    H147904   3.393   1.955   8.340 -0.3016  1.1404  1.6101
 7903TIP3    H247905   3.247   1.974   8.303  0.0656 -0.1996 -0.7827
 7904TIP3   OH247906   4.786   1.937   8.090 -0.1085  1.1305 -0.1743
 7904TIP3    H147907   4.801   1.986   8.170 -1.0099  0.6164  0.3229
 7904TIP3    H247908   4.843   1.860   8.098 -0.3054  1.0049  0.0524
 7905TIP3   OH247909   1.400   1.090   6.504 -1.0821 -0.3445 -0.6182
 7905TIP3    H147910   1.306   1.073   6.498 -0.7984 -1.7581 -1.4081
 7905TIP3    H247911   1.419   1.144   6.428 -1.4539  1.0231  0.2290
 7906TIP3   OH247912   1.719   4.986   9.396  1.1398  0.3105  0.2273
 7906TIP3    H147913   1.750   5.068   9.358  0.1499 -0.1940 -1.8326
 7906TIP3    H247914   1.624   4.988   9.384  0.8794 -0.3273  1.8937
 7907TIP3   OH247915   4.913   6.059  15.637 -0.2995  0.4286 -0.0591
 7907TIP3    H147916   4.915   6.054  15.542 -0.6260  0.4414 -0.0693
 7907TIP3    H247917   4.986   6.004  15.666 -0.1013  0.5532 -0.3179
 7908TIP3   OH247918   6.477   1.752   7.749  0.1151  0.4430 -0.1099
 7908TIP3    H147919   6.401   1.717   7.701  0.7095 -0.2360 -0.5626
 7908TIP3    H247920   6.550   1.742   7.688  0.5097  1.4724  0.1689
 7909TIP3   OH247921   2.096   4.633   6.855 -0.0590  0.2482 -0.1208
 7909TIP3    H147922   2.087   4.658   6.763 -0.0362 -3.3228 -1.2633
 7909TIP3    H247923   2.006   4.629   6.888 -0.6524 -3.3280 -1.6556
 7910TIP3   OH247924   0.876   4.994   6.591  0.5064  0.3496  0.0171
 7910TIP3    H147925   0.965   5.016   6.563  0.6403 -0.2314 -0.0405
 7910TIP3    H247926   0.887   4.960   6.680  0.2681  0.7842  0.2162
 7911TIP3   OH247927   0.258   4.192   9.548  0.3540  0.3825  0.1413
 7911TIP3    H147928   0.206   4.243   9.486 -2.0259 -0.0792  1.6236
 7911TIP3    H247929   0.236   4.101   9.527 -0.5594  0.2235  1.6720
 7912TIP3   OH247930   3.059   0.053   7.502 -0.6442  0.1494 -0.0069
 7912TIP3    H147931   2.984   0.092   7.458 -0.4382  0.7118  0.1328
 7912TIP3    H247932   3.025  -0.027   7.542 -0.2705 -1.9022 -3.4436
 7913TIP3   OH247933   0.062   3.714   8.467 -0.0845 -0.2374 -0.4323
 7913TIP3    H147934  -0.016   3.723   8.522  0.4046  0.3537  0.1901
 7913TIP3    H247935   0.089   3.805   8.449  0.5253 -0.4368 -0.5500
 7914TIP3   OH247936   3.071   4.310   8.013 -0.6312 -0.0619  0.0392
 7914TIP3    H147937   3.131   4.306   8.087 -0.9836  0.7281  0.3732
 7914TIP3    H247938   3.127   4.318   7.936 -0.3114  1.3831  0.4040
 7915TIP3   OH247939   1.617   5.456   7.935 -0.0654  0.8172 -0.1747
 7915TIP3    H147940   1.551   5.521   7.912 -0.5482  0.2230 -0.5041
 7915TIP3    H247941   1.591   5.377   7.888  1.2304  0.7394 -0.8145
 7916TIP3   OH247942   0.285   0.191   8.175 -0.1817  0.1258  0.2629
 7916TIP3    H147943   0.294   0.176   8.081 -1.8222  0.5909  0.0053
 7916TIP3    H247944   0.259   0.106   8.211 -0.7576  0.2403  0.1166
 7917TIP3   OH247945   5.080   3.769   8.803  0.1600  0.0887  0.0009
 7917TIP3    H147946   5.013   3.731   8.746  2.3326 -1.9043 -1.4062
 7917TIP3    H247947   5.104   3.851   8.760 -0.6334  0.3155 -0.0272
 7918TIP3   OH247948   6.154   5.607   7.988  0.2957  0.4874 -0.3458
 7918TIP3    H147949   6.121   5.530   7.941  0.8116  0.5637 -0.8397
 7918TIP3    H247950   6.195   5.572   8.067 -0.5511  0.3549  0.0500
 7919TIP3   OH247951   4.652   6.037   8.153  0.1748  0.1324 -0.1126
 7919TIP3    H147952   4.616   5.978   8.087 -2.1781 -1.2166  2.2034
 7919TIP3    H247953   4.747   6.024   8.146  0.0957  0.4535 -3.4708
 7920TIP3   OH247954   3.914   0.900   9.061  0.0796 -0.3036 -0.0812
 7920TIP3    H147955   3.887   0.985   9.096  0.8918 -0.0716  0.0065
 7920TIP3    H247956   3.986   0.873   9.118 -0.4525 -1.2545  0.1479
 7921TIP3   OH247957   2.624   3.983   9.629 -0.1820  0.1824  0.3219
 7921TIP3    H147958   2.660   3.899   9.601 -0.5404  0.2635 -0.3967
 7921TIP3    H247959   2.697   4.028   9.670  0.9244  0.8887 -2.2758
 7922TIP3   OH247960   2.535   4.695   7.578 -0.3870 -0.4409 -0.1555
 7922TIP3    H147961   2.536   4.632   7.650  0.6603 -0.9831 -0.6267
 7922TIP3    H247962   2.625   4.724   7.569 -0.5281 -0.2474 -1.1367
 7923TIP3   OH247963   3.663   5.933   8.109 -0.0952 -0.8799  0.0584
 7923TIP3    H147964   3.713   5.990   8.167  0.6212 -0.6560 -0.7767
 7923TIP3    H247965   3.575   5.971   8.108 -0.2311 -1.1208  1.3079
 7924TIP3   OH247966   6.373   2.242  10.029 -0.1479 -0.5663  0.1277
 7924TIP3    H147967   6.281   2.232  10.054 -0.4136  0.2170 -0.5095
 7924TIP3    H247968   6.404   2.152  10.018 -1.0720 -0.8284 -0.4716
 7925TIP3   OH247969   6.298   4.741   8.881  0.1567 -0.1185  0.2386
 7925TIP3    H147970   6.303   4.660   8.830 -2.2773 -0.1709 -0.0405
 7925TIP3    H247971   6.386   4.778   8.877  0.2465 -0.4290 -3.5149
 7926TIP3   OH247972   0.629   2.075   8.438  0.3106 -0.2845 -0.1955
 7926TIP3    H147973   0.700   2.013   8.421  1.8337  1.3461 -0.1782
 7926TIP3    H247974   0.621   2.125   8.357 -0.7406 -0.3566 -0.1441
 7927TIP3   OH247975   4.126   6.128   6.772  0.1699  0.1479  0.0459
 7927TIP3    H147976   4.144   6.088   6.857  1.8956  1.4979  0.3568
 7927TIP3    H247977   4.098   6.217   6.792 -1.8275 -0.2240 -0.7364
 7928TIP3   OH247978   6.543   1.817   8.719 -0.1864 -0.1996  0.1677
 7928TIP3    H147979   6.488   1.763   8.777  0.5490 -1.4236 -0.2453
 7928TIP3    H247980   6.628   1.774   8.720 -0.0189  0.0348 -1.4263
 7929TIP3   OH247981   4.029   3.235   6.986 -0.0167 -0.7117 -0.3665
 7929TIP3    H147982   4.104   3.292   6.969 -0.2488 -0.2495  0.1465
 7929TIP3    H247983   3.958   3.271   6.933 -0.8755  1.0150  1.7997
 7930TIP3   OH247984   0.561   3.440   7.494 -0.4091 -0.2569 -0.6577
 7930TIP3    H147985   0.475   3.429   7.536 -0.1201 -2.5265 -0.5361
 7930TIP3    H247986   0.546   3.506   7.427 -2.8743 -2.0635 -2.0743
 7931TIP3   OH247987   5.161   0.504   7.276 -0.2743  0.1880  0.1140
 7931TIP3    H147988   5.237   0.458   7.239 -1.0542 -1.0868  0.0120
 7931TIP3    H247989   5.189   0.527   7.364 -0.4371 -2.2179  0.8880
 7932TIP3   OH247990   5.289   1.079   7.526 -0.2344  0.2790 -0.3160
 7932TIP3    H147991   5.197   1.103   7.520 -0.6534 -0.9518  0.7497
 7932TIP3    H247992   5.334   1.139   7.466 -1.6434  1.2946 -0.3924
 7933TIP3   OH247993   5.487   2.974   8.614 -0.0354  0.0510  0.3752
 7933TIP3    H147994   5.550   2.909   8.581 -1.0617 -0.6269 -0.2905
 7933TIP3    H247995   5.468   3.029   8.539 -0.8123 -0.2203  0.3640
 7934TIP3   OH247996   3.263   0.481   7.693  0.2039 -0.3267 -0.6298
 7934TIP3    H147997   3.230   0.540   7.625  0.7105  0.6859 -0.0268
 7934TIP3    H247998   3.191   0.419   7.708 -1.0689  1.2094 -0.0589
 7935TIP3   OH247999   5.005   2.846  10.408  0.0922 -0.0250 -0.7073
 7935TIP3    H148000   5.004   2.864  10.314 -2.1786 -2.8498 -1.3804
 7935TIP3    H248001   4.912   2.835  10.431  0.7166 -2.4157  1.1219
 7936TIP3   OH248002   2.009   0.190   8.097  0.0675  0.2301 -0.4944
 7936TIP3    H148003   1.980   0.121   8.156  0.0029 -0.9565 -1.8721
 7936TIP3    H248004   2.010   0.269   8.151  0.6184 -0.9195  1.2532
 7937TIP3   OH248005   6.116   1.600   7.273  0.3580 -0.0528  0.0494
 7937TIP3    H148006   6.190   1.626   7.327 -1.2692 -0.0625  2.4344
 7937TIP3    H248007   6.090   1.514   7.307 -0.7640 -0.0287 -0.6864
 7938TIP3   OH248008   0.789   4.064   9.715 -1.1081 -0.2108  0.3000
 7938TIP3    H148009   0.788   3.984   9.767  3.1761 -0.2406  0.6645
 7938TIP3    H248010   0.775   4.134   9.778  0.2419 -0.4478  0.8840
 7939TIP3   OH248011   3.865   3.767   9.807  0.4248  0.1840 -0.8586
 7939TIP3    H148012   3.812   3.714   9.866  1.4952 -0.1915 -0.1943
 7939TIP3    H248013   3.812   3.844   9.788  0.9972  1.5941  2.6425
 7940TIP3   OH248014   6.361   2.503   9.004  0.4179 -0.3956  0.2348
 7940TIP3    H148015   6.420   2.430   8.987 -0.0367 -0.1241 -3.2623
 7940TIP3    H248016   6.417   2.572   9.039  1.4192 -1.3758  0.6034
 7941TIP3   OH248017   4.198   5.585   8.338 -0.5182 -0.2705  0.8860
 7941TIP3    H148018   4.257   5.517   8.370  1.5172  1.2609  0.6790
 7941TIP3    H248019   4.257   5.652   8.302 -2.4400  1.1373  0.1674
 7942TIP3   OH248020   4.938   1.848   6.575 -0.3510 -0.3121 -0.0063
 7942TIP3    H148021   4.901   1.762   6.552 -0.4623 -0.2864  0.0760
 7942TIP3    H248022   5.026   1.828   6.606 -0.1373 -0.3330 -0.6036
 7943TIP3   OH248023   5.296   5.625   7.789  0.3664  0.1450 -0.1045
 7943TIP3    H148024   5.271   5.716   7.807 -1.4967  0.1435 -2.2244
 7943TIP3    H248025   5.299   5.619   7.693 -1.4570 -2.4731 -0.1027
 7944TIP3   OH248026   3.267   5.963   8.062 -0.0316  0.5130  0.5094
 7944TIP3    H148027   3.188   6.010   8.038 -0.6372 -1.6601 -2.4001
 7944TIP3    H248028   3.236   5.879   8.095  1.0050 -0.0983 -0.0141
 7945TIP3   OH248029   5.637   3.259   7.037 -0.3475  0.1199 -0.8329
 7945TIP3    H148030   5.549   3.247   7.073  0.2921  0.7246  1.1006
 7945TIP3    H248031   5.692   3.202   7.091  0.2208 -2.0174 -3.4494
 7946TIP3   OH248032   5.103   1.051   7.177 -0.0764  0.2503  0.7162
 7946TIP3    H148033   5.124   0.965   7.213 -1.5869 -0.4041  0.1190
 7946TIP3    H248034   5.127   1.113   7.247 -1.5541 -0.8691  2.2874
 7947TIP3   OH248035   0.904   3.564   6.448 -0.0597 -0.0636 -0.0039
 7947TIP3    H148036   0.947   3.491   6.406  1.7807  1.8170 -1.5927
 7947TIP3    H248037   0.826   3.526   6.489  0.3650 -2.7123 -1.4584
 7948TIP3   OH248038   0.198   1.699   7.968 -1.0813 -0.3435 -0.4921
 7948TIP3    H148039   0.214   1.715   8.061  2.0240  1.9669 -1.2627
 7948TIP3    H248040   0.260   1.630   7.944 -0.4787  0.4071 -1.1767
 7949TIP3   OH248041   2.314   4.407   6.847  0.2329  0.2095 -0.5495
 7949TIP3    H148042   2.247   4.474   6.833  0.1431 -0.0297 -1.3229
 7949TIP3    H248043   2.367   4.440   6.919 -1.8087 -0.4423  1.3809
 7950TIP3   OH248044   2.977   3.390   7.871 -0.9067  0.0190  0.5812
 7950TIP3    H148045   3.056   3.372   7.922  0.5955  2.3191 -0.7796
 7950TIP3    H248046   2.955   3.306   7.830  0.9786 -0.6240  0.7987
 7951TIP3   OH248047   0.496   5.520   8.602  0.0110 -0.2037  0.0488
 7951TIP3    H148048   0.564   5.466   8.641 -0.1984  0.3513  1.2017
 7951TIP3    H248049   0.538   5.560   8.526  0.9500  0.0734  0.6971
 7952TIP3   OH248050   4.992   0.092   8.603 -0.1699 -0.2049 -0.3493
 7952TIP3    H148051   4.918   0.082   8.663 -0.5074  1.7085 -0.3553
 7952TIP3    H248052   4.972   0.034   8.530  0.2401 -2.5721  1.3128
 7953TIP3   OH248053   1.754   2.900   6.572 -0.6791 -0.2707  0.2492
 7953TIP3    H148054   1.794   2.878   6.657  0.2639 -0.5334 -0.2540
 7953TIP3    H248055   1.755   2.996   6.569 -2.1910 -0.1834  1.2105
 7954TIP3   OH248056   2.071   1.598   6.796 -0.3717  0.1326  0.3102
 7954TIP3    H148057   2.163   1.576   6.804  0.2180  2.4716  0.6394
 7954TIP3    H248058   2.029   1.554   6.870  0.1224 -2.3625 -0.7924
 7955TIP3   OH248059   6.060   5.233   6.590  0.3568 -0.0259 -0.4214
 7955TIP3    H148060   5.984   5.175   6.592 -0.1539  0.6376  1.0656
 7955TIP3    H248061   6.032   5.309   6.540 -0.2207  0.5287  0.7176
 7956TIP3   OH248062   5.407   1.179   6.877 -0.6014 -0.0269 -0.0000
 7956TIP3    H148063   5.361   1.176   6.793  0.8473 -0.3467 -0.8261
 7956TIP3    H248064   5.440   1.268   6.883 -0.9838  0.0875  0.3879
 7957TIP3   OH248065   6.487   1.359   7.635 -0.1130  0.2328 -0.7236
 7957TIP3    H148066   6.396   1.376   7.662 -0.2939  0.2737 -1.3386
 7957TIP3    H248067   6.479   1.299   7.561  0.3674  0.1891 -0.7397
 7958TIP3   OH248068   6.303   2.049   8.971 -0.0814 -0.4321  0.3575
 7958TIP3    H148069   6.336   2.103   8.899  0.4575 -1.2757 -0.0571
 7958TIP3    H248070   6.377   1.992   8.993 -0.6747 -1.0876  0.6894
 7959TIP3   OH248071   1.923   2.274   6.404  0.5515  0.2458  0.2979
 7959TIP3    H148072   1.917   2.211   6.333  1.4120 -1.2809  1.5103
 7959TIP3    H248073   1.834   2.307   6.415  0.3075  0.1020 -1.0910
 7960TIP3   OH248074   5.434   2.483   8.825 -0.2773  0.4749  0.3787
 7960TIP3    H148075   5.442   2.571   8.788 -2.8282  0.5881 -0.0888
 7960TIP3    H248076   5.440   2.424   8.749 -1.5975  0.4667  0.2598
 7961TIP3   OH248077   4.732   5.173   7.421 -0.1016  0.3213  0.2852
 7961TIP3    H148078   4.688   5.154   7.504 -1.9270 -0.2315 -0.7548
 7961TIP3    H248079   4.747   5.268   7.423 -0.6806  0.4054  0.9844
 7962TIP3   OH248080   5.987   5.913   6.939 -0.0026 -0.4410 -0.5165
 7962TIP3    H148081   5.922   5.850   6.909  0.1613 -0.3479 -1.0855
 7962TIP3    H248082   5.958   5.937   7.027 -0.3368 -0.9379 -0.4848
 7963TIP3   OH248083   6.669   3.375   7.519  0.0134 -0.7545 -0.3584
 7963TIP3    H148084   6.716   3.412   7.594 -0.0313 -1.1397 -0.1382
 7963TIP3    H248085   6.656   3.449   7.460  1.7353 -0.8313 -0.8719
 7964TIP3   OH248086   0.691   0.473   6.832 -0.1318 -0.3162  0.0379
 7964TIP3    H148087   0.768   0.506   6.879 -0.1194 -1.6003  0.9638
 7964TIP3    H248088   0.710   0.381   6.817 -2.0295 -1.0004  1.4918
 7965TIP3   OH248089   5.917   3.737   7.486 -0.3272 -0.3851  0.0929
 7965TIP3    H148090   5.895   3.796   7.414 -0.1548  0.1682  0.4899
 7965TIP3    H248091   6.010   3.720   7.476 -0.4625 -0.9369 -0.2709
 7966TIP3   OH248092   6.164   1.621   9.546 -0.2849 -0.0037 -0.2602
 7966TIP3    H148093   6.130   1.647   9.632  0.3624 -0.0966  0.0250
 7966TIP3    H248094   6.133   1.531   9.534 -0.8677  0.2099 -0.3867
 7967TIP3   OH248095   5.895   5.739   7.942 -0.3159 -0.1823  0.6185
 7967TIP3    H148096   5.872   5.701   7.857  0.7708  2.1127 -0.7981
 7967TIP3    H248097   5.986   5.713   7.956  0.1107  0.9617  0.1219
 7968TIP3   OH248098   4.782   0.266   9.303 -0.7018 -0.3332  0.0761
 7968TIP3    H148099   4.877   0.256   9.297 -0.6278  0.6505 -0.6798
 7968TIP3    H248100   4.747   0.183   9.270 -0.1079 -0.1825 -0.9965
 7969TIP3   OH248101   3.489   1.679   8.657  0.0109  0.7027  0.2977
 7969TIP3    H148102   3.548   1.690   8.583 -1.9830 -0.3039 -1.5430
 7969TIP3    H248103   3.546   1.678   8.734  2.2244  1.0107 -1.2704
 7970TIP3   OH248104   6.338   4.117   6.878 -0.0947 -0.5586 -0.0558
 7970TIP3    H148105   6.404   4.125   6.946 -0.4309 -1.6090  0.4031
 7970TIP3    H248106   6.387   4.119   6.796  0.3199  0.6057  0.2012
 7971TIP3   OH248107   2.545   3.963   8.010 -0.2970  0.2053  0.0606
 7971TIP3    H148108   2.450   3.972   8.005 -0.2909  1.5289  1.6100
 7971TIP3    H248109   2.578   4.052   8.000  0.7642 -0.1846 -0.0626
 7972TIP3   OH248110   1.696   2.853   8.998  0.2460  0.0937 -0.1314
 7972TIP3    H148111   1.758   2.782   9.014 -0.0287  0.3813  2.8148
 7972TIP3    H248112   1.750   2.932   9.000  0.2446  0.1449 -1.2671
 7973TIP3   OH248113   2.858   3.345   6.736 -0.0467  0.2976 -0.3835
 7973TIP3    H148114   2.896   3.408   6.797  0.2674 -0.2897  0.0355
 7973TIP3    H248115   2.909   3.357   6.655 -0.8209  1.4570 -0.7316
 7974TIP3   OH248116   0.407   5.892   9.267  0.1261  0.0983 -0.3862
 7974TIP3    H148117   0.344   5.913   9.336  0.2581  1.3538 -0.6101
 7974TIP3    H248118   0.480   5.850   9.312 -0.3608 -0.3047  0.0389
 7975TIP3   OH248119   1.108   0.556   8.284  0.4820  0.7115 -0.4668
 7975TIP3    H148120   1.027   0.592   8.249  1.6492  3.4163 -0.5927
 7975TIP3    H248121   1.165   0.544   8.208  0.4566 -0.5701 -0.3070
 7976TIP3   OH248122   4.962   1.968   7.142  0.4729 -0.2524  0.4325
 7976TIP3    H148123   4.882   1.948   7.095  0.6985 -3.3859  1.1787
 7976TIP3    H248124   4.932   1.993   7.230  0.2724 -0.2317  0.3588
 7977TIP3   OH248125   3.905   4.332   6.806  0.2972  0.0392  0.3904
 7977TIP3    H148126   3.907   4.415   6.854  0.1333  0.7539 -0.7781
 7977TIP3    H248127   3.905   4.359   6.714  0.9061 -1.2839 -0.0145
 7978TIP3   OH248128   1.613   0.793   8.583  0.9132 -0.0749  0.1383
 7978TIP3    H148129   1.666   0.736   8.639  2.4006  2.3109  1.3161
 7978TIP3    H248130   1.647   0.779   8.495  1.2969 -0.9278  0.4096
 7979TIP3   OH248131   0.431   6.249   6.773 -0.7253  0.2916 -0.0152
 7979TIP3    H148132   0.433   6.329   6.719 -0.7254  0.3511  0.0734
 7979TIP3    H248133   0.350   6.255   6.823 -1.9392 -0.8943 -1.7202
 7980TIP3   OH248134   2.723   0.409   6.919  0.1456  0.0002 -0.0950
 7980TIP3    H148135   2.647   0.356   6.942  1.9673 -2.4281  0.8944
 7980TIP3    H248136   2.753   0.446   7.002  1.0870 -0.6597 -0.1139
 7981TIP3   OH248137   3.413   2.005   6.981  0.0666  0.3274  0.1001
 7981TIP3    H148138   3.399   2.096   6.955 -0.7846 -0.0081 -0.6409
 7981TIP3    H248139   3.326   1.969   6.993  0.3941  0.0708  2.1436
 7982TIP3   OH248140   5.209   4.358   9.017  0.2008 -0.6500 -0.4604
 7982TIP3    H148141   5.122   4.330   8.990 -0.2190  0.7141 -0.5911
 7982TIP3    H248142   5.205   4.357   9.113  0.4301 -1.6930 -0.4480
 7983TIP3   OH248143   5.288   4.871   8.921  0.5049  0.3798 -0.6170
 7983TIP3    H148144   5.264   4.803   8.984 -1.0836  0.2644 -1.2817
 7983TIP3    H248145   5.383   4.875   8.925  0.7532 -2.5273 -1.1635
 7984TIP3   OH248146   3.434   3.988   9.469 -0.4793  0.5545 -0.1448
 7984TIP3    H148147   3.461   4.052   9.535  0.7983  1.7748 -1.7455
 7984TIP3    H248148   3.427   4.039   9.388 -1.8629 -0.8989 -1.0034
 7985TIP3   OH248149   3.553   5.481   8.388 -0.0850 -0.0875  0.3110
 7985TIP3    H148150   3.491   5.531   8.335  1.1135  0.2108 -0.8644
 7985TIP3    H248151   3.566   5.400   8.341 -0.6315 -0.7663  1.2874
 7986TIP3   OH248152   1.656   3.156   7.672  0.4911 -0.2004 -0.0538
 7986TIP3    H148153   1.625   3.082   7.723  1.0799 -1.9579 -2.1010
 7986TIP3    H248154   1.578   3.192   7.631  0.3071 -0.2078  0.2894
 7987TIP3   OH248155   4.673   0.514   7.120  0.2053 -0.3402  0.1460
 7987TIP3    H148156   4.657   0.574   7.048  1.1850  2.2754  1.9827
 7987TIP3    H248157   4.762   0.481   7.105  0.4253  0.2383  0.1566
 7988TIP3   OH248158   1.176   5.035   7.035  0.3342  0.1839  0.2172
 7988TIP3    H148159   1.095   5.082   7.057 -0.7290 -0.3882 -2.1956
 7988TIP3    H248160   1.227   5.098   6.984  1.2632  0.3835  1.3412
 7989TIP3   OH248161   2.632   4.861   7.098  0.0191  0.0769  0.7778
 7989TIP3    H148162   2.721   4.885   7.126  0.0765  0.6052  0.1717
 7989TIP3    H248163   2.588   4.837   7.179  1.3793 -2.5213  0.8386
 7990TIP3   OH248164   3.629   2.565   8.152  0.4509  0.0650  0.1716
 7990TIP3    H148165   3.575   2.586   8.076 -0.4851 -2.1562  0.1468
 7990TIP3    H248166   3.711   2.611   8.137 -0.8127  2.2467 -0.5807
 7991TIP3   OH248167   0.635   0.914   6.973 -0.1961 -0.3842 -0.1797
 7991TIP3    H148168   0.692   0.982   7.009  0.9543 -0.5001 -1.7193
 7991TIP3    H248169   0.573   0.961   6.918 -0.2378 -0.4657 -0.2027
 7992TIP3   OH248170   4.518   5.349   9.098  0.1974 -0.1475 -0.8546
 7992TIP3    H148171   4.541   5.284   9.164  3.0800  0.5389 -1.0367
 7992TIP3    H248172   4.479   5.421   9.147 -1.8583 -1.4253 -0.5148
 7993TIP3   OH248173   4.017   2.729   7.272 -0.6479  0.1089 -0.0119
 7993TIP3    H148174   3.949   2.789   7.241 -0.4411  0.3685  0.0397
 7993TIP3    H248175   4.024   2.664   7.202 -2.0700 -0.8330  0.6758
 7994TIP3   OH248176   0.770   5.534   7.194 -0.1176 -0.3728  0.3282
 7994TIP3    H148177   0.862   5.505   7.196 -0.1351 -0.4105  1.5453
 7994TIP3    H248178   0.750   5.543   7.101  1.4757  0.7446  0.0372
 7995TIP3   OH248179   4.352   1.097   6.520 -0.4005  0.0341  0.0123
 7995TIP3    H148180   4.438   1.093   6.563 -0.5108  0.6396  0.3091
 7995TIP3    H248181   4.292   1.125   6.590 -1.2261 -2.3037  0.3441
 7996TIP3   OH248182   3.450   6.395   7.257  0.4092 -0.0294  0.1494
 7996TIP3    H148183   3.378   6.368   7.314  0.2102  0.9689  0.3912
 7996TIP3    H248184   3.526   6.397   7.314  0.5766 -0.7755 -0.0353
 7997TIP3   OH248185   3.651   6.329   8.643 -0.0509  0.3717 -0.2999
 7997TIP3    H148186   3.738   6.329   8.683 -0.3494  1.2525  0.3695
 7997TIP3    H248187   3.590   6.322   8.716 -0.5407 -1.4398 -0.8394
 7998TIP3   OH248188   6.183   2.349   9.202  0.0718 -0.1651  0.5238
 7998TIP3    H148189   6.205   2.256   9.191 -0.7171 -0.2734 -0.2462
 7998TIP3    H248190   6.268   2.393   9.205  0.4585 -0.7059 -1.1520
 7999TIP3   OH248191   1.814   2.885   7.979  0.1589 -0.0015  0.2640
 7999TIP3    H148192   1.872   2.955   8.009  2.1647 -1.5355  0.1988
 7999TIP3    H248193   1.768   2.922   7.904  1.2880  1.1878  0.1240
 8000TIP3   OH248194   3.903   0.616   7.339 -0.5244  0.1326  0.0843
 8000TIP3    H148195   3.886   0.524   7.363 -0.9285  0.3291  0.5690
 8000TIP3    H248196   3.831   0.664   7.379 -0.6198  0.5990 -0.6379
 8001TIP3   OH248197   2.088   3.583   9.437 -0.0380 -0.1653 -0.0965
 8001TIP3    H148198   2.134   3.633   9.504  0.8376  0.1313 -0.9042
 8001TIP3    H248199   2.157   3.545   9.383 -0.6419  2.0926 -2.6761
 8002TIP3   OH248200   4.648   1.222   6.518 -0.6397 -0.1125  0.1032
 8002TIP3    H148201   4.637   1.148   6.578  0.6842  0.6535  1.3408
 8002TIP3    H248202   4.743   1.233   6.510 -0.8081  0.9387 -0.7324
 8003TIP3   OH248203   0.587   4.772   7.836 -0.2458 -0.1374  0.4681
 8003TIP3    H148204   0.509   4.749   7.886 -0.6079 -1.2576 -0.5830
 8003TIP3    H248205   0.605   4.696   7.781  0.3264  0.9098 -0.8753
 8004TIP3   OH248206   3.512   1.055   8.387 -0.0078 -0.1352  0.3496
 8004TIP3    H148207   3.460   1.097   8.318 -1.0274 -2.7474 -0.6106
 8004TIP3    H248208   3.490   1.104   8.466 -0.8777  1.2924 -0.7033
 8005TIP3   OH248209   1.404   0.071   7.040  0.4838  0.1835  0.1536
 8005TIP3    H148210   1.376   0.091   7.130 -1.3216  2.2078 -0.7766
 8005TIP3    H248211   1.482   0.124   7.026  1.6531 -1.2434  0.9345
 8006TIP3   OH248212   0.610   0.501   8.651  0.0553  0.5645 -0.0429
 8006TIP3    H148213   0.704   0.502   8.632  0.0558  0.1669 -0.0531
 8006TIP3    H248214   0.594   0.417   8.692 -0.4358  0.3196 -0.7169
 8007TIP3   OH248215   5.434   1.192   8.420 -0.3599  0.2858 -0.5704
 8007TIP3    H148216   5.424   1.257   8.490 -1.1112  0.2569 -0.6332
 8007TIP3    H248217   5.377   1.120   8.446  1.3066 -0.8600  0.0542
 8008TIP3   OH248218   3.628   4.646   7.377  0.1174 -0.4884  0.1869
 8008TIP3    H148219   3.697   4.624   7.314 -0.7374  0.3458 -1.0996
 8008TIP3    H248220   3.626   4.742   7.377 -2.5361 -0.4186 -1.6272
 8009TIP3   OH248221   6.227   0.751   6.388  0.1786  0.2022 -0.2321
 8009TIP3    H148222   6.254   0.794   6.308 -0.2264 -0.4454 -0.7255
 8009TIP3    H248223   6.206   0.662   6.362 -1.3008  0.3602  0.3192
 8010TIP3   OH248224   3.567   1.947   7.196 -1.2547 -0.2222 -0.5282
 8010TIP3    H148225   3.563   2.034   7.238 -0.0006 -0.2677 -0.2677
 8010TIP3    H248226   3.522   1.959   7.113 -1.3460  0.6068 -0.3738
 8011TIP3   OH248227   5.496   2.141   7.399  0.1741  0.3325  0.0020
 8011TIP3    H148228   5.490   2.046   7.405  0.1852  0.0409 -3.0219
 8011TIP3    H248229   5.503   2.171   7.490  0.1377 -2.5205  1.0323
 8012TIP3   OH248230   2.080   6.707   8.856  0.1309 -0.1725  0.2594
 8012TIP3    H148231   2.120   6.696   8.942 -0.6554  0.8781  0.7767
 8012TIP3    H248232   2.125   6.782   8.818 -0.5181  0.2765  0.3599
 8013TIP3   OH248233   3.418   5.972   8.771 -0.0613  0.2895 -0.5030
 8013TIP3    H148234   3.338   5.935   8.734 -0.4476  0.7052 -0.1042
 8013TIP3    H248235   3.424   5.933   8.859  0.2224  0.1926 -0.5626
 8014TIP3   OH248236   6.063   0.373   7.138 -0.6376 -0.1600 -0.1386
 8014TIP3    H148237   6.069   0.289   7.184 -2.5493 -0.3362 -0.1300
 8014TIP3    H248238   6.074   0.439   7.206 -1.6859 -0.4236  0.3006
 8015TIP3   OH248239   5.942   2.967   9.726  0.3140  0.2026 -0.1225
 8015TIP3    H148240   6.034   2.953   9.748 -0.0893 -0.2603  1.3938
 8015TIP3    H248241   5.895   2.945   9.806 -1.1730 -0.2064 -1.0755
 8016TIP3   OH248242   5.827   6.600   7.401 -0.2307 -0.1658  0.6496
 8016TIP3    H148243   5.851   6.517   7.360  0.5659 -0.3264  1.4278
 8016TIP3    H248244   5.855   6.667   7.339  1.1788 -0.3981  1.0163
 8017TIP3   OH248245   1.937   4.054   7.878  0.8032 -0.4821 -0.4150
 8017TIP3    H148246   1.884   4.057   7.798  2.1688 -1.0437 -1.3859
 8017TIP3    H248247   1.988   4.135   7.876  0.7023 -0.4088 -0.0092
 8018TIP3   OH248248   6.066   6.397   7.186 -0.8443 -0.3027  0.1481
 8018TIP3    H148249   6.134   6.333   7.162 -2.3217 -2.1072  0.5242
 8018TIP3    H248250   6.066   6.459   7.113  1.0021 -0.4057  0.0081
 8019TIP3   OH248251   5.879   2.201   9.157  0.1071  0.0661  0.3614
 8019TIP3    H148252   5.878   2.295   9.140  0.2587 -0.1507 -0.9743
 8019TIP3    H248253   5.893   2.162   9.071 -1.4945 -1.2316  0.6494
 8020TIP3   OH248254   4.318   3.714   9.679 -0.1403 -0.9508 -0.6845
 8020TIP3    H148255   4.329   3.619   9.687 -0.9889 -0.9630  0.7150
 8020TIP3    H248256   4.320   3.746   9.769  1.9391  0.6104 -1.2030
 8021TIP3   OH248257   3.226   6.635   7.310 -0.7624 -0.1830 -0.2696
 8021TIP3    H148258   3.133   6.639   7.329 -0.6994 -0.2524  0.0496
 8021TIP3    H248259   3.231   6.642   7.214 -1.0863 -0.0808 -0.2794
 8022TIP3   OH248260   2.980   6.082   6.801  0.1734  0.0911 -0.0239
 8022TIP3    H148261   2.940   6.144   6.741  0.2037 -0.8161 -1.0087
 8022TIP3    H248262   3.068   6.068   6.766  0.4126  0.0205  0.5919
 8023TIP3   OH248263   3.426   2.819   6.922  0.2508  0.3098  0.1263
 8023TIP3    H148264   3.356   2.855   6.977 -0.0093 -0.3315  0.2286
 8023TIP3    H248265   3.428   2.876   6.845 -1.0572 -0.2421 -0.3387
 8024TIP3   OH248266   5.252   3.951   7.178  0.4611  0.0220  0.0022
 8024TIP3    H148267   5.313   3.889   7.218  0.2366 -0.1333  0.1079
 8024TIP3    H248268   5.306   4.002   7.117  0.5311 -0.6679 -0.5235
 8025TIP3   OH248269   0.774   6.019   8.535 -0.5248 -0.4065 -0.6251
 8025TIP3    H148270   0.777   5.944   8.595 -0.4319  0.0577 -0.0356
 8025TIP3    H248271   0.858   6.016   8.489 -0.7906 -1.0384 -1.0779
 8026TIP3   OH248272   1.716   4.855   8.835  0.5734  0.1326  0.4068
 8026TIP3    H148273   1.703   4.843   8.929 -0.0089  1.3481  0.5141
 8026TIP3    H248274   1.796   4.907   8.829  0.7730 -0.1995  0.2159
 8027TIP3   OH248275   2.333   3.195   7.946 -0.6639 -0.2425  0.3054
 8027TIP3    H148276   2.331   3.155   7.859 -0.4083 -0.8217  0.5607
 8027TIP3    H248277   2.298   3.127   8.004 -1.0551  0.2267  0.6212
 8028TIP3   OH248278   2.222   5.131   7.841 -0.0880 -0.3515 -0.4694
 8028TIP3    H148279   2.273   5.167   7.768 -0.1653  0.0351 -0.3335
 8028TIP3    H248280   2.283   5.073   7.886  1.2925  2.4651  1.5746
 8029TIP3   OH248281   2.678   4.183   8.592 -0.2862 -0.2741 -0.0349
 8029TIP3    H148282   2.716   4.207   8.676  1.1519  0.8876 -0.9560
 8029TIP3    H248283   2.624   4.107   8.610 -1.3433  0.9294  2.2284
 8030TIP3   OH248284   2.372   5.256   7.642 -0.5869 -0.1255 -0.1154
 8030TIP3    H148285   2.445   5.296   7.595  2.0771 -2.8085  1.3584
 8030TIP3    H248286   2.318   5.217   7.574  0.5722  0.0375 -1.1633
 8031TIP3   OH248287   4.187   4.276   8.014 -0.4407  0.2419  0.1035
 8031TIP3    H148288   4.123   4.231   8.069  1.2169 -0.3022  1.6915
 8031TIP3    H248289   4.210   4.212   7.947 -0.6661  0.0044  0.2521
 8032TIP3   OH248290   3.038   6.010   9.318  0.3246  0.3652  0.3072
 8032TIP3    H148291   3.102   6.043   9.254  2.2573 -1.3494  1.2454
 8032TIP3    H248292   3.086   6.005   9.400 -1.1951 -0.4426  1.1943
 8033TIP3   OH248293   0.736   3.387   9.452  0.8908 -0.6775  0.2805
 8033TIP3    H148294   0.692   3.453   9.398 -0.5577 -1.3740  0.5757
 8033TIP3    H248295   0.673   3.315   9.459  1.4916 -1.0757  1.9703
 8034TIP3   OH248296   4.572   6.632   6.603  0.4479 -0.0430  0.4406
 8034TIP3    H148297   4.506   6.691   6.568  1.4905  1.4149  0.8241
 8034TIP3    H248298   4.579   6.562   6.538  0.8595  1.5073 -1.2620
 8035TIP3   OH248299   4.558   3.249   8.237 -0.7345  0.8917 -0.4717
 8035TIP3    H148300   4.581   3.335   8.200  0.8918 -0.1302 -1.9714
 8035TIP3    H248301   4.629   3.191   8.211 -0.0405 -0.2679  3.2869
 8036TIP3   OH248302   3.170   6.020   6.472  0.2360 -0.2109  0.0199
 8036TIP3    H148303   3.166   6.098   6.416  0.1114 -1.0935 -1.2363
 8036TIP3    H248304   3.257   6.023   6.511  0.1596  0.6556  0.1446
 8037TIP3   OH248305   3.811   3.478   8.472 -0.2213 -0.3212  0.0898
 8037TIP3    H148306   3.731   3.439   8.507  0.1897 -0.3014  1.1038
 8037TIP3    H248307   3.792   3.495   8.380 -1.1341 -0.9655  0.1446
 8038TIP3   OH248308   1.346   1.846   8.519 -0.2814  0.2324  0.2627
 8038TIP3    H148309   1.295   1.904   8.462  1.3532  0.5383 -0.9577
 8038TIP3    H248310   1.418   1.815   8.463  1.2906  0.4002  2.0997
 8039TIP3   OH248311   2.646   3.244   8.386 -0.2144 -0.2899 -0.1547
 8039TIP3    H148312   2.649   3.161   8.340 -1.9404 -0.4085 -0.1239
 8039TIP3    H248313   2.572   3.291   8.347  1.0736  1.4939 -0.5772
 8040TIP3   OH248314   4.870   4.936  10.202  0.7669  0.1687  0.6352
 8040TIP3    H148315   4.816   4.946  10.124 -2.3087 -2.5166  2.1867
 8040TIP3    H248316   4.949   4.891  10.171 -0.0892 -0.2545 -1.0198
 8041TIP3   OH248317   2.803   0.907   8.122 -1.0162  0.3480  0.0050
 8041TIP3    H148318   2.870   0.868   8.066 -1.3302 -0.3401  0.0881
 8041TIP3    H248319   2.802   0.852   8.200 -1.7727  0.2494 -0.0629
 8042TIP3   OH248320   6.705   0.336   8.100 -0.1008 -0.2016  0.7026
 8042TIP3    H148321   6.789   0.301   8.128  0.7872  0.5544 -0.9127
 8042TIP3    H248322   6.687   0.407   8.161  1.6094  1.1767 -0.3154
 8043TIP3   OH248323   0.565   0.949   6.580  0.2620  0.1751 -0.5315
 8043TIP3    H148324   0.487   0.971   6.529  0.3212 -0.1200 -0.7554
 8043TIP3    H248325   0.550   0.988   6.666 -0.1689  0.0563 -0.5501
 8044TIP3   OH248326   0.636   2.724   8.231 -0.0551  0.5138  0.1773
 8044TIP3    H148327   0.655   2.818   8.233 -2.5338  1.0698  1.9296
 8044TIP3    H248328   0.576   2.714   8.158 -1.4794  0.7188  1.2819
 8045TIP3   OH248329   1.652   2.353   6.505  0.4318  0.1794 -0.9528
 8045TIP3    H148330   1.639   2.446   6.489  1.1675  0.4711  0.0783
 8045TIP3    H248331   1.598   2.310   6.439 -2.4472  1.2982  0.5287
 8046TIP3   OH248332   5.364   6.709   9.159  0.2338 -1.1091 -0.6156
 8046TIP3    H148333   5.311   6.749   9.090  1.6930  0.6155 -0.8084
 8046TIP3    H248334   5.349   6.765   9.235  1.3069 -0.9444 -0.5156
 8047TIP3   OH248335   2.726   4.925   8.002 -0.6315  0.2097 -0.0273
 8047TIP3    H148336   2.786   4.894   7.934  1.3293 -0.4399  1.8970
 8047TIP3    H248337   2.726   5.020   7.992  0.1529  0.1671 -0.5162
 8048TIP3   OH248338   6.241   3.067   7.798 -0.1317 -0.4700 -0.3050
 8048TIP3    H148339   6.313   3.109   7.751 -0.1757  2.0313  1.7015
 8048TIP3    H248340   6.283   2.998   7.849  0.9389  1.0231  0.9221
 8049TIP3   OH248341   4.913   3.009   6.901  0.5292 -0.2392 -0.2964
 8049TIP3    H148342   4.938   3.075   6.836  0.7309  0.6362  0.6568
 8049TIP3    H248343   4.854   3.055   6.961  0.7506 -0.8979  0.4440
 8050TIP3   OH248344   2.528   2.469   8.064  0.1277  0.9194  0.6581
 8050TIP3    H148345   2.486   2.414   8.130  0.1546  0.4811  0.3176
 8050TIP3    H248346   2.454   2.509   8.016  0.0515 -0.4428 -0.4342
 8051TIP3   OH248347   1.164   5.487   7.716 -0.1502  0.5265 -0.4047
 8051TIP3    H148348   1.213   5.492   7.634 -0.9955  1.7810 -0.8686
 8051TIP3    H248349   1.072   5.477   7.689 -0.3309 -0.2420  0.4154
 8052TIP3   OH248350   2.430   3.728   9.839  0.1823  0.9570  0.0656
 8052TIP3    H148351   2.482   3.740   9.759  1.8179  1.6168  1.1646
 8052TIP3    H248352   2.441   3.636   9.861 -0.7334  0.6407 -0.7503
 8053TIP3   OH248353   3.898   5.840   7.954  0.3897 -0.3409  0.0737
 8053TIP3    H148354   3.956   5.777   7.997 -0.3739  0.2890  2.1475
 8053TIP3    H248355   3.822   5.846   8.011 -0.3203  1.1983 -0.9634
 8054TIP3   OH248356   6.094   4.105   7.691  0.1653 -0.2493  0.0832
 8054TIP3    H148357   6.130   4.127   7.777  0.8545  1.4460 -0.5834
 8054TIP3    H248358   6.012   4.153   7.686  0.6810  0.6050 -0.6101
 8055TIP3   OH248359   6.065   4.095   7.380  0.6814 -0.5359 -1.0260
 8055TIP3    H148360   6.080   4.125   7.470  2.4523  0.0191 -1.4746
 8055TIP3    H248361   6.117   4.015   7.372  1.7329  0.2213 -1.9813
 8056TIP3   OH248362   2.943   4.698   8.557  0.2834  0.2233 -0.0615
 8056TIP3    H148363   3.020   4.752   8.541  0.5204  0.0655  0.5159
 8056TIP3    H248364   2.879   4.727   8.492  0.0925  1.7935  0.7676
 8057TIP3   OH248365   3.428   3.523   8.777 -0.1356 -0.9413  0.0590
 8057TIP3    H148366   3.417   3.599   8.833  0.9469 -0.5508 -0.2391
 8057TIP3    H248367   3.341   3.510   8.737 -0.2159  0.4238 -0.2648
 8058TIP3   OH248368   5.850   5.436   8.187 -0.0221 -0.2712 -0.0585
 8058TIP3    H148369   5.795   5.412   8.112  1.1061 -2.0851 -0.3688
 8058TIP3    H248370   5.795   5.417   8.264 -0.4571 -0.3504 -0.3831
 8059TIP3   OH248371   0.906   6.442   7.135  0.6666 -0.1357 -0.0129
 8059TIP3    H148372   0.882   6.515   7.192 -1.4554 -1.4444  0.8745
 8059TIP3    H248373   0.923   6.369   7.195  0.7642 -0.9081 -0.9584
 8060TIP3   OH248374   0.186   5.690   6.929  0.1979 -0.5036 -0.3651
 8060TIP3    H148375   0.092   5.707   6.923  0.3240  0.8051  0.8145
 8060TIP3    H248376   0.201   5.673   7.022  0.7799 -3.1816 -0.8524
 8061TIP3   OH248377   4.048   2.288   7.718 -0.3008 -0.2192  0.0555
 8061TIP3    H148378   4.081   2.200   7.700  2.2270  0.5342  0.6175
 8061TIP3    H248379   4.090   2.313   7.800  0.9068  2.3159 -1.2112
 8062TIP3   OH248380   5.657   2.319   7.888 -0.3334  0.0163 -0.1322
 8062TIP3    H148381   5.563   2.336   7.882 -0.2713  0.1335 -0.7597
 8062TIP3    H248382   5.663   2.225   7.904 -0.5579  0.0052 -0.1106
 8063TIP3   OH248383   6.128   3.770   7.083  0.1169  0.5718  0.1658
 8063TIP3    H148384   6.157   3.795   7.171 -1.3602 -0.1547  0.8977
 8063TIP3    H248385   6.052   3.713   7.098 -0.1608  0.4269 -1.5820
 8064TIP3   OH248386   2.605   6.364   6.780  0.2888  0.5041 -0.2562
 8064TIP3    H148387   2.639   6.448   6.750  1.9657 -0.0413  0.0113
 8064TIP3    H248388   2.645   6.300   6.721  0.6160 -0.2583  0.7719
 8065TIP3   OH248389   4.256   2.861   7.302  0.0929 -0.1593  0.6344
 8065TIP3    H148390   4.312   2.868   7.380 -0.5753 -0.1635  1.1178
 8065TIP3    H248391   4.186   2.802   7.327 -0.4921  0.3538  0.2486
 8066TIP3   OH248392   3.408   6.111   6.529  0.1091 -0.1955  0.0006
 8066TIP3    H148393   3.500   6.087   6.530  0.1378 -0.0679  0.6628
 8066TIP3    H248394   3.406   6.199   6.492 -0.0029 -1.1764 -2.4975
 8067TIP3   OH248395   4.759   2.132   6.712 -0.3397 -0.2824 -0.7413
 8067TIP3    H148396   4.746   2.086   6.795  0.7045 -2.6421 -1.7698
 8067TIP3    H248397   4.694   2.094   6.653  0.2254 -0.0838 -1.5111
 8068TIP3   OH248398   0.508   2.283   6.808 -0.6233 -0.0751  0.0315
 8068TIP3    H148399   0.434   2.223   6.806  0.4133 -1.3827 -0.5987
 8068TIP3    H248400   0.554   2.262   6.890  0.1992 -0.7399 -0.5861
 8069TIP3   OH248401   3.392   5.412   7.285  0.0582 -0.3542 -0.4581
 8069TIP3    H148402   3.438   5.496   7.278  1.7352 -1.1998 -0.1429
 8069TIP3    H248403   3.313   5.432   7.336 -0.0866  1.2025 -1.2432
 8070TIP3   OH248404   5.849   6.625   8.348  0.1784 -0.3911  0.2726
 8070TIP3    H148405   5.942   6.605   8.361 -0.0066 -1.1828  0.3683
 8070TIP3    H248406   5.822   6.668   8.430  0.8710  1.4148 -0.3866
 8071TIP3   OH248407   0.996   1.352   9.676  0.5111 -0.0413 -0.2738
 8071TIP3    H148408   0.907   1.316   9.675  0.6122 -0.2926 -0.7435
 8071TIP3    H248409   1.040   1.304   9.746  0.1915  0.3094  0.1776
 8072TIP3   OH248410   3.077   1.239   9.075 -0.2834 -0.4275  0.5456
 8072TIP3    H148411   2.983   1.221   9.075 -0.3645 -0.0497 -0.4165
 8072TIP3    H248412   3.085   1.323   9.120 -0.5546  0.2023 -0.5601
 8073TIP3   OH248413   0.215   0.551   6.497 -0.3318 -0.0340 -0.4886
 8073TIP3    H148414   0.138   0.584   6.451  0.0485 -0.2601 -1.2998
 8073TIP3    H248415   0.222   0.460   6.469  0.4568  0.0948 -0.7285
 8074TIP3   OH248416   3.075   4.799   6.989  0.0061 -0.0005 -0.6016
 8074TIP3    H148417   3.163   4.764   7.005  0.2213  0.7033 -0.2258
 8074TIP3    H248418   3.029   4.727   6.945  0.7599 -0.3823 -0.7887
 8075TIP3   OH248419   1.346   4.526   9.615 -0.1036 -0.3672 -0.2641
 8075TIP3    H148420   1.423   4.558   9.568 -1.2712  0.7056 -1.5443
 8075TIP3    H248421   1.301   4.605   9.643 -1.1570 -0.9648 -0.2345
 8076TIP3   OH248422   2.023   4.173   7.340  0.3597 -0.4545  0.3689
 8076TIP3    H148423   1.934   4.198   7.316  0.0624  0.7952  2.5157
 8076TIP3    H248424   2.017   4.080   7.362 -0.8423 -0.0182  2.0956
 8077TIP3   OH248425   3.379   0.433   6.884  0.3665 -0.2654 -0.1255
 8077TIP3    H148426   3.440   0.476   6.823  1.7688 -3.0500 -0.8301
 8077TIP3    H248427   3.301   0.416   6.830 -0.0097  0.8675  0.0285
 8078TIP3   OH248428   5.780   6.288   7.548 -0.1262 -0.5825  0.5462
 8078TIP3    H148429   5.808   6.286   7.457 -3.0024 -0.8581 -0.4307
 8078TIP3    H248430   5.689   6.258   7.546 -0.9276  1.2650  3.2504
 8079TIP3   OH248431   6.111   4.463   9.811 -0.4646 -0.4589  0.2364
 8079TIP3    H148432   6.158   4.384   9.838  0.1927 -0.5666 -1.0989
 8079TIP3    H248433   6.087   4.506   9.892  2.1322 -0.3011  1.0117
 8080TIP3   OH248434   4.583   5.470   8.370 -0.0437 -0.0034 -0.4620
 8080TIP3    H148435   4.605   5.378   8.382 -1.7818 -0.4288 -0.2544
 8080TIP3    H248436   4.572   5.503   8.459  0.0516  0.2735 -0.5528
 8081TIP3   OH248437   1.154   3.958   6.317  0.3360  0.4824  0.1899
 8081TIP3    H148438   1.214   3.931   6.248 -0.0770  2.4602 -1.0428
 8081TIP3    H248439   1.210   3.996   6.384  0.5756  1.0106 -0.3024
 8082TIP3   OH248440   1.018   3.583   8.545  0.1278  0.2818 -0.2340
 8082TIP3    H148441   1.096   3.545   8.505  0.1136 -0.0260  0.0327
 8082TIP3    H248442   0.945   3.542   8.498  0.1137  0.0185  0.0144
 8083TIP3   OH248443   2.068   4.047   6.375 -0.1072 -0.5739 -0.2857
 8083TIP3    H148444   2.113   3.968   6.345  0.2864 -0.1504 -0.8250
 8083TIP3    H248445   2.092   4.054   6.468  0.4394 -0.6921 -0.4134
 8084TIP3   OH248446   0.666   3.821   6.730  0.0744 -0.3314  0.0575
 8084TIP3    H148447   0.606   3.867   6.789 -0.0564  1.2779 -1.2650
 8084TIP3    H248448   0.753   3.852   6.756  0.1853 -1.1365  0.6724
 8085TIP3   OH248449   2.269   0.421   9.717  0.2398 -0.7597 -0.4630
 8085TIP3    H148450   2.352   0.429   9.672  0.4457 -1.2442 -0.1793
 8085TIP3    H248451   2.291   0.430   9.810 -0.4963  2.9734 -0.4834
 8086TIP3   OH248452   5.513   0.514   8.779 -0.3994  0.6182 -0.4131
 8086TIP3    H148453   5.563   0.594   8.794 -0.8706  0.7595  0.4478
 8086TIP3    H248454   5.483   0.522   8.688  1.3505  0.3953 -1.0451
 8087TIP3   OH248455   3.229   6.684   8.863 -0.0292  0.3421 -0.1019
 8087TIP3    H148456   3.285   6.729   8.927  0.6517 -0.7146  0.0700
 8087TIP3    H248457   3.187   6.615   8.913 -0.1289  0.0277 -0.6186
 8088TIP3   OH248458   0.409   3.409   6.836  0.3588  0.5188 -0.2810
 8088TIP3    H148459   0.465   3.408   6.914 -0.5364 -0.1453  0.3782
 8088TIP3    H248460   0.360   3.327   6.841 -0.0943  0.7114 -1.2771
 8089TIP3   OH248461   2.591   6.017   8.469  0.3009  0.1480 -0.6437
 8089TIP3    H148462   2.534   6.089   8.492 -0.0589  0.3742 -2.1404
 8089TIP3    H248463   2.534   5.951   8.429  0.5363 -1.2194  1.1506
 8090TIP3   OH248464   4.680   3.135   7.021  0.4634  0.0134 -0.3770
 8090TIP3    H148465   4.605   3.176   7.065  0.2740 -1.7665  1.0574
 8090TIP3    H248466   4.670   3.160   6.929 -0.9739  1.1474  0.0473
 8091TIP3   OH248467   3.758   4.975   8.055  0.4081  0.4296 -0.4107
 8091TIP3    H148468   3.703   5.000   8.130  0.1203  1.9362 -1.0735
 8091TIP3    H248469   3.720   5.022   7.981  1.4985  0.0421 -1.2436
 8092TIP3   OH248470   0.178   2.633   9.512  0.1173  0.2506  0.0325
 8092TIP3    H148471   0.095   2.679   9.502 -0.6499 -0.9107  0.8017
 8092TIP3    H248472   0.188   2.621   9.606  1.4119  0.7928 -0.0149
 8093TIP3   OH248473   0.652   3.935   7.250 -0.2424 -0.0688 -0.3201
 8093TIP3    H148474   0.643   4.005   7.314  1.8932  0.4153 -0.4742
 8093TIP3    H248475   0.570   3.886   7.255 -0.5864  0.6559  1.9197
 8094TIP3   OH248476   6.163   6.420   9.374 -0.0007 -0.2445 -0.1831
 8094TIP3    H148477   6.071   6.395   9.381  0.0932 -0.3085  0.9930
 8094TIP3    H248478   6.203   6.352   9.320  0.5723 -3.7142  4.0696
 8095TIP3   OH248479   0.941   2.417   6.637 -0.5712  0.0006 -0.0440
 8095TIP3    H148480   0.874   2.349   6.644 -0.1268 -0.3655  0.6366
 8095TIP3    H248481   1.009   2.378   6.582 -1.4408  0.8149 -1.8181
 8096TIP3   OH248482   2.240   3.028   7.473  0.0255  0.1868 -0.1480
 8096TIP3    H148483   2.157   3.009   7.431 -0.1702  0.3801  0.1485
 8096TIP3    H248484   2.293   2.950   7.459 -0.0210  0.2685 -0.7894
 8097TIP3   OH248485   3.972   4.838   8.359  0.1533 -0.1057  0.1715
 8097TIP3    H148486   3.977   4.916   8.303 -0.1066 -0.3284 -0.1624
 8097TIP3    H248487   4.016   4.864   8.440  0.7173  0.1469 -0.2122
 8098TIP3   OH248488   5.023   2.367   6.470  0.3084 -0.0031  0.3823
 8098TIP3    H148489   5.007   2.281   6.430 -0.1383  0.4948 -0.5458
 8098TIP3    H248490   4.946   2.381   6.525 -0.3402  0.4273 -0.6035
 8099TIP3   OH248491   5.515   5.527   8.565 -0.0174  0.5483  0.4053
 8099TIP3    H148492   5.452   5.461   8.593  1.0711 -1.0835 -0.8533
 8099TIP3    H248493   5.480   5.562   8.483 -0.0545  0.7750  0.5158
 8100TIP3   OH248494   4.794   5.522   9.513 -0.8377 -0.2390 -0.0388
 8100TIP3    H148495   4.715   5.468   9.517 -0.5629 -0.7594 -1.1720
 8100TIP3    H248496   4.800   5.549   9.422 -0.5205  1.0515  0.3467
 8101TIP3   OH248497   0.904   1.813   7.108  0.0578  0.4234  0.1389
 8101TIP3    H148498   0.922   1.825   7.201  0.5459  0.6232  0.0219
 8101TIP3    H248499   0.979   1.763   7.075 -0.0752  0.4179 -0.1580
 8102TIP3   OH248500   5.047   3.400   9.653  0.3315 -0.3940  0.5070
 8102TIP3    H148501   5.088   3.329   9.703  1.5059  0.5769  0.9489
 8102TIP3    H248502   5.114   3.468   9.648 -0.8591  0.7991  0.3114
 8103TIP3   OH248503   6.600   2.042   8.838  0.0542  0.1884  0.0316
 8103TIP3    H148504   6.672   2.001   8.886 -0.4756 -0.1300  0.5712
 8103TIP3    H248505   6.565   1.971   8.783  0.3664  0.4323 -0.4909
 8104TIP3   OH248506   6.202   3.164   9.520 -0.1547  0.0345  0.6169
 8104TIP3    H148507   6.252   3.136   9.443 -2.2622  0.4175 -0.9534
 8104TIP3    H248508   6.112   3.170   9.490 -1.4902 -2.0502  3.7025
 8105TIP3   OH248509   2.178   5.575   6.472 -0.5211  0.0900 -0.4960
 8105TIP3    H148510   2.192   5.663   6.439 -0.4463  0.3673  0.2446
 8105TIP3    H248511   2.117   5.587   6.546 -0.8008 -0.5202 -0.6238
 8106TIP3   OH248512   5.292   4.948   7.459 -0.3783  0.0661  0.6613
 8106TIP3    H148513   5.317   4.990   7.541  0.5353 -0.3056  0.5861
 8106TIP3    H248514   5.263   5.020   7.403 -1.1153  0.3135  1.3326
 8107TIP3   OH248515   1.584   1.182   9.046  0.3447 -0.3685 -0.0762
 8107TIP3    H148516   1.611   1.097   9.080 -0.6626 -0.5541  0.3019
 8107TIP3    H248517   1.530   1.161   8.970  0.0057 -0.0746  0.0782
 8108TIP3   OH248518   3.022   5.422   7.674 -0.5608 -0.1497  0.4481
 8108TIP3    H148519   2.935   5.455   7.652 -0.3625 -0.0948 -0.2586
 8108TIP3    H248520   3.005   5.348   7.732 -1.1047 -0.4786 -0.1204
 8109TIP3   OH248521   0.678   3.475   7.741 -0.2696 -0.1015  0.1728
 8109TIP3    H148522   0.651   3.443   7.655  1.2536  0.8649 -0.7228
 8109TIP3    H248523   0.621   3.430   7.803  0.9998 -3.7553 -1.0277
 8110TIP3   OH248524   1.114   2.778   9.737 -0.1005 -0.3427 -0.0434
 8110TIP3    H148525   1.197   2.741   9.768 -0.2031 -0.5816 -0.0494
 8110TIP3    H248526   1.051   2.753   9.805 -0.6681 -2.3261 -1.2362
 8111TIP3   OH248527   0.556   6.652   6.491  0.4829  0.2027  0.4889
 8111TIP3    H148528   0.471   6.608   6.495  1.5105 -2.1604 -1.4371
 8111TIP3    H248529   0.612   6.603   6.552  0.9202  0.6738  0.4743
 8112TIP3   OH248530   0.546   2.270   7.690  0.1094 -0.4575  0.0526
 8112TIP3    H148531   0.566   2.276   7.597 -1.3791  1.4734 -0.2027
 8112TIP3    H248532   0.492   2.192   7.698 -0.0874 -0.4119 -0.7692
 8113TIP3   OH248533   4.084   5.191   9.659  0.4947 -0.2140  0.6681
 8113TIP3    H148534   4.175   5.213   9.642  0.3991 -0.5550 -0.3203
 8113TIP3    H248535   4.041   5.276   9.673  0.1802  0.3577 -2.8281
 8114TIP3   OH248536   3.503   3.932   8.207  0.4128  0.1394  0.2599
 8114TIP3    H148537   3.580   3.957   8.258  0.5764  0.2715 -0.0460
 8114TIP3    H248538   3.429   3.961   8.259  0.5921  0.8770  0.1116
 8115TIP3   OH248539   4.807   6.246   7.889  0.6525 -0.0235  0.0867
 8115TIP3    H148540   4.751   6.315   7.923  1.0931  0.4110 -0.0547
 8115TIP3    H248541   4.777   6.232   7.799 -2.1259 -2.8395  1.2361
 8116TIP3   OH248542   4.560   4.208   9.279 -0.3687 -0.1722 -0.4073
 8116TIP3    H148543   4.508   4.131   9.256 -0.2542  0.0657 -1.5194
 8116TIP3    H248544   4.506   4.255   9.343 -1.5011  0.0166 -1.4577
 8117TIP3   OH248545   6.474   2.279   7.663  0.3301 -0.7122  0.2216
 8117TIP3    H148546   6.474   2.353   7.724  3.6036 -1.4151  1.2894
 8117TIP3    H248547   6.454   2.203   7.718  2.3352 -1.2276  0.3083
 8118TIP3   OH248548   5.289   4.674   7.444  0.8667 -0.2176  0.0512
 8118TIP3    H148549   5.293   4.767   7.468  0.4967 -0.5192  1.3871
 8118TIP3    H248550   5.305   4.673   7.350 -0.1453  1.2988 -0.1820
 8119TIP3   OH248551   5.401   2.511   6.776  1.0146 -0.0876  0.6823
 8119TIP3    H148552   5.340   2.502   6.703  0.6265 -1.3792  1.1334
 8119TIP3    H248553   5.400   2.604   6.798  1.0365  0.3068 -0.8566
 8120TIP3   OH248554   1.365   3.215   8.256  0.2231  0.0204 -0.4956
 8120TIP3    H148555   1.449   3.194   8.217  0.1631  0.7005 -1.0036
 8120TIP3    H248556   1.386   3.235   8.348  0.3491 -1.6574 -0.1204
 8121TIP3   OH248557   3.602   1.562   6.875 -0.3035  0.5856  0.0571
 8121TIP3    H148558   3.565   1.645   6.844 -0.5181  0.4219 -0.1236
 8121TIP3    H248559   3.624   1.579   6.967 -1.1108  0.5852  0.2574
 8122TIP3   OH248560   6.178   6.219  15.169 -0.6890 -0.0912  0.7405
 8122TIP3    H148561   6.170   6.154  15.099 -0.4699 -0.1485  0.7683
 8122TIP3    H248562   6.128   6.182  15.241  0.2934 -0.7278  1.1168
 8123TIP3   OH248563   1.382   1.455   9.182  0.1125  0.4283 -0.2184
 8123TIP3    H148564   1.378   1.408   9.099 -1.2190 -0.1675  0.1565
 8123TIP3    H248565   1.292   1.453   9.215  0.9120 -0.8673  2.0695
 8124TIP3   OH248566   3.313   0.512   9.023 -0.0241  0.2487  0.0606
 8124TIP3    H148567   3.367   0.514   9.103  1.5996  0.5185 -1.0036
 8124TIP3    H248568   3.249   0.582   9.036  1.1290  1.2578  0.5334
 8125TIP3   OH248569   2.144   0.741   7.944  0.4557 -0.0245 -0.2643
 8125TIP3    H148570   2.219   0.801   7.941  0.0616  0.6138  1.6942
 8125TIP3    H248571   2.071   0.795   7.972 -0.2106 -1.1260  0.1732
 8126TIP3   OH248572   0.312   1.343   6.613 -0.0607 -0.2693  0.3885
 8126TIP3    H148573   0.361   1.424   6.628 -0.2718  0.3580 -1.9230
 8126TIP3    H248574   0.221   1.371   6.606 -0.0510 -0.5143 -1.2988
 8127TIP3   OH248575   1.089   4.371   6.151 -0.4606 -0.2032 -0.3155
 8127TIP3    H148576   1.146   4.322   6.210 -0.8589  0.9054  1.0534
 8127TIP3    H248577   1.043   4.304   6.100  1.3259 -1.1306 -0.7649
 8128TIP3   OH248578   3.992   2.532   7.056  0.3879 -0.0812 -0.0474
 8128TIP3    H148579   3.957   2.448   7.026 -0.7224  0.4628 -0.3669
 8128TIP3    H248580   4.062   2.553   6.995  0.5974 -0.7290 -0.0269
 8129TIP3   OH248581   5.679   4.933   7.592 -0.0079 -0.4215  0.1696
 8129TIP3    H148582   5.656   4.907   7.682  1.8543  0.4121  0.9519
 8129TIP3    H248583   5.762   4.888   7.575 -0.6662 -1.0983 -1.4180
 8130TIP3   OH248584   4.560   4.682   8.506 -0.2265 -0.3035  0.6069
 8130TIP3    H148585   4.502   4.748   8.469 -0.6010 -1.5019 -1.0809
 8130TIP3    H248586   4.504   4.606   8.523  0.8015 -1.5948 -1.3290
 8131TIP3   OH248587   4.363   0.774   6.828  0.0645 -0.4737 -0.1031
 8131TIP3    H148588   4.392   0.863   6.808  1.7107 -0.4322  2.1686
 8131TIP3    H248589   4.336   0.738   6.743 -1.5104  2.4242 -0.9813
 8132TIP3   OH248590   5.669   1.767   8.050  0.4081 -0.1776  0.3463
 8132TIP3    H148591   5.659   1.726   7.964 -0.5265  0.3841  0.1784
 8132TIP3    H248592   5.584   1.754   8.093  0.8453 -0.4045  1.1690
 8133TIP3   OH248593   6.646   5.533   9.597 -0.2095 -0.1484  0.3637
 8133TIP3    H148594   6.731   5.514   9.637 -0.4128 -0.8891  0.4608
 8133TIP3    H248595   6.606   5.447   9.584 -0.6196  0.1472 -0.3978
 8134TIP3   OH248596   6.065   5.244  17.486 -0.2453  0.2790 -0.0902
 8134TIP3    H148597   6.099   5.328  17.458  1.4637 -0.7176 -1.2089
 8134TIP3    H248598   6.022   5.208  17.408 -0.9967  0.1333  0.3852
 8135TIP3   OH248599   2.066   2.546   7.934 -0.3938  0.1056 -0.0169
 8135TIP3    H148600   2.072   2.453   7.958  2.7351  0.1416 -0.3340
 8135TIP3    H248601   2.070   2.593   8.017  1.9278 -0.0113  0.0033
 8136TIP3   OH248602   2.498   0.580   6.829 -0.0160  0.3804  0.3984
 8136TIP3    H148603   2.539   0.656   6.787  1.4244 -1.2159 -1.2409
 8136TIP3    H248604   2.569   0.538   6.877 -0.7622 -0.0068  1.1768
 8137TIP3   OH248605   1.768   3.559   9.108  0.0545 -0.1948  0.2373
 8137TIP3    H148606   1.840   3.569   9.171 -2.7140  1.7811  3.4240
 8137TIP3    H248607   1.776   3.634   9.051 -0.7808  1.4800  2.1907
 8138TIP3   OH248608   4.759   3.313   8.938  0.1332 -0.3858 -0.2780
 8138TIP3    H148609   4.792   3.372   9.006  1.3482 -2.0892  0.6706
 8138TIP3    H248610   4.677   3.354   8.908  1.3208  2.2008 -0.2679
 8139TIP3   OH248611   1.443   3.637   8.417 -0.1567 -0.6788 -0.6667
 8139TIP3    H148612   1.468   3.655   8.327 -0.1522 -1.8150 -0.9005
 8139TIP3    H248613   1.522   3.601   8.457 -0.2190 -0.3765 -0.2569
 8140TIP3   OH248614   0.971   5.058   8.996  0.4652 -0.4870 -0.6652
 8140TIP3    H148615   0.910   4.991   8.965  0.4479 -0.9452  0.3289
 8140TIP3    H248616   0.953   5.066   9.089  2.7682 -1.5660 -0.0500
 8141TIP3   OH248617   0.717   3.631   8.733  0.1858  0.5158  0.5717
 8141TIP3    H148618   0.736   3.644   8.640  0.3680 -0.8736  0.3935
 8141TIP3    H248619   0.662   3.706   8.757 -3.6363 -1.2376 -1.7797
 8142TIP3   OH248620   3.107   5.309   8.279  0.3483 -0.1003 -0.6663
 8142TIP3    H148621   3.118   5.221   8.316  0.1051 -0.2692 -0.9943
 8142TIP3    H248622   3.142   5.368   8.347  2.0827 -0.5457 -1.1227
 8143TIP3   OH248623   2.899   0.166   7.324 -0.1510  0.4694  0.0876
 8143TIP3    H148624   2.820   0.173   7.270  1.1504  1.2573 -1.8452
 8143TIP3    H248625   2.932   0.256   7.330 -0.6040  0.5201  2.8655
 8144TIP3   OH248626   1.391   3.343   9.851  0.3096  0.0309  0.0730
 8144TIP3    H148627   1.414   3.390   9.931  2.0511  2.4322 -1.7121
 8144TIP3    H248628   1.372   3.411   9.787 -3.3463 -1.7824 -1.0937
 8145TIP3   OH248629   0.347   3.936   8.836 -0.4831 -0.3802 -0.5254
 8145TIP3    H148630   0.403   3.868   8.798 -0.1307 -0.7787  0.6499
 8145TIP3    H248631   0.275   3.888   8.877 -1.3453  0.0953 -1.4429
 8146TIP3   OH248632   5.618   3.803   9.504  0.0361  0.3704  0.2232
 8146TIP3    H148633   5.623   3.877   9.444 -2.4162  0.3789 -0.0589
 8146TIP3    H248634   5.525   3.794   9.524  0.5875 -0.8147  2.5758
 8147TIP3   OH248635   6.056   1.639   6.997 -0.3612  0.1368  0.4308
 8147TIP3    H148636   6.102   1.557   6.977  0.2898  0.8219 -1.0576
 8147TIP3    H248637   6.091   1.664   7.082 -0.1281 -0.8339  0.6430
 8148TIP3   OH248638   4.750   1.413   7.347  0.0719  0.8640 -0.1224
 8148TIP3    H148639   4.828   1.465   7.368 -0.3420  0.9948  1.1848
 8148TIP3    H248640   4.679   1.477   7.348 -0.1964  0.5680 -0.3037
 8149TIP3   OH248641   3.598   1.703   7.130  0.2955  0.0276  0.3730
 8149TIP3    H148642   3.618   1.795   7.144 -0.1679  0.3029 -0.6763
 8149TIP3    H248643   3.511   1.691   7.168 -0.0091  0.2381 -0.2431
 8150TIP3   OH248644   5.411   2.298  10.398  0.3585  0.0451 -0.1641
 8150TIP3    H148645   5.381   2.337  10.480  0.9512  1.3042 -0.5127
 8150TIP3    H248646   5.487   2.246  10.421  0.6044  0.5054  0.0840
 8151TIP3   OH248647   3.903   0.856   8.324 -0.3087  0.1627 -0.6379
 8151TIP3    H148648   3.989   0.872   8.285  0.8160  1.2425  2.0455
 8151TIP3    H248649   3.848   0.926   8.292 -0.1636 -0.4041 -2.1995
 8152TIP3   OH248650   0.914   6.375   8.007  0.0220  0.3436  0.0695
 8152TIP3    H148651   0.855   6.339   7.941 -0.1689  0.5744  0.1130
 8152TIP3    H248652   0.876   6.349   8.091 -1.8498  3.2094  0.2244
 8153TIP3   OH248653   5.386   4.121   7.003 -0.5268  0.2442 -0.0840
 8153TIP3    H148654   5.344   4.186   6.947 -0.2645  1.0519  0.6231
 8153TIP3    H248655   5.462   4.091   6.953 -0.3834  0.8408 -0.2326
 8154TIP3   OH248656   2.113   2.295   7.472  0.5790  0.0899  0.1330
 8154TIP3    H148657   2.192   2.347   7.485  0.8823 -0.6365  1.4089
 8154TIP3    H248658   2.067   2.299   7.556 -1.5481  1.7267 -1.0132
 8155TIP3   OH248659   6.496   3.233   7.686  0.1918  0.2898  0.1051
 8155TIP3    H148660   6.547   3.275   7.617 -0.5630  0.2374 -0.4967
 8155TIP3    H248661   6.557   3.226   7.760  0.7968  0.9835 -0.3167
 8156TIP3   OH248662   0.074   5.763   8.723  0.3283 -0.0182  0.0487
 8156TIP3    H148663   0.164   5.740   8.743  0.8086  0.2223 -1.6616
 8156TIP3    H248664   0.044   5.813   8.799  1.8787  0.5155  0.3385
 8157TIP3   OH248665   3.691   3.741   6.696  0.1429  0.1089  0.6413
 8157TIP3    H148666   3.730   3.821   6.660  0.4847 -0.0403  0.6819
 8157TIP3    H248667   3.677   3.761   6.789  0.3771  0.0646  0.6862
 8158TIP3   OH248668   4.653   6.530   7.083  0.1766 -0.1566 -0.2397
 8158TIP3    H148669   4.734   6.562   7.122 -0.3610 -0.2170  0.9643
 8158TIP3    H248670   4.641   6.442   7.119 -0.9706  0.2623  0.4468
 8159TIP3   OH248671   0.893   6.567   8.283 -0.1100  0.4358 -0.3461
 8159TIP3    H148672   0.883   6.506   8.356 -4.0255  1.8505  0.5796
 8159TIP3    H248673   0.922   6.649   8.324  1.9639  0.1561 -1.1224
 8160TIP3   OH248674   1.183   2.987   7.976  0.5750 -0.2030  0.2865
 8160TIP3    H148675   1.234   2.944   8.044 -0.9900  0.0934  1.7167
 8160TIP3    H248676   1.099   2.941   7.976  0.1238  0.5738 -0.6261
 8161TIP3   OH248677   5.807   5.436   8.756 -0.5778  0.4033 -0.1527
 8161TIP3    H148678   5.753   5.510   8.730 -0.6180  0.4456  0.0497
 8161TIP3    H248679   5.861   5.469   8.827  0.9427  0.8667 -1.4606
 8162TIP3   OH248680   1.349   3.380   6.568 -0.4572  0.2655  0.1048
 8162TIP3    H148681   1.398   3.429   6.634 -1.3069  0.0694  0.9028
 8162TIP3    H248682   1.375   3.419   6.484 -0.8804  1.8943  0.6950
 8163TIP3   OH248683   0.260   6.318   7.457  0.2847 -0.1785 -0.1553
 8163TIP3    H148684   0.298   6.271   7.382  0.1665 -1.2423  0.4341
 8163TIP3    H248685   0.331   6.375   7.487  0.6687 -0.4966 -0.4475
 8164TIP3   OH248686   3.250   0.654   8.612  0.0935  0.9735  0.0866
 8164TIP3    H148687   3.261   0.652   8.517  0.1034  2.1569  0.0501
 8164TIP3    H248688   3.189   0.726   8.628 -1.3271 -0.3284  0.8652
 8165TIP3   OH248689   6.540   3.997   8.453 -0.4103 -0.3012 -0.5445
 8165TIP3    H148690   6.513   3.905   8.454  0.8789 -0.7039 -0.0841
 8165TIP3    H248691   6.547   4.020   8.546  1.5114 -0.4717 -0.6046
 8166TIP3   OH248692   3.918   1.642   7.411  0.2335 -0.0003  0.6870
 8166TIP3    H148693   3.906   1.595   7.493 -0.8094 -1.1701 -0.1016
 8166TIP3    H248694   3.859   1.717   7.417  0.8608  0.4564  1.3690
 8167TIP3   OH248695   5.310   4.403   7.622  0.0092  0.3236 -0.7606
 8167TIP3    H148696   5.245   4.338   7.593 -0.9134  0.8768  0.0462
 8167TIP3    H248697   5.272   4.487   7.598  0.1751  0.6809  0.2000
 8168TIP3   OH248698   1.556   0.810   7.370 -0.0149 -0.4321 -0.3080
 8168TIP3    H148699   1.478   0.815   7.426  0.2221 -0.1431 -0.0047
 8168TIP3    H248700   1.621   0.764   7.422  0.2521 -0.0396 -0.2953
 8169TIP3   OH248701   5.128   3.835   9.091 -0.2806  0.1802  0.6902
 8169TIP3    H148702   5.192   3.789   9.037  1.5284  0.3772  2.5330
 8169TIP3    H248703   5.142   3.928   9.070 -0.5566  0.1785  0.4924
 8170TIP3   OH248704   5.928   0.135   9.942  0.1439  0.3404 -0.3695
 8170TIP3    H148705   5.916   0.218   9.895  0.7407  0.6201 -0.0414
 8170TIP3    H248706   6.016   0.142   9.980  0.0025 -0.2410  0.0702
 8171TIP3   OH248707   4.956   1.173   7.918 -0.5318  0.4213  0.3180
 8171TIP3    H148708   5.018   1.185   7.991  0.2824  1.2149 -0.4749
 8171TIP3    H248709   4.928   1.262   7.895 -0.2234  0.2522 -0.7888
 8172TIP3   OH248710   3.227   2.645   8.522 -0.0764 -0.2488  0.1898
 8172TIP3    H148711   3.238   2.622   8.430  1.0536 -0.7810  0.4401
 8172TIP3    H248712   3.226   2.560   8.567  0.1160  0.0321  0.7322
 8173TIP3   OH248713   3.853   1.490   6.779 -0.1075  0.6358  0.1516
 8173TIP3    H148714   3.767   1.484   6.821 -1.0999  0.6205 -1.7380
 8173TIP3    H248715   3.839   1.548   6.704  1.0457 -0.8208 -1.2665
 8174TIP3   OH248716   5.001   5.585   7.721 -0.8160 -0.4067  0.5804
 8174TIP3    H148717   5.062   5.518   7.753 -1.5624 -1.1298  0.5344
 8174TIP3    H248718   5.057   5.651   7.680 -0.0196 -0.7090  1.1496
 8175TIP3   OH248719   4.741   5.040   8.543 -0.2539  0.4293 -0.0308
 8175TIP3    H148720   4.709   5.008   8.458  1.7192  0.4420 -0.8436
 8175TIP3    H248721   4.700   4.983   8.607 -0.6298 -0.5595 -1.1064
 8176TIP3   OH248722   5.199   5.452   9.292  0.4100 -0.1894  0.5228
 8176TIP3    H148723   5.147   5.524   9.329  2.1964  0.5084  1.8225
 8176TIP3    H248724   5.136   5.381   9.281 -1.4447  1.5501 -0.9212
 8177TIP3   OH248725   3.091   6.560   7.822  0.0120  0.1473  0.0970
 8177TIP3    H148726   3.044   6.616   7.760 -0.6281  0.1102  0.5345
 8177TIP3    H248727   3.095   6.475   7.779  1.1166  0.5437 -0.6338
 8178TIP3   OH248728   6.587   0.596   9.384 -0.6517 -0.0997  0.1295
 8178TIP3    H148729   6.556   0.512   9.417 -0.2101  0.1324  1.1878
 8178TIP3    H248730   6.524   0.620   9.316 -0.3830 -1.5992 -0.6796
 8179TIP3   OH248731   5.813   1.295   6.617 -0.2493 -0.0450 -0.1865
 8179TIP3    H148732   5.843   1.374   6.662 -0.2912  0.2935 -0.7443
 8179TIP3    H248733   5.752   1.327   6.551  0.5452 -0.4327 -1.1374
 8180TIP3   OH248734   1.357   1.800   6.575 -0.4379 -0.0537  0.0833
 8180TIP3    H148735   1.412   1.723   6.594  0.6786  0.7247  0.1323
 8180TIP3    H248736   1.284   1.765   6.525 -0.4853 -1.2973  0.9760
 8181TIP3   OH248737   6.175   1.679   8.457  0.2817  0.3654  0.1200
 8181TIP3    H148738   6.096   1.734   8.460 -0.3015 -0.4997  1.5143
 8181TIP3    H248739   6.202   1.683   8.365 -1.2449  0.8878 -0.3559
 8182TIP3   OH248740   3.213   3.634   9.674 -0.2513  0.5757  0.4214
 8182TIP3    H148741   3.300   3.603   9.699  0.4855  0.8683 -1.6264
 8182TIP3    H248742   3.229   3.695   9.602 -2.2771 -0.7904 -1.2758
 8183TIP3   OH248743   2.232   4.867   7.327  0.2288  0.2582  0.4984
 8183TIP3    H148744   2.177   4.819   7.389  0.4812 -0.6266  0.0553
 8183TIP3    H248745   2.200   4.840   7.241 -0.0886  1.4408  0.2281
 8184TIP3   OH248746   0.691   1.098   8.963  0.0785 -0.7259 -0.6348
 8184TIP3    H148747   0.687   1.175   9.020  1.5768 -1.5605  0.6743
 8184TIP3    H248748   0.784   1.089   8.943 -0.3405 -0.7884 -2.8300
 8185TIP3   OH248749   1.722   1.257   6.383  0.6525  0.3036  0.5431
 8185TIP3    H148750   1.672   1.289   6.309  2.7646 -0.2013 -1.1898
 8185TIP3    H248751   1.706   1.321   6.453 -2.0240  0.3483 -0.0057
 8186TIP3   OH248752   3.083   3.323   6.493 -0.2741 -0.1013 -0.7555
 8186TIP3    H148753   3.005   3.346   6.442 -2.2903  0.2919  2.2774
 8186TIP3    H248754   3.106   3.403   6.539 -0.9042 -1.3142  1.8340
 8187TIP3   OH248755   1.328   5.651   8.233  0.4506 -0.6339 -0.3354
 8187TIP3    H148756   1.399   5.598   8.195  0.5815  0.2307 -1.3374
 8187TIP3    H248757   1.342   5.739   8.199 -0.4364 -0.1921  0.3899
 8188TIP3   OH248758   1.500   5.124   7.069  0.4559  0.3316 -0.2924
 8188TIP3    H148759   1.556   5.094   6.997  0.3712 -1.8783  0.4967
 8188TIP3    H248760   1.560   5.131   7.143  0.2465  1.0354 -0.1868
 8189TIP3   OH248761   3.809   2.735   8.998  0.3954 -0.1264 -0.0710
 8189TIP3    H148762   3.794   2.761   8.907 -1.2525  0.8757  0.4425
 8189TIP3    H248763   3.820   2.817   9.045 -2.3343 -0.3299  1.1709
 8190TIP3   OH248764   5.622   4.559   6.872 -0.3407 -0.3065 -0.0597
 8190TIP3    H148765   5.708   4.578   6.836 -0.0971 -0.8341  0.2310
 8190TIP3    H248766   5.575   4.642   6.869  0.8547  0.4854  1.6522
 8191TIP3   OH248767   2.153   2.984   8.194  0.8843  0.4640 -0.2881
 8191TIP3    H148768   2.193   2.932   8.125  2.5815  2.4701 -0.9343
 8191TIP3    H248769   2.206   2.968   8.271  0.4111  0.0006 -0.0558
 8192TIP3   OH248770   3.359   5.886   7.271  0.4232 -0.0841 -0.2127
 8192TIP3    H148771   3.356   5.973   7.311 -1.0503 -0.4011  0.3983
 8192TIP3    H248772   3.334   5.826   7.341 -2.7226 -0.6085 -1.6112
 8193TIP3   OH248773   6.546   3.471   7.223  0.2710 -0.2304  0.0664
 8193TIP3    H148774   6.565   3.514   7.140 -1.6861 -1.5096 -1.1261
 8193TIP3    H248775   6.590   3.386   7.217 -0.4952 -0.6333 -0.0134
 8194TIP3   OH248776   6.324   6.401   6.654  0.5802 -0.5895  0.2993
 8194TIP3    H148777   6.268   6.479   6.649 -1.3457 -1.7100  2.2711
 8194TIP3    H248778   6.381   6.417   6.729 -1.0271 -1.6898  1.8445
 8195TIP3   OH248779   4.472   0.049   8.094 -0.5043 -0.6901 -0.3789
 8195TIP3    H148780   4.567   0.052   8.081  0.1022  0.6839  3.0831
 8195TIP3    H248781   4.439   0.126   8.047  0.1417 -0.9893 -1.3352
 8196TIP3   OH248782   5.676   3.123   8.738 -0.1711  0.5250  0.5839
 8196TIP3    H148783   5.728   3.059   8.786  0.0734 -0.7034 -1.2150
 8196TIP3    H248784   5.600   3.074   8.706  0.1077  1.0441 -0.9771
 8197TIP3   OH248785   0.811   1.377   6.437  0.0695  0.4033 -0.0503
 8197TIP3    H148786   0.715   1.380   6.430  0.2009  1.6138 -2.1096
 8197TIP3    H248787   0.828   1.301   6.493 -2.1001  0.6861  1.1366
 8198TIP3   OH248788   2.782   0.571   8.546  0.2086 -0.4553 -0.4066
 8198TIP3    H148789   2.870   0.555   8.581 -0.1039 -1.3897 -0.0212
 8198TIP3    H248790   2.745   0.638   8.604  0.4439 -0.5149 -0.1845
 8199TIP3   OH248791   5.233   1.475   8.474 -0.6700  0.3578 -0.0689
 8199TIP3    H148792   5.169   1.529   8.518 -0.9546  0.4340 -0.5660
 8199TIP3    H248793   5.193   1.388   8.471 -1.1094  0.5862 -1.1007
 8200TIP3   OH248794   1.067   6.148   8.501  0.2606 -0.1432  0.3207
 8200TIP3    H148795   1.153   6.190   8.506  0.4385 -0.3371 -0.8449
 8200TIP3    H248796   1.061   6.096   8.582  1.3362 -0.3084  0.3082
 8201TIP3   OH248797   4.093   3.513   7.256  0.1064  0.0453 -0.2134
 8201TIP3    H148798   4.098   3.531   7.350 -0.8046  1.2639 -0.3707
 8201TIP3    H248799   4.004   3.481   7.243 -0.1729  1.0404 -0.8259
 8202TIP3   OH248800   1.808   2.783   9.832  0.1080  0.3939  0.5856
 8202TIP3    H148801   1.782   2.746   9.917  2.3391 -0.3655  1.0156
 8202TIP3    H248802   1.895   2.820   9.848 -0.9660  3.7079 -0.4717
 8203TIP3   OH248803   2.127   4.422   8.077 -0.2723  0.4794 -0.4936
 8203TIP3    H148804   2.146   4.367   8.153  1.0416  3.2602  1.3117
 8203TIP3    H248805   2.042   4.462   8.096 -0.8285 -0.2109 -1.4108
 8204TIP3   OH248806   3.220   0.239   7.843 -0.2635 -0.3376 -0.0994
 8204TIP3    H148807   3.147   0.227   7.904  0.3219  3.1581  1.5376
 8204TIP3    H248808   3.298   0.233   7.898  0.6618 -2.0660 -1.4869
 8205TIP3   OH248809   0.578   5.883   7.144  0.4560  0.0397  0.1018
 8205TIP3    H148810   0.534   5.798   7.139  0.8309 -0.1823  0.5494
 8205TIP3    H248811   0.628   5.890   7.062 -0.4596  0.3294 -0.4492
 8206TIP3   OH248812   0.960   3.078   7.465 -0.2768  0.1782  0.2454
 8206TIP3    H148813   0.912   3.101   7.386 -0.5674 -1.3183 -0.0286
 8206TIP3    H248814   0.948   2.984   7.475  2.0605 -0.1523  0.5312
 8207TIP3   OH248815   2.798   2.884  10.359 -0.4758 -0.4867 -0.0377
 8207TIP3    H148816   2.763   2.875  10.447  0.6784  2.4356  0.8479
 8207TIP3    H248817   2.889   2.854  10.366 -0.3444 -0.1350 -0.1773
 8208TIP3   OH248818   4.105   2.134   7.096  0.5223 -0.6319 -0.5487
 8208TIP3    H148819   4.110   2.079   7.017 -2.1886 -0.1041 -1.1792
 8208TIP3    H248820   4.186   2.115   7.143  0.9795 -3.0181 -2.1197
 8209TIP3   OH248821   1.253   1.157   8.428  0.4464  0.0926  0.4830
 8209TIP3    H148822   1.343   1.183   8.450  1.5658  0.4269 -3.5544
 8209TIP3    H248823   1.249   1.064   8.449  2.2060 -0.2115 -0.3150
 8210TIP3   OH248824   3.202   1.099   9.309  0.3180  0.1614  0.3786
 8210TIP3    H148825   3.120   1.061   9.341 -0.7045  1.9149 -0.0474
 8210TIP3    H248826   3.229   1.041   9.237  0.0093 -0.9835  1.1588
 8211TIP3   OH248827   2.689   1.768   8.482  0.2538  0.4602 -0.1412
 8211TIP3    H148828   2.768   1.718   8.498  0.2485  0.2849 -0.6800
 8211TIP3    H248829   2.698   1.845   8.538  0.7207  0.3557 -0.0742
 8212TIP3   OH248830   4.347   2.588   6.368 -0.1163 -0.1931  0.2866
 8212TIP3    H148831   4.418   2.586   6.303  0.8677  1.2547  1.2417
 8212TIP3    H248832   4.297   2.508   6.353  1.1551 -0.7690 -1.0542
 8213TIP3   OH248833   2.354   6.620   7.301 -0.1415  0.3340 -0.1590
 8213TIP3    H148834   2.385   6.539   7.259 -0.3603 -0.8513  1.8240
 8213TIP3    H248835   2.262   6.626   7.277 -1.5741 -2.8120  3.4504
 8214TIP3   OH248836   1.302   0.682   7.969  0.7057  0.5417  0.0905
 8214TIP3    H148837   1.224   0.626   7.978  1.5837 -0.5237  1.5753
 8214TIP3    H248838   1.375   0.621   7.969  1.5823  1.5643 -0.8768
 8215TIP3   OH248839   0.951   0.537   8.737 -0.5412  0.0799  0.2666
 8215TIP3    H148840   0.912   0.468   8.682 -0.7191  0.8801 -0.6311
 8215TIP3    H248841   0.984   0.601   8.674 -1.0990  1.2064  1.0929
 8216TIP3   OH248842   2.944   3.351   8.651 -0.0566 -0.5445 -0.2612
 8216TIP3    H148843   2.878   3.393   8.706  0.7154 -0.1402  0.3772
 8216TIP3    H248844   2.906   3.352   8.563  0.2480  2.3564 -0.4753
 8217TIP3   OH248845   1.073   1.303   9.062 -0.6826 -0.1959 -0.3130
 8217TIP3    H148846   1.061   1.254   9.143  1.6648  1.5225  1.1971
 8217TIP3    H248847   1.037   1.389   9.081  1.0357  0.6234 -0.5868
 8218TIP3   OH248848   1.075   3.859   9.133 -0.1134  0.3998 -0.1639
 8218TIP3    H148849   1.077   3.897   9.221  0.3881 -0.2412  0.1067
 8218TIP3    H248850   1.166   3.863   9.103 -0.4698  1.7765 -1.1691
 8219TIP3   OH248851   5.402   4.227   9.983  0.6590  0.5209 -0.4675
 8219TIP3    H148852   5.317   4.190   9.958  1.1165  0.2258 -1.6727
 8219TIP3    H248853   5.428   4.177  10.060  0.7420 -0.9157 -1.3986
 8220TIP3   OH248854   2.314   3.907   7.687 -0.4914  0.1945 -0.2539
 8220TIP3    H148855   2.235   3.887   7.636 -0.8878 -1.2904  0.8666
 8220TIP3    H248856   2.346   3.822   7.716  0.2478  0.9233  1.1853
 8221TIP3   OH248857   1.913   2.593   8.839  0.3162 -0.0599 -0.1655
 8221TIP3    H148858   1.889   2.603   8.747  0.4659  2.7579  0.0448
 8221TIP3    H248859   1.977   2.522   8.840 -0.8105 -1.1801 -1.9876
 8222TIP3   OH248860   3.109   5.021   9.240  0.0710  0.1006 -0.0671
 8222TIP3    H148861   3.015   5.021   9.258  0.1164  0.5304  0.1780
 8222TIP3    H248862   3.149   5.056   9.319  0.3857  0.5574 -0.4192
 8223TIP3   OH248863   1.042   1.749   8.057  0.0705  0.2537 -0.1048
 8223TIP3    H148864   0.978   1.820   8.048  0.4127  0.5141 -0.5545
 8223TIP3    H248865   1.002   1.676   8.011 -0.3686  0.0938  0.5258
 8224TIP3   OH248866   2.345   2.796   8.032  0.8172  0.0431 -0.0469
 8224TIP3    H148867   2.288   2.742   8.086  1.2603 -0.2039  0.1743
 8224TIP3    H248868   2.433   2.776   8.062  1.3119 -2.0062 -2.5322
 8225TIP3   OH248869   3.933   0.541   8.531  0.2090 -0.6161 -0.2070
 8225TIP3    H148870   3.883   0.579   8.604  2.1812  2.2880 -0.1797
 8225TIP3    H248871   3.867   0.497   8.477 -2.1078  1.4261  0.7492
 8226TIP3   OH248872   5.469   0.560   8.509 -0.1083 -0.7858  0.3637
 8226TIP3    H148873   5.408   0.499   8.467  0.4066 -1.4609  0.5631
 8226TIP3    H248874   5.437   0.647   8.486  0.1739 -1.1206 -1.4700
 8227TIP3   OH248875   0.323   5.690   7.689 -0.0364 -0.0784 -0.2855
 8227TIP3    H148876   0.239   5.694   7.643 -0.4338 -0.7424  0.3570
 8227TIP3    H248877   0.369   5.617   7.648  0.0928  0.0765 -0.4167
 8228TIP3   OH248878   2.014   1.276   8.192  0.7635 -0.0579 -0.1167
 8228TIP3    H148879   2.022   1.203   8.253  0.1383  0.1492  0.2103
 8228TIP3    H248880   1.965   1.343   8.239 -0.2986 -0.1400 -1.0501
 8229TIP3   OH248881   4.139   6.673   7.002  0.1297  0.5504 -1.1725
 8229TIP3    H148882   4.223   6.688   7.046  1.6717 -0.2042 -3.7053
 8229TIP3    H248883   4.143   6.726   6.923 -2.2538  1.2792 -0.8780
 8230TIP3   OH248884   6.532   3.839   6.593  0.0582 -0.7020 -0.0168
 8230TIP3    H148885   6.460   3.777   6.602 -0.2417 -0.1123  2.3170
 8230TIP3    H248886   6.609   3.785   6.577 -0.0927 -1.8361  2.5381
 8231TIP3   OH248887   6.018   1.171  10.311 -0.0390 -0.2092 -0.8519
 8231TIP3    H148888   5.994   1.263  10.324 -0.0668 -0.2367 -0.6939
 8231TIP3    H248889   6.048   1.165  10.221 -0.6757 -0.1820 -1.0675
 8232TIP3   OH248890   4.399   1.256   7.712  0.0992 -0.1718 -0.3116
 8232TIP3    H148891   4.325   1.229   7.766 -0.8371  1.2836 -0.7990
 8232TIP3    H248892   4.369   1.243   7.622 -0.6586  2.8975 -0.6059
 8233TIP3   OH248893   0.322   0.536   8.265 -0.3162 -0.2528  0.8137
 8233TIP3    H148894   0.346   0.491   8.346  1.1651 -0.6060  0.2291
 8233TIP3    H248895   0.263   0.605   8.292  0.5261 -0.0653  2.2761
 8234TIP3   OH248896   5.453   4.370   9.310  0.5752  0.1531 -0.2856
 8234TIP3    H148897   5.507   4.431   9.259  2.4011 -0.6429  0.6141
 8234TIP3    H248898   5.502   4.356   9.391 -0.7517 -1.0164  0.3604
 8235TIP3   OH248899   6.255   4.656  10.338  0.2922  0.2872 -0.2663
 8235TIP3    H148900   6.176   4.619  10.378  0.6523  0.4544  0.6430
 8235TIP3    H248901   6.312   4.580  10.325  0.5986  0.3645  0.5679
 8236TIP3   OH248902   1.255   2.915   8.994  0.0463 -0.5215 -0.1117
 8236TIP3    H148903   1.304   2.878   9.068  0.4620  0.0884 -0.0706
 8236TIP3    H248904   1.323   2.940   8.931 -0.3467 -2.0159 -1.1804
 8237TIP3   OH248905   3.806   3.597   9.313  0.0166  0.2525 -0.1993
 8237TIP3    H148906   3.849   3.659   9.372  0.0946 -1.9345  2.2323
 8237TIP3    H248907   3.879   3.549   9.274 -0.0735  1.0238 -1.3490
 8238TIP3   OH248908   5.501   4.644   6.525  0.2224 -0.0205 -0.2877
 8238TIP3    H148909   5.546   4.560   6.512 -1.2351 -1.2315  1.8692
 8238TIP3    H248910   5.566   4.699   6.567  0.3554 -1.1094  1.0227
 8239TIP3   OH248911   6.064   0.369   8.549 -0.2872  0.0007  0.2258
 8239TIP3    H148912   6.137   0.411   8.503 -0.8909  0.4778 -0.3090
 8239TIP3    H248913   5.989   0.426   8.532 -0.5460  0.1425  1.7294
 8240TIP3   OH248914   0.020   6.439   7.224  0.1556  0.2033  0.1035
 8240TIP3    H148915   0.041   6.529   7.248 -0.1404  0.2179  0.3067
 8240TIP3    H248916  -0.069   6.443   7.189 -0.0812 -0.1063  0.6606
 8241TIP3   OH248917   6.525   4.174   7.102  0.0897 -0.3479 -0.0719
 8241TIP3    H148918   6.606   4.224   7.090  0.0408 -0.5548 -1.4181
 8241TIP3    H248919   6.504   4.185   7.194  1.0287  0.6732  0.0469
 8242TIP3   OH248920   1.285   4.071   8.605  0.6009  0.1358 -0.0152
 8242TIP3    H148921   1.333   4.036   8.531  0.5052 -1.4772  0.6438
 8242TIP3    H248922   1.346   4.131   8.648  0.6265  1.1555 -1.4079
 8243TIP3   OH248923   5.704   0.280   8.324 -0.1704 -0.1844  0.0564
 8243TIP3    H148924   5.660   0.219   8.264  1.4558  1.2021 -2.8156
 8243TIP3    H248925   5.798   0.265   8.307  0.2925  1.9188  0.4739
 8244TIP3   OH248926   5.756   3.163   9.126 -0.4754 -0.0588  0.3246
 8244TIP3    H148927   5.799   3.235   9.079 -1.3198  0.1595 -0.1372
 8244TIP3    H248928   5.793   3.084   9.086 -0.5782  0.1246 -0.1495
 8245TIP3   OH248929   1.648   3.961   6.802  0.0894  0.5254 -0.1239
 8245TIP3    H148930   1.591   3.938   6.729  0.3825  0.2805 -0.2815
 8245TIP3    H248931   1.708   4.026   6.765  2.2575 -1.8312 -1.0326
 8246TIP3   OH248932   5.280   3.561   8.766  0.2149 -0.0455 -0.4469
 8246TIP3    H148933   5.225   3.638   8.751  1.8314  1.1026 -0.8506
 8246TIP3    H248934   5.293   3.523   8.680 -0.4880 -0.7272 -0.2625
 8247TIP3   OH248935   5.798   3.657   9.797  0.7279 -0.2923 -0.3947
 8247TIP3    H148936   5.723   3.715   9.809  0.0848 -0.8990 -1.3433
 8247TIP3    H248937   5.785   3.618   9.710  2.3144 -0.1610 -0.7243
 8248TIP3   OH248938   6.126   2.426   8.885  0.8848 -0.1270 -0.0754
 8248TIP3    H148939   6.091   2.345   8.922  0.7876 -0.7606 -1.4828
 8248TIP3    H248940   6.212   2.435   8.925  1.1459 -1.2654 -0.3371
 8249TIP3   OH248941   0.336   2.075   6.903 -0.3057  0.1061  0.8714
 8249TIP3    H148942   0.241   2.083   6.897 -0.3070  1.7379  2.1786
 8249TIP3    H248943   0.351   2.029   6.985  0.0383 -0.6790  0.3788
 8250TIP3   OH248944   6.210   3.343   6.732  0.3376  0.3586 -0.0620
 8250TIP3    H148945   6.121   3.314   6.711  0.0025  0.3575  1.2713
 8250TIP3    H248946   6.201   3.437   6.748  0.9811  0.7940 -1.9782
 8251TIP3   OH248947   0.887   6.449   9.182  0.2709  0.1712  0.7626
 8251TIP3    H148948   0.811   6.423   9.130  0.3609 -0.2611  0.8443
 8251TIP3    H248949   0.916   6.531   9.142  0.5706 -0.3451 -0.1139
 8252TIP3   OH248950   2.248   4.663   9.516  0.7109  0.3102  0.0513
 8252TIP3    H148951   2.216   4.637   9.602 -3.5461  3.7185 -0.2037
 8252TIP3    H248952   2.312   4.732   9.535  0.8856  0.0548  0.4301
 8253TIP3   OH248953   1.110   5.747   8.991  0.1091  0.1010  0.4044
 8253TIP3    H148954   1.141   5.709   8.908  1.6428 -0.1533  1.0559
 8253TIP3    H248955   1.021   5.713   9.001 -0.0648  0.0403 -1.0686
 8254TIP3   OH248956   6.475   4.981   7.513 -0.2737 -0.3055  0.3258
 8254TIP3    H148957   6.493   4.896   7.553 -0.7596  0.0802  1.3881
 8254TIP3    H248958   6.561   5.013   7.485 -0.0057 -0.8444  0.5279
 8255TIP3   OH248959   2.506   0.118   6.619 -0.0074 -0.2047  0.0668
 8255TIP3    H148960   2.467   0.156   6.540  0.4557  1.0040  0.4033
 8255TIP3    H248961   2.571   0.182   6.647 -0.9829 -0.0356  2.0914
 8256TIP3   OH248962   0.320   0.605   7.900  0.7451  0.0157 -0.3679
 8256TIP3    H148963   0.255   0.648   7.845  1.4706  0.5146 -0.8615
 8256TIP3    H248964   0.306   0.512   7.884  1.1399  0.1519 -1.6707
 8257TIP3   OH248965   0.444   1.248   8.037  0.3133  0.1777  0.4556
 8257TIP3    H148966   0.361   1.265   7.994  1.2561  2.3668 -0.7053
 8257TIP3    H248967   0.422   1.196   8.114 -2.2281  1.2626  0.5557
 8258TIP3   OH248968   1.266   6.195   6.832 -0.4353  0.4432 -0.4454
 8258TIP3    H148969   1.266   6.105   6.801  2.8323  0.0120  0.4435
 8258TIP3    H248970   1.222   6.192   6.917 -0.5741 -0.2487 -0.5407
 8259TIP3   OH248971   1.821   6.022   9.087  0.4067 -0.3748  0.3283
 8259TIP3    H148972   1.831   6.007   8.993 -0.3973  3.0928 -0.4583
 8259TIP3    H248973   1.728   6.004   9.103 -0.0252  1.2587 -0.1268
 8260TIP3   OH248974   4.954   2.892   8.971  0.3686  0.4951  0.3516
 8260TIP3    H148975   4.996   2.812   8.940  0.6412  1.5916 -2.3942
 8260TIP3    H248976   4.956   2.951   8.895  0.8087  3.3675  2.4492
 8261TIP3   OH248977   3.837   6.172   7.018  1.0383 -0.4956  0.1291
 8261TIP3    H148978   3.852   6.186   6.925  1.3836 -0.7298  0.1482
 8261TIP3    H248979   3.916   6.207   7.061  1.9099 -2.3855  0.1807
 8262TIP3   OH248980   3.964   2.113   6.535  0.1199  0.5166 -0.3373
 8262TIP3    H148981   3.994   2.023   6.532 -2.4201 -0.5545  2.0765
 8262TIP3    H248982   4.042   2.164   6.560  1.6824 -0.8693 -2.1204
 8263TIP3   OH248983   4.049   5.656   8.106 -0.5683 -0.2329 -0.2089
 8263TIP3    H148984   4.101   5.603   8.046  1.4794  1.4750 -0.0729
 8263TIP3    H248985   4.078   5.629   8.193  0.6797  1.1533 -0.1386
 8264TIP3   OH248986   0.681   4.051   9.113  0.3774  0.2248 -0.0535
 8264TIP3    H148987   0.682   4.058   9.018 -0.1897  1.8293  0.0235
 8264TIP3    H248988   0.765   4.090   9.140 -0.1320  1.2254  0.1449
 8265TIP3   OH248989   5.812   0.404   9.827 -0.6330 -0.5080 -0.3469
 8265TIP3    H148990   5.803   0.498   9.807  0.2986  0.3862  2.7545
 8265TIP3    H248991   5.899   0.382   9.796 -0.2061  0.1486  0.3237
 8266TIP3   OH248992   4.044   6.332   7.306 -0.1488  0.4808 -0.1032
 8266TIP3    H148993   4.070   6.382   7.384  0.6826 -0.4444  0.2279
 8266TIP3    H248994   3.953   6.358   7.291 -0.3094  0.7270  1.1430
 8267TIP3   OH248995   4.640   1.544   7.924 -0.1366  0.2256 -0.3184
 8267TIP3    H148996   4.662   1.532   8.016 -0.1666  0.4389 -0.2831
 8267TIP3    H248997   4.658   1.459   7.884  0.5046  0.3198 -0.2441
 8268TIP3   OH248998   3.431   5.849   9.006 -0.4892  0.2409  0.0784
 8268TIP3    H148999   3.509   5.877   9.055 -0.6546  1.0712 -0.1106
 8268TIP3    H249000   3.383   5.793   9.067  0.2634 -0.3038  0.1860
 8269TIP3   OH249001   0.906   2.735  10.150  0.0792  0.1112 -0.0770
 8269TIP3    H149002   0.895   2.652  10.197 -0.7047  0.5659  0.5772
 8269TIP3    H249003   0.992   2.767  10.178 -0.7120  0.7737  1.7526
 8270TIP3   OH249004   0.797   3.368   8.674  0.1149  0.5565  0.0263
 8270TIP3    H149005   0.791   3.461   8.694  1.3052  0.8923 -1.1096
 8270TIP3    H249006   0.886   3.356   8.640 -0.4424 -0.7513 -1.0570
 8271TIP3   OH249007   0.312   6.484   6.622 -0.2259 -0.7940 -0.1432
 8271TIP3    H149008   0.271   6.429   6.556 -2.4518 -0.8962  1.2441
 8271TIP3    H249009   0.241   6.535   6.659  1.6242  2.8421 -1.0592
 8272TIP3   OH249010   0.393   2.060   7.692 -0.1100 -0.3715 -0.1506
 8272TIP3    H149011   0.421   2.029   7.605 -3.1134 -0.3193 -1.2599
 8272TIP3    H249012   0.317   2.006   7.713 -1.6809  2.0468  0.7328
 8273TIP3   OH249013   6.488   2.849   8.720 -0.1535 -0.4245  0.3786
 8273TIP3    H149014   6.440   2.913   8.668 -0.1011 -0.8966 -0.2794
 8273TIP3    H249015   6.573   2.889   8.735 -0.4563  0.0593  0.8107
 8274TIP3   OH249016   4.380   3.103   7.253  0.6316 -0.0920  0.1898
 8274TIP3    H149017   4.399   3.138   7.340  0.2276 -0.1019  0.2838
 8274TIP3    H249018   4.330   3.023   7.270 -1.3942  1.0574 -0.0720
 8275TIP3   OH249019   6.567   2.562   6.904 -0.3631  0.4109  0.3781
 8275TIP3    H149020   6.477   2.574   6.873 -0.5921  1.9197  1.5018
 8275TIP3    H249021   6.571   2.470   6.930 -1.9649  0.5799  1.3769
 8276TIP3   OH249022   0.436   6.647   6.808 -0.5975  0.0384  0.1678
 8276TIP3    H149023   0.471   6.580   6.750 -0.6727 -1.4556  1.7745
 8276TIP3    H249024   0.363   6.685   6.759  0.6364  0.3489 -1.5523
 8277TIP3   OH249025   3.805   2.824   8.730  0.4376 -0.5125 -0.3790
 8277TIP3    H149026   3.722   2.811   8.684  0.3242  0.5471 -0.4926
 8277TIP3    H249027   3.835   2.911   8.703  0.3203  0.2063  1.6123
 8278TIP3   OH249028   6.368   1.926   9.402  0.4579  0.1855 -0.3167
 8278TIP3    H149029   6.404   1.851   9.450  1.2789  0.9163  0.2519
 8278TIP3    H249030   6.309   1.968   9.464  1.5984  1.1911  0.1285
 8279TIP3   OH249031   6.205   2.058   7.832  0.3318 -0.4450  0.2602
 8279TIP3    H149032   6.170   2.096   7.913  1.6357  0.8479  0.2481
 8279TIP3    H249033   6.131   2.010   7.795 -0.0143 -2.0569  2.7735
 8280TIP3   OH249034   1.930   4.712   8.273 -0.7507  0.6100  1.0315
 8280TIP3    H149035   1.901   4.646   8.210  0.2628  0.4720  0.6957
 8280TIP3    H249036   1.935   4.665   8.356 -0.3757  0.3482  0.8632
 8281TIP3   OH249037   3.621   4.871  10.059 -0.4056  0.4685  0.3711
 8281TIP3    H149038   3.553   4.831  10.112 -0.8129 -0.6586 -0.9400
 8281TIP3    H249039   3.577   4.944  10.014 -0.3019  0.8174  0.8286
 8282TIP3   OH249040   0.744   5.446   8.727  0.5407 -0.3540 -0.0043
 8282TIP3    H149041   0.834   5.467   8.701 -0.1875  0.7854 -1.7609
 8282TIP3    H249042   0.741   5.468   8.820  1.7334  0.8716 -0.2254
 8283TIP3   OH249043   1.540   6.055   8.119  0.1491 -0.1822 -0.2627
 8283TIP3    H149044   1.602   6.113   8.076  0.5396 -0.8130 -0.5651
 8283TIP3    H249045   1.473   6.114   8.154  0.1146  0.3916 -1.2479
 8284TIP3   OH249046   5.622   4.999   8.674  0.2582 -0.3217  0.2504
 8284TIP3    H149047   5.565   4.924   8.657 -0.8674  0.4464  0.4723
 8284TIP3    H249048   5.630   5.002   8.769  1.9511 -1.3135  0.1771
 8285TIP3   OH249049   3.413   3.887   7.426  0.4637  0.1126 -0.5854
 8285TIP3    H149050   3.322   3.858   7.437  0.0730 -0.3506 -3.8727
 8285TIP3    H249051   3.409   3.982   7.440 -0.4666  0.0563 -0.3621
 8286TIP3   OH249052   5.885   6.520   8.709 -0.2417  0.0870 -0.2181
 8286TIP3    H149053   5.873   6.433   8.671  0.6882 -0.0752 -0.1423
 8286TIP3    H249054   5.947   6.563   8.650  0.3063  0.2448  0.4644
 8287TIP3   OH249055   6.296   6.018   7.238  0.3794  0.0220  0.5703
 8287TIP3    H149056   6.219   5.962   7.229 -0.4602  0.9359  1.7248
 8287TIP3    H249057   6.285   6.062   7.323  1.0068  1.8956 -0.2547
 8288TIP3   OH249058   5.853   2.237   8.681 -0.7222  0.1388  0.2461
 8288TIP3    H149059   5.796   2.231   8.757 -0.2654  0.0219  0.5784
 8288TIP3    H249060   5.915   2.166   8.692 -2.5974 -2.0066 -1.8700
 8289TIP3   OH249061   1.366   1.476   8.041 -0.2315  0.5001  0.1077
 8289TIP3    H149062   1.305   1.460   7.969  0.4940  0.6675 -0.5512
 8289TIP3    H249063   1.334   1.419   8.112 -0.4642 -0.2877 -0.6130
 8290TIP3   OH249064   4.735   2.806   7.529  0.2105 -0.0766  0.1883
 8290TIP3    H149065   4.741   2.889   7.481 -0.4429  0.6467  1.3096
 8290TIP3    H249066   4.681   2.827   7.605  0.9649 -1.2602  1.0764
 8291TIP3   OH249067   5.888   2.297   8.067 -0.6796 -0.0382  0.4905
 8291TIP3    H149068   5.914   2.209   8.040  1.8199  0.5451  0.7053
 8291TIP3    H249069   5.817   2.320   8.008 -0.6687 -1.8005 -0.2690
 8292TIP3   OH249070   2.854   3.365   9.331 -0.0486 -0.5406 -0.0660
 8292TIP3    H149071   2.809   3.362   9.246 -0.2121 -1.1079  0.0367
 8292TIP3    H249072   2.917   3.293   9.327 -0.0747 -0.5843  0.3057
 8293TIP3   OH249073   0.037   3.971   7.428 -0.1103 -0.2496 -0.3805
 8293TIP3    H149074  -0.015   4.045   7.397 -0.3070 -0.2095  0.0455
 8293TIP3    H249075   0.127   4.004   7.430 -0.2162  0.0290 -0.0448
 8294TIP3   OH249076   6.635   4.037   7.910 -0.4755  0.0754 -0.0370
 8294TIP3    H149077   6.619   4.003   7.998 -1.9937  0.5383 -0.0987
 8294TIP3    H249078   6.569   3.995   7.855 -0.3799  0.7619 -0.6982
 8295TIP3   OH249079   6.513   6.227   7.734  0.0577  0.2854  0.3125
 8295TIP3    H149080   6.474   6.233   7.822  1.0015  0.3641  0.7355
 8295TIP3    H249081   6.527   6.317   7.707 -0.2621  0.2620  0.0596
 8296TIP3   OH249082   0.359   1.377   8.795  0.5818  0.2769  0.5636
 8296TIP3    H149083   0.400   1.340   8.717 -0.2837  0.3730  0.0529
 8296TIP3    H249084   0.398   1.464   8.804 -1.0374  1.2562 -1.1938
 8297TIP3   OH249085   5.934   2.918   7.657 -0.5319  0.0475  0.1565
 8297TIP3    H149086   5.923   2.823   7.665 -3.7011  0.3364  0.3678
 8297TIP3    H249087   6.004   2.939   7.719  0.7317 -2.1595 -0.3750
 8298TIP3   OH249088   1.553   6.210   6.799 -0.0760  0.4651  0.4506
 8298TIP3    H149089   1.461   6.196   6.822  0.4692 -3.0279  1.1026
 8298TIP3    H249090   1.566   6.157   6.721  1.3552  1.0931  0.2285
 8299TIP3   OH249091   4.968   3.553   8.670  0.0245  0.2758  0.1481
 8299TIP3    H149092   4.881   3.532   8.637 -1.1416  2.5220  1.5498
 8299TIP3    H249093   5.012   3.596   8.597 -0.4449  0.1205 -0.2312
 8300TIP3   OH249094   2.722   4.086   6.512  0.9950 -0.3244 -0.0828
 8300TIP3    H149095   2.753   4.039   6.589  1.2064  1.0862  0.7387
 8300TIP3    H249096   2.627   4.079   6.517  1.0320 -0.9707 -0.1853
 8301TIP3   OH249097   3.629   0.248   8.929  0.0844  0.1337  0.2355
 8301TIP3    H149098   3.690   0.277   8.861  1.4874  2.2713  2.1992
 8301TIP3    H249099   3.590   0.330   8.962 -0.3722 -0.7716  2.0782
 8302TIP3   OH249100   0.627   4.412   9.156 -0.3045 -0.3623 -0.1427
 8302TIP3    H149101   0.680   4.333   9.143 -0.2743 -0.1087 -1.7551
 8302TIP3    H249102   0.541   4.379   9.183 -0.3249 -0.9722 -0.9089
 8303TIP3   OH249103   3.284   4.483   7.221  0.5462 -0.0392 -0.0506
 8303TIP3    H149104   3.357   4.455   7.276 -0.1450  0.7972  1.3581
 8303TIP3    H249105   3.241   4.402   7.195  1.8133 -0.5327 -0.7044
 8304TIP3   OH249106   2.875   5.132   9.613 -0.3448  0.3259  0.5815
 8304TIP3    H149107   2.953   5.077   9.600  0.2105  1.2554 -0.0942
 8304TIP3    H249108   2.825   5.086   9.680  1.5300  0.4647  2.1848
 8305TIP3   OH249109   6.184   6.299   8.062  0.3457 -0.1015  0.3171
 8305TIP3    H149110   6.134   6.376   8.033 -1.8024 -1.4777  0.1538
 8305TIP3    H249111   6.160   6.288   8.154  1.7922  0.2481  0.7533
 8306TIP3   OH249112   5.767   3.575   7.941  0.8470  0.1611  0.1752
 8306TIP3    H149113   5.809   3.508   7.994  1.2967 -0.1411 -0.5370
 8306TIP3    H249114   5.828   3.589   7.868  0.8297  1.4572  0.3902
 8307TIP3   OH249115   1.187   1.675  10.479  0.1014  0.4628  0.2289
 8307TIP3    H149116   1.204   1.666  10.573  0.9259  0.7766  0.1143
 8307TIP3    H249117   1.141   1.594  10.455 -0.1634  0.4050  0.9077
 8308TIP3   OH249118   6.287   2.789   9.409 -0.4118  0.7562  0.1941
 8308TIP3    H149119   6.315   2.869   9.454  0.1651 -0.1168  1.4434
 8308TIP3    H249120   6.364   2.732   9.412 -0.3147  0.6957 -2.0400
 8309TIP3   OH249121   1.744   1.491   6.946  0.2492 -0.0600  0.2043
 8309TIP3    H149122   1.736   1.428   7.018  1.0679  0.0204  0.3747
 8309TIP3    H249123   1.765   1.437   6.870 -0.9916 -0.1857 -0.0720
 8310TIP3   OH249124   2.272   1.480   9.685 -0.2014  0.0412  0.3148
 8310TIP3    H149125   2.265   1.491   9.780  2.1712  1.5733  0.4118
 8310TIP3    H249126   2.280   1.570   9.652 -2.1072 -0.3961 -1.4833
 8311TIP3   OH249127   5.815   3.209   7.261  0.5758 -0.0757 -0.4332
 8311TIP3    H149128   5.894   3.183   7.310 -0.3541 -1.5037  0.4059
 8311TIP3    H249129   5.826   3.303   7.245  0.8948  0.5337  2.6885
 8312TIP3   OH249130   2.072   3.680   8.139  0.6054 -0.0623 -1.1362
 8312TIP3    H149131   2.079   3.717   8.051  1.6474  2.1674 -0.1872
 8312TIP3    H249132   2.146   3.718   8.186  0.7964 -2.1837  0.3977
 8313TIP3   OH249133   0.691   4.338   6.496 -0.0147  0.2295 -0.1381
 8313TIP3    H149134   0.739   4.257   6.515  0.1242  0.1637 -0.7357
 8313TIP3    H249135   0.759   4.402   6.474 -0.2191 -0.2367 -2.3637
 8314TIP3   OH249136   1.253   3.694   6.582  0.0746 -0.3304 -0.0223
 8314TIP3    H149137   1.256   3.676   6.488 -1.6987  1.3425 -0.4556
 8314TIP3    H249138   1.197   3.625   6.618  1.6232 -1.6175  0.0396
 8315TIP3   OH249139   4.235   1.335   6.980 -0.2429  0.5004 -0.2179
 8315TIP3    H149140   4.262   1.365   7.067  1.0540  1.2756 -0.8676
 8315TIP3    H249141   4.145   1.303   6.993  0.1488 -0.0030  1.5284
 8316TIP3   OH249142   1.648   2.243   9.837 -0.1114  0.1173  0.3230
 8316TIP3    H149143   1.586   2.171   9.843 -0.2531  0.0231 -1.5641
 8316TIP3    H249144   1.622   2.291   9.758  0.0154  2.2327  1.4851
 8317TIP3   OH249145   3.641   2.215   9.563  0.6385  0.1295  0.0695
 8317TIP3    H149146   3.610   2.127   9.539 -1.2281  0.6335  0.5027
 8317TIP3    H249147   3.727   2.200   9.601 -0.3832 -1.7515  1.8368
 8318TIP3   OH249148   4.518   0.329   7.958  0.4744 -0.3531 -0.2152
 8318TIP3    H149149   4.542   0.368   7.873 -0.1308 -1.0967 -0.7442
 8318TIP3    H249150   4.424   0.309   7.949 -0.1173  1.4409  1.3814
 8319TIP3   OH249151   2.795   2.848   6.559 -0.1073 -0.4008  0.4063
 8319TIP3    H149152   2.711   2.877   6.522  0.7255 -0.5345 -1.7264
 8319TIP3    H249153   2.820   2.773   6.505  1.7924  0.1632  0.4341
 8320TIP3   OH249154   0.635   3.552   6.664  0.2436  0.2284 -0.2968
 8320TIP3    H149155   0.662   3.643   6.677  1.6781 -0.0394 -1.1654
 8320TIP3    H249156   0.545   3.549   6.698  0.5281  1.7032  0.7058
 8321TIP3   OH249157   0.028   2.928   8.665 -0.0401 -0.0494 -0.0270
 8321TIP3    H149158   0.072   2.869   8.726 -0.3597 -0.7778 -0.4829
 8321TIP3    H249159   0.097   2.987   8.634  0.3235 -0.3023  0.2982
 8322TIP3   OH249160   0.747   3.748   8.200  0.2610  0.1367  0.3752
 8322TIP3    H149161   0.681   3.815   8.181  0.8945  1.5228  2.6460
 8322TIP3    H249162   0.794   3.736   8.117 -0.6487  1.6357 -0.3954
 8323TIP3   OH249163   6.565   5.813   7.298  0.1108 -0.7317  0.0827
 8323TIP3    H149164   6.474   5.827   7.324  0.1002  0.0427 -0.3359
 8323TIP3    H249165   6.582   5.721   7.318 -0.7117 -0.8396  0.3201
 8324TIP3   OH249166   4.929   4.364   8.954  0.1882  0.0365  0.0140
 8324TIP3    H149167   4.842   4.371   8.994  1.7850  1.1368  3.7183
 8324TIP3    H249168   4.928   4.427   8.882 -2.1622 -0.3277 -0.3555
 8325TIP3   OH249169   1.315   3.990   7.207 -0.1003  0.2593 -0.0065
 8325TIP3    H149170   1.396   4.017   7.163 -0.7577  0.8287 -0.9098
 8325TIP3    H249171   1.249   3.992   7.138 -0.4940 -2.3576  0.1874
 8326TIP3   OH249172   3.099   3.578   6.627  0.2902 -0.7112  0.5817
 8326TIP3    H149173   3.032   3.635   6.589 -0.6077 -1.4645  1.0135
 8326TIP3    H249174   3.175   3.635   6.640  0.0433 -0.0454 -0.7403
 8327TIP3   OH249175   6.277   3.261   7.200  0.2064 -0.2995  0.0695
 8327TIP3    H149176   6.347   3.219   7.250  1.9506  0.6284 -1.4772
 8327TIP3    H249177   6.274   3.351   7.231 -0.4247 -0.3661  0.2264
 8328TIP3   OH249178   2.336   6.224   7.950  0.0983  0.1471 -0.4037
 8328TIP3    H149179   2.303   6.301   7.905  2.4192  1.0083 -0.7366
 8328TIP3    H249180   2.391   6.258   8.020  1.2649 -1.1979 -0.6228
 8329TIP3   OH249181   0.556   0.101   7.162  0.0235 -0.1979 -0.0211
 8329TIP3    H149182   0.531   0.014   7.132  0.0790  0.2329 -1.4222
 8329TIP3    H249183   0.642   0.116   7.122 -1.1712  1.5490 -2.1868
 8330TIP3   OH249184   4.134   6.281   8.408 -0.1421  0.1220  0.4852
 8330TIP3    H149185   4.158   6.207   8.463 -0.3571  0.1854  0.6668
 8330TIP3    H249186   4.182   6.267   8.326 -2.7239 -2.0015 -0.7988
 8331TIP3   OH249187   4.785   2.835   8.120  0.0907  0.1355 -0.2343
 8331TIP3    H149188   4.848   2.765   8.099 -0.0436  0.5968 -2.3070
 8331TIP3    H249189   4.705   2.811   8.073 -0.4991  0.8371  0.3805
 8332TIP3   OH249190   0.655   2.264   7.361  0.0922  0.0472  0.3274
 8332TIP3    H149191   0.672   2.186   7.307 -0.7963  0.5710 -0.7620
 8332TIP3    H249192   0.597   2.318   7.307 -0.6911  0.6900  1.7526
 8333TIP3   OH249193   0.574   2.711   7.084  0.1907  0.1470 -0.2347
 8333TIP3    H149194   0.630   2.767   7.137  0.6132  0.3719 -0.9015
 8333TIP3    H249195   0.495   2.698   7.137  0.7042  0.1553  0.5395
 8334TIP3   OH249196   4.434   5.602   6.996  0.5007 -0.1690  0.2392
 8334TIP3    H149197   4.466   5.692   6.984 -0.7265  0.4024  1.0024
 8334TIP3    H249198   4.349   5.601   6.953  0.7411 -1.1451 -0.2303
 8335TIP3   OH249199   1.399   3.520   7.362 -0.0441 -0.0476  0.6919
 8335TIP3    H149200   1.307   3.546   7.353  0.0654 -0.1564 -1.3195
 8335TIP3    H249201   1.417   3.470   7.282  1.9377  0.5196  0.7394
 8336TIP3   OH249202   5.508   2.948  17.328  0.2843  0.2240 -0.3501
 8336TIP3    H149203   5.571   2.996  17.274  0.5007  1.6047  1.0304
 8336TIP3    H249204   5.436   3.010  17.341  0.9225  0.5481  2.1284
 8337TIP3   OH249205   4.582   0.384   9.061 -0.1659  0.3718  0.1028
 8337TIP3    H149206   4.510   0.432   9.102  0.2570  1.2704 -0.1649
 8337TIP3    H249207   4.559   0.292   9.071 -0.5667  0.5975  1.4316
 8338TIP3   OH249208   2.964   0.401   7.599 -0.2795  0.1964 -0.2137
 8338TIP3    H149209   2.942   0.329   7.657 -1.6116 -0.1963 -1.1499
 8338TIP3    H249210   2.891   0.463   7.608 -0.1467  0.4692 -0.8985
 8339TIP3   OH249211   5.268   4.621   9.031 -0.1983 -0.1305 -0.0155
 8339TIP3    H149212   5.261   4.527   9.020 -0.2748  0.1623 -3.8875
 8339TIP3    H249213   5.355   4.635   9.068  0.1261 -1.6652 -0.1420
 8340TIP3   OH249214   3.800   3.915   9.210  0.1400  0.6230  0.1672
 8340TIP3    H149215   3.871   3.917   9.275  1.2188  0.1442 -0.9512
 8340TIP3    H249216   3.721   3.933   9.261  1.2062  2.5863  1.2515
 8341TIP3   OH249217   2.689   5.936   7.819 -0.1587 -0.2639  0.0853
 8341TIP3    H149218   2.705   5.973   7.906 -0.4341  1.1525 -0.4448
 8341TIP3    H249219   2.772   5.946   7.773 -0.4657  0.4466 -0.3224
 8342TIP3   OH249220   6.646   3.152   8.020  0.2798  0.5188 -1.0755
 8342TIP3    H149221   6.711   3.183   8.083 -1.2906  0.5974  0.6217
 8342TIP3    H249222   6.562   3.160   8.067 -0.6406 -2.6817 -1.9002
 8343TIP3   OH249223   4.702   0.585   7.380  0.1256 -0.1695 -0.2642
 8343TIP3    H149224   4.613   0.587   7.417 -0.2984  0.7587 -1.2791
 8343TIP3    H249225   4.688   0.564   7.287  0.8468  1.2946 -0.7310
 8344TIP3   OH249226   3.005   6.518   6.648  0.3358  0.0204 -0.0153
 8344TIP3    H149227   2.977   6.599   6.606 -0.9901 -1.0317 -1.2784
 8344TIP3    H249228   2.980   6.528   6.740  0.3458  1.0826 -0.1178
 8345TIP3   OH249229   1.386   3.932   7.712  0.7177 -0.5119 -0.3431
 8345TIP3    H149230   1.466   3.958   7.758  0.6335 -0.7174 -0.0783
 8345TIP3    H249231   1.380   3.993   7.638 -0.2553  1.2228  1.0910
 8346TIP3   OH249232   4.583   3.270   6.719  0.0201 -0.1830 -0.1796
 8346TIP3    H149233   4.494   3.278   6.753  0.2187 -0.0124  0.3021
 8346TIP3    H249234   4.578   3.196   6.658 -0.8483  0.9037 -1.4923
 8347TIP3   OH249235   4.111   1.924   6.884  0.6902  0.4733  0.3740
 8347TIP3    H149236   4.179   1.857   6.890  1.5581  1.1901 -0.8516
 8347TIP3    H249237   4.066   1.905   6.802 -1.0539 -0.3552  1.4503
 8348TIP3   OH249238   0.734   1.556  17.300  0.2191 -0.4702  0.2562
 8348TIP3    H149239   0.748   1.463  17.319  0.5114 -0.2207  1.3441
 8348TIP3    H249240   0.822   1.591  17.285  0.0853 -0.4233 -0.4501
 8349TIP3   OH249241   1.121   1.993   6.263 -0.2271  0.3212 -0.3355
 8349TIP3    H149242   1.069   2.072   6.249  1.6018  2.6842  4.0837
 8349TIP3    H249243   1.081   1.951   6.339  2.9560  1.2422  2.0543
 8350TIP3   OH249244   2.971   2.033   7.298 -0.0395  0.7495  0.5601
 8350TIP3    H149245   2.985   2.097   7.228  0.3940  1.6252  1.4191
 8350TIP3    H249246   2.889   2.061   7.339 -0.7050 -0.2278 -0.0735
 8351TIP3   OH249247   5.760   5.639   8.528  0.0292  0.1992  0.1895
 8351TIP3    H149248   5.667   5.615   8.534 -0.6263  2.7332  1.3654
 8351TIP3    H249249   5.800   5.566   8.480 -2.5460 -0.9573 -0.3879
 8352TIP3   OH249250   1.790   2.582   8.586  0.5919  0.8652 -0.7798
 8352TIP3    H149251   1.719   2.520   8.577  1.1669  0.4950 -3.8429
 8352TIP3    H249252   1.747   2.668   8.589 -0.0132  0.5806 -1.2517
 8353TIP3   OH249253   4.308   4.637   8.362  0.1212  0.1917 -0.1827
 8353TIP3    H149254   4.286   4.708   8.423  0.9156  0.2886 -0.0049
 8353TIP3    H249255   4.239   4.572   8.375 -0.3229  0.6968  0.0315
 8354TIP3   OH249256   1.369   2.277   7.158  1.0690 -0.0551 -0.5308
 8354TIP3    H149257   1.375   2.236   7.244  0.1183 -0.2145 -0.5315
 8354TIP3    H249258   1.363   2.203   7.097  1.4913  0.0605 -0.7137
 8355TIP3   OH249259   5.981   1.174   7.003  0.7712 -0.2006 -0.2923
 8355TIP3    H149260   6.052   1.227   6.966 -0.9492  1.6764 -1.0891
 8355TIP3    H249261   5.943   1.129   6.928 -1.0739  1.6050 -0.5494
 8356TIP3   OH249262   1.198   1.843   7.524 -0.9771  0.2287 -0.2723
 8356TIP3    H149263   1.182   1.904   7.596 -0.5076  0.1150 -0.0672
 8356TIP3    H249264   1.260   1.779   7.559 -1.4440 -0.3602 -0.4905
 8357TIP3   OH249265   3.951   5.631   7.208 -0.3675  0.2901  0.1517
 8357TIP3    H149266   4.016   5.568   7.178  0.0077  0.4632  0.5815
 8357TIP3    H249267   3.870   5.604   7.166 -0.4365 -1.0704  1.1177
 8358TIP3   OH249268   0.479   4.408   6.694 -0.2085 -0.0339 -0.1227
 8358TIP3    H149269   0.536   4.384   6.621  0.6768 -1.4333  0.9590
 8358TIP3    H249270   0.515   4.360   6.769 -1.6112  0.6503  1.0426
 8359TIP3   OH249271   2.508   0.619   7.953  0.1394  0.2614 -0.4639
 8359TIP3    H149272   2.453   0.580   7.885  1.5938 -0.2711 -1.3716
 8359TIP3    H249273   2.457   0.693   7.985 -1.5732 -0.8411 -0.5001
 8360TIP3   OH249274   1.380   0.271   8.471 -0.0181 -0.6107 -0.0530
 8360TIP3    H149275   1.423   0.317   8.543  1.6097 -2.0934  0.0014
 8360TIP3    H249276   1.287   0.287   8.484  0.3899  1.2900  0.8589
 8361TIP3   OH249277   6.704   2.220   7.867  0.0886 -0.3568  0.4006
 8361TIP3    H149278   6.616   2.210   7.901 -0.0517  0.9665  0.4895
 8361TIP3    H249279   6.701   2.300   7.815  1.2483 -0.2512  0.4570
 8362TIP3   OH249280   2.602   0.141   7.610 -0.1404 -0.3169 -0.0430
 8362TIP3    H149281   2.673   0.121   7.671  0.0595  0.6213  0.0481
 8362TIP3    H249282   2.564   0.056   7.589  0.3829 -0.7389  0.6662
 8363TIP3   OH249283   0.166   3.989   8.445  0.1086  0.2729 -0.1660
 8363TIP3    H149284   0.175   4.061   8.507  0.1879  0.3469 -0.2636
 8363TIP3    H249285   0.130   4.028   8.366  0.5590  0.2884 -0.3680
 8364TIP3   OH249286   0.889   2.754   9.879 -0.2386 -0.6012  0.0399
 8364TIP3    H149287   0.883   2.738   9.973 -2.4578  0.5267  0.1495
 8364TIP3    H249288   0.799   2.771   9.851  0.4387 -0.2623 -2.1820
 8365TIP3   OH249289   3.096   4.396   6.983 -0.3208  0.1860  0.7790
 8365TIP3    H149290   3.044   4.451   6.925  0.0079  2.0467  2.1420
 8365TIP3    H249291   3.180   4.387   6.938 -1.1960 -1.3948 -0.6313
 8366TIP3   OH249292   0.424   1.673   7.293  0.2123  0.2497 -0.3529
 8366TIP3    H149293   0.425   1.585   7.254 -1.2372  0.6546 -1.4004
 8366TIP3    H249294   0.387   1.660   7.380  1.6158 -0.3913  0.1809
 8367TIP3   OH249295   4.012   4.054   7.539 -0.1984  0.4076  0.4010
 8367TIP3    H149296   3.975   4.136   7.569 -3.1254 -0.5717 -0.1983
 8367TIP3    H249297   4.040   4.071   7.449 -0.5448  0.7961  0.3700
 8368TIP3   OH249298   4.964   2.095   6.414  0.1400  0.0913 -0.3356
 8368TIP3    H149299   4.936   2.086   6.505 -1.1450  0.7218 -0.6452
 8368TIP3    H249300   4.996   2.008   6.390  2.0714  0.2964  1.1758
 8369TIP3   OH249301   3.873   5.253   8.109 -0.0315  0.0722  0.1962
 8369TIP3    H149302   3.926   5.212   8.177 -0.4370 -2.8655 -1.1472
 8369TIP3    H249303   3.935   5.275   8.040  0.0194  0.7232  0.4406
 8370TIP3   OH249304   0.140   1.185   8.161  0.5098 -0.3896  0.1077
 8370TIP3    H149305   0.088   1.262   8.182 -0.5369  0.0831 -3.5172
 8370TIP3    H249306   0.092   1.112   8.199 -1.6330  0.2890 -1.1054
 8371TIP3   OH249307   2.162   5.868   9.077  0.5595  0.2481 -0.4572
 8371TIP3    H149308   2.080   5.822   9.092 -0.3614  1.6119 -1.0517
 8371TIP3    H249309   2.201   5.878   9.164 -0.0427 -0.1682 -0.1361
 8372TIP3   OH249310   5.823   2.197   9.757 -0.2803  0.7533 -0.2300
 8372TIP3    H149311   5.899   2.146   9.784 -0.1629  0.3751 -1.2519
 8372TIP3    H249312   5.767   2.199   9.835 -0.2410 -0.8398 -0.1228
 8373TIP3   OH249313   5.201   3.284   8.519 -0.0167  0.2816  0.0625
 8373TIP3    H149314   5.152   3.268   8.600 -1.9491  0.9406 -0.9287
 8373TIP3    H249315   5.234   3.373   8.528  0.1952  0.1813  0.3104
 8374TIP3   OH249316   2.367   3.997   9.695 -0.4791 -0.5453  0.1227
 8374TIP3    H149317   2.368   4.082   9.653  0.6359 -0.6558 -0.1224
 8374TIP3    H249318   2.454   3.960   9.676  0.0622 -0.6428  2.4029
 8375TIP3   OH249319   6.586   4.850   8.039 -0.6484 -0.2521  0.1043
 8375TIP3    H149320   6.490   4.857   8.040 -0.9059 -2.3878 -1.6658
 8375TIP3    H249321   6.604   4.773   8.093 -0.0690 -0.8130 -0.8755
 8376TIP3   OH249322   0.202   0.775   7.377  0.0686  0.0353  0.4862
 8376TIP3    H149323   0.212   0.682   7.359 -1.0931 -0.3257  1.5621
 8376TIP3    H249324   0.200   0.782   7.472 -2.9147  0.7294  0.4987
 8377TIP3   OH249325   3.705   0.227   6.529 -0.2975 -0.7712 -0.5935
 8377TIP3    H149326   3.687   0.266   6.615 -2.1418 -2.7022 -0.0018
 8377TIP3    H249327   3.754   0.294   6.482 -0.3719  0.8693  1.5036
 8378TIP3   OH249328   3.386   5.025   6.861  0.8325  0.4215 -0.2112
 8378TIP3    H149329   3.457   5.074   6.902  0.3358 -0.4427  1.8274
 8378TIP3    H249330   3.310   5.084   6.865  0.9861  0.6548 -0.6903
 8379TIP3   OH249331   1.091   1.623   8.977  0.2640  0.1728 -0.0431
 8379TIP3    H149332   1.033   1.639   8.903  0.3213 -1.9823 -0.6428
 8379TIP3    H249333   1.033   1.626   9.054  0.0059  1.3348 -0.2662
 8380TIP3   OH249334   2.364   4.392   8.900 -0.1915  0.4056  0.2779
 8380TIP3    H149335   2.448   4.410   8.941 -0.4664  1.9799  0.2035
 8380TIP3    H249336   2.302   4.450   8.944 -0.9219  0.4812 -0.8079
 8381TIP3   OH249337   1.618   5.616   6.838  0.1754 -0.2898 -0.1112
 8381TIP3    H149338   1.563   5.622   6.761  1.0334  0.9629 -0.6611
 8381TIP3    H249339   1.685   5.683   6.825  1.6194 -1.5107  0.6929
 8382TIP3   OH249340   3.980   0.079   8.496  0.0657 -0.1832 -0.2116
 8382TIP3    H149341   3.892   0.100   8.529  0.5826  0.0548  1.0992
 8382TIP3    H249342   3.984  -0.016   8.496  0.3663 -0.1995  1.3899
 8383TIP3   OH249343   3.218   3.450   7.040 -0.4314 -0.6101 -0.4132
 8383TIP3    H149344   3.305   3.451   7.000  0.6488 -0.3859  1.7662
 8383TIP3    H249345   3.202   3.357   7.058 -0.4403 -0.6076 -0.4089
 8384TIP3   OH249346   4.530   3.462   6.537 -0.1205  0.1561 -0.2676
 8384TIP3    H149347   4.616   3.470   6.495 -0.5416 -1.8948 -1.6598
 8384TIP3    H249348   4.538   3.386   6.595 -0.1393  1.7898  2.0417
 8385TIP3   OH249349   2.943   4.283   7.656 -0.1706 -0.3403 -0.4794
 8385TIP3    H149350   2.869   4.319   7.705 -1.2466 -1.6434 -1.0777
 8385TIP3    H249351   2.903   4.223   7.592  1.4376 -1.7628 -0.2393
 8386TIP3   OH249352   4.902   3.742   9.807 -0.1406  0.7070  0.0503
 8386TIP3    H149353   4.907   3.787   9.892 -1.8164 -0.2255  0.6919
 8386TIP3    H249354   4.821   3.774   9.768  0.7376  1.3193 -1.3677
 8387TIP3   OH249355   2.019   0.042   8.336  0.0061 -0.1377 -0.5705
 8387TIP3    H149356   1.928   0.065   8.355  0.6359 -0.2154  3.3800
 8387TIP3    H249357   2.070   0.108   8.382  1.9428 -1.1690 -1.1486
 8388TIP3   OH249358   6.580   4.420  10.430 -0.2239 -0.1145 -0.0370
 8388TIP3    H149359   6.676   4.425  10.424 -0.2277  2.2279  0.9484
 8388TIP3    H249360   6.549   4.441  10.342  0.1366 -0.4837 -0.2595
 8389TIP3   OH249361   6.569   6.532   7.903  0.2966 -0.4049 -1.0599
 8389TIP3    H149362   6.585   6.466   7.835 -0.6946 -2.1472  0.2954
 8389TIP3    H249363   6.650   6.582   7.907  0.7740 -0.9586 -2.7542
 8390TIP3   OH249364   1.934   1.176   6.547 -0.0215  0.4688  0.0939
 8390TIP3    H149365   1.860   1.185   6.486 -0.2286 -1.8317 -0.0881
 8390TIP3    H249366   2.000   1.128   6.497  0.5693  0.2375  1.0825
 8391TIP3   OH249367   1.016   5.307   7.380 -0.1445  0.2887  0.0332
 8391TIP3    H149368   0.939   5.290   7.325 -0.8609  1.2650  0.6946
 8391TIP3    H249369   0.979   5.319   7.468  0.8166  0.3697  0.4349
 8392TIP3   OH249370   2.807   4.837   7.518 -0.5729 -0.2659  0.1214
 8392TIP3    H149371   2.828   4.773   7.587 -1.3393  0.9335  1.5344
 8392TIP3    H249372   2.881   4.897   7.518 -0.0377 -0.8868 -0.9391
 8393TIP3   OH249373   1.719   0.347   8.536  0.2489  0.0412  0.3985
 8393TIP3    H149374   1.798   0.379   8.578  0.0863  1.3388 -0.2480
 8393TIP3    H249375   1.695   0.415   8.473  0.0223 -1.4439 -1.2100
 8394TIP3   OH249376   2.032   0.858   7.518  0.0870  0.2913  0.1851
 8394TIP3    H149377   2.087   0.877   7.442  4.4625 -1.3095  2.5352
 8394TIP3    H249378   2.043   0.935   7.575  0.7454 -0.4161  1.0530
 8395TIP3   OH249379   3.445   6.341   7.720 -0.1144  0.0203  0.5485
 8395TIP3    H149380   3.441   6.260   7.772 -0.5494  1.6071  3.1525
 8395TIP3    H249381   3.525   6.385   7.750  0.5956  0.2215 -1.4712
 8396TIP3   OH249382   5.555   1.979   8.272 -0.3092 -0.1384 -0.1884
 8396TIP3    H149383   5.571   2.012   8.360 -0.4722  1.3598 -0.6995
 8396TIP3    H249384   5.495   1.905   8.284 -0.5051  0.1950  0.9267
 8397TIP3   OH249385   2.932   6.122   8.724 -0.2238  0.2312 -0.2868
 8397TIP3    H149386   2.901   6.094   8.810 -0.9837  0.1357 -0.5812
 8397TIP3    H249387   2.875   6.195   8.701  0.1430  0.4233 -0.5996
 8398TIP3   OH249388   2.614   1.105   7.072  0.0161 -0.1084  0.3381
 8398TIP3    H149389   2.614   1.155   6.990 -1.4047 -0.2203  0.2400
 8398TIP3    H249390   2.525   1.116   7.106 -0.3187 -2.4462  0.3832
 8399TIP3   OH249391   0.703   3.302   9.181  0.7208 -0.4670  0.2817
 8399TIP3    H149392   0.743   3.291   9.095  0.3266  1.2590 -0.1504
 8399TIP3    H249393   0.690   3.396   9.190 -1.7208 -0.8168  1.0965
 8400TIP3   OH249394   0.244   1.040   6.643 -0.4048 -0.1534  0.8216
 8400TIP3    H149395   0.240   1.003   6.555  0.0880  0.8228  0.3669
 8400TIP3    H249396   0.262   1.133   6.629 -0.4466  0.0432  1.9544
 8401TIP3   OH249397   4.137   3.768   6.848  0.3473  0.0227  0.2983
 8401TIP3    H149398   4.113   3.849   6.803  0.1126 -0.6103 -0.7697
 8401TIP3    H249399   4.213   3.736   6.799  0.0563 -0.7071  0.3191
 8402TIP3   OH249400   6.375   0.300   7.349  0.1419  0.5441  0.6573
 8402TIP3    H149401   6.401   0.332   7.435 -1.3757  0.5530  1.1512
 8402TIP3    H249402   6.362   0.379   7.297 -2.9516  0.8453  1.6803
 8403TIP3   OH249403   2.703   1.380   9.201 -1.2613 -0.5903  0.8676
 8403TIP3    H149404   2.748   1.296   9.204  0.6568  0.3921  1.6275
 8403TIP3    H249405   2.611   1.359   9.211 -1.1668 -2.8026 -1.9330
 8404TIP3   OH249406   6.392   5.568   7.216  0.0581 -0.1764  0.2999
 8404TIP3    H149407   6.347   5.602   7.139  0.9472 -2.6450 -1.4254
 8404TIP3    H249408   6.349   5.611   7.290 -1.8478  1.1491 -1.4868
 8405TIP3   OH249409   2.060   1.460   7.078  0.0967  0.4944  0.4648
 8405TIP3    H149410   2.090   1.544   7.112  0.4094  0.2443  0.8156
 8405TIP3    H249411   2.059   1.402   7.154  1.9792 -0.4035 -0.1314
 8406TIP3   OH249412   4.302   2.047   7.250 -0.0746  0.0717 -0.3814
 8406TIP3    H149413   4.343   2.081   7.330 -1.6971 -0.2940  0.6618
 8406TIP3    H249414   4.275   1.958   7.273 -1.7652  0.4217 -0.8706
 8407TIP3   OH249415   0.884   1.543   8.232  0.3145 -0.5216  0.0489
 8407TIP3    H149416   0.887   1.608   8.162  1.5580  0.4374  0.9441
 8407TIP3    H249417   0.911   1.461   8.191  3.7325  0.5417 -0.1078
 8408TIP3   OH249418   4.429   0.924   7.647 -0.3371  0.1893  0.1863
 8408TIP3    H149419   4.465   0.964   7.726  0.1961  0.5543 -0.2397
 8408TIP3    H249420   4.376   0.994   7.608  1.8230  1.0547 -1.3839
 8409TIP3   OH249421   0.079   2.388   8.359 -0.5521 -0.9201 -0.0405
 8409TIP3    H149422   0.028   2.446   8.416 -1.6331 -2.5624  0.7448
 8409TIP3    H249423   0.070   2.427   8.271 -0.1586  0.7854  0.6415
 8410TIP3   OH249424   2.724   6.158   6.604  0.0539 -0.2074  0.4155
 8410TIP3    H149425   2.811   6.183   6.575 -0.5363  0.5695 -0.7905
 8410TIP3    H249426   2.720   6.063   6.588 -0.1177  0.1296 -1.8463
 8411TIP3   OH249427   4.649   0.659   8.654  0.4999  0.2504 -0.1380
 8411TIP3    H149428   4.589   0.732   8.639 -0.6119 -0.1785  1.9114
 8411TIP3    H249429   4.703   0.656   8.575  0.8779  3.5452 -0.1389
 8412TIP3   OH249430   0.291   5.983   8.946 -0.6338  0.1567 -0.0347
 8412TIP3    H149431   0.332   5.966   9.031 -4.1469  0.1006  1.8174
 8412TIP3    H249432   0.212   5.930   8.946 -0.1467 -0.8921 -4.0031
 8413TIP3   OH249433   5.823   0.064   8.597  0.3645  0.4066 -0.1209
 8413TIP3    H149434   5.914   0.070   8.626 -0.0997  2.0182  1.2061
 8413TIP3    H249435   5.787   0.151   8.616 -1.1324  0.2040 -1.7859
 8414TIP3   OH249436   0.523   4.365   6.951  0.2920  0.1030 -0.2484
 8414TIP3    H149437   0.438   4.324   6.968 -0.0392  0.0340 -1.8404
 8414TIP3    H249438   0.584   4.320   7.009 -0.6854 -0.1170  0.6423
 8415TIP3   OH249439   5.291   0.367   8.830 -0.3867 -0.2878  0.5681
 8415TIP3    H149440   5.368   0.396   8.783 -0.3995  0.0341  0.7444
 8415TIP3    H249441   5.277   0.433   8.898  0.4072 -1.4034  1.8715
 8416TIP3   OH249442   1.674   6.117   8.543  0.4010 -0.6824 -0.2910
 8416TIP3    H149443   1.716   6.077   8.467  2.3028 -1.3058  1.0152
 8416TIP3    H249444   1.669   6.210   8.521  0.4814 -0.9149 -1.3606
 8417TIP3   OH249445   0.857   4.201   6.899  0.2502 -0.0539  1.0596
 8417TIP3    H149446   0.824   4.280   6.855  0.8055  1.1777  2.7612
 8417TIP3    H249447   0.814   4.202   6.985 -0.5169 -2.1938  0.7674
 8418TIP3   OH249448   2.867   2.848   6.822  0.1852  0.1212 -0.4248
 8418TIP3    H149449   2.861   2.867   6.728  0.5187  0.0198 -0.4673
 8418TIP3    H249450   2.893   2.755   6.826  1.1625  0.3925 -0.2467
 8419TIP3   OH249451   4.359   2.962   9.369 -0.4319  0.1783 -0.1607
 8419TIP3    H149452   4.409   2.942   9.448 -0.0482 -0.0191 -0.4560
 8419TIP3    H249453   4.336   2.876   9.333 -0.9654  0.2663 -0.0391
 8420TIP3   OH249454   2.272   3.150   9.243  0.1683  0.3977  0.4809
 8420TIP3    H149455   2.240   3.142   9.153 -0.1646 -1.4563  0.7298
 8420TIP3    H249456   2.367   3.162   9.234  0.1511  0.1195 -0.1016
 8421TIP3   OH249457   4.415   3.812   7.095  0.5132  0.7270 -0.1588
 8421TIP3    H149458   4.368   3.804   7.178 -0.4470  3.8944 -0.2811
 8421TIP3    H249459   4.478   3.740   7.096 -1.7984 -1.4422  1.6933
 8422TIP3   OH249460   6.163   3.748   9.440 -0.3438 -0.3335  0.0521
 8422TIP3    H149461   6.226   3.792   9.497  0.1009 -1.7251  0.7009
 8422TIP3    H249462   6.080   3.753   9.487 -0.7493  1.4952 -0.7983
 8423TIP3   OH249463   1.786   2.727  10.100  0.2187  0.0005 -0.5984
 8423TIP3    H149464   1.860   2.748  10.157  0.7009 -0.3133 -1.1008
 8423TIP3    H249465   1.712   2.774  10.138  0.7609  0.6343 -0.3140
 8424TIP3   OH249466   5.456   4.078   9.293  0.3087 -0.3931  0.2303
 8424TIP3    H149467   5.455   4.173   9.279 -0.2027 -0.2914  0.9033
 8424TIP3    H249468   5.547   4.053   9.281  0.7569  0.4537  1.7042
 8425TIP3   OH249469   0.843   0.224   6.784  0.2125 -0.1519  0.0967
 8425TIP3    H149470   0.902   0.226   6.859  0.2196 -2.2567  0.1943
 8425TIP3    H249471   0.891   0.178   6.716  0.0262  1.3089 -1.0898
 8426TIP3   OH249472   6.099   4.452   9.520  0.3865  0.1833  0.1159
 8426TIP3    H149473   6.092   4.460   9.615  0.3464  1.9791  0.0033
 8426TIP3    H249474   6.176   4.396   9.506  0.2106 -0.3571  1.1878
 8427TIP3   OH249475   4.902   4.739   8.928 -0.0253 -0.2334  0.0116
 8427TIP3    H149476   4.936   4.727   9.017  2.2977 -2.1748 -1.0040
 8427TIP3    H249477   4.844   4.664   8.915 -0.4825  0.1334 -0.0530
 8428TIP3   OH249478   5.652   5.766   7.154  0.2153  0.6281  0.1695
 8428TIP3    H149479   5.575   5.790   7.103  0.8546 -0.5965 -1.4432
 8428TIP3    H249480   5.708   5.844   7.151 -0.3635  1.0529  0.2250
 8429TIP3   OH249481   2.855   6.440   9.204 -0.5755  0.1800 -0.4737
 8429TIP3    H149482   2.788   6.507   9.220  1.4039  2.0761  0.3826
 8429TIP3    H249483   2.925   6.462   9.265  0.1812 -2.7323 -0.1698
 8430TIP3   OH249484   1.437   1.682   7.492  0.2737 -0.4463  0.2823
 8430TIP3    H149485   1.479   1.679   7.406  0.5087  1.5843  0.2902
 8430TIP3    H249486   1.504   1.716   7.550 -1.1661  2.6258  0.3433
 8431TIP3   OH249487   0.445   6.575   7.052 -0.0070 -0.2086 -0.6082
 8431TIP3    H149488   0.396   6.494   7.037  0.4409 -0.2199 -2.1573
 8431TIP3    H249489   0.431   6.626   6.973  1.6975  0.1975 -0.6798
 8432TIP3   OH249490   6.618   1.098   6.838  0.3104 -0.0358 -0.0090
 8432TIP3    H149491   6.619   1.011   6.797 -0.2565  0.8378 -2.0208
 8432TIP3    H249492   6.527   1.111   6.865  0.5288 -0.3036  0.8886
 8433TIP3   OH249493   1.317   5.322   6.632  0.0785 -0.4182  0.4733
 8433TIP3    H149494   1.408   5.293   6.626  0.4306  0.7250  0.1075
 8433TIP3    H249495   1.280   5.270   6.703  0.9222 -1.1239  0.4120
 8434TIP3   OH249496   6.718   4.610   7.387 -0.0620  0.2968 -0.4322
 8434TIP3    H149497   6.646   4.558   7.351  0.0420  0.1266 -0.3947
 8434TIP3    H249498   6.731   4.575   7.475 -1.1771  1.5701  0.2729
 8435TIP3   OH249499   3.898   1.245   7.141  0.0029 -0.0746  0.2209
 8435TIP3    H149500   3.846   1.218   7.065  1.0080 -2.1945  0.2316
 8435TIP3    H249501   3.849   1.320   7.177 -2.7372 -1.5611 -0.1039
 8436TIP3   OH249502   0.930   5.577   6.677 -0.4088  0.2645  0.1829
 8436TIP3    H149503   0.867   5.545   6.743 -0.6932 -1.7634 -0.9895
 8436TIP3    H249504   0.891   5.658   6.644 -1.4074  0.0837  0.8736
 8437TIP3   OH249505   4.250   6.559   9.279 -0.3111  0.0733  0.2600
 8437TIP3    H149506   4.322   6.621   9.289 -0.8396  0.7957 -0.2796
 8437TIP3    H249507   4.239   6.550   9.184 -1.6306  0.8299  0.3112
 8438TIP3   OH249508   0.762   1.859   8.324 -0.4191  0.0472  0.7108
 8438TIP3    H149509   0.677   1.825   8.298 -0.1809  0.6589 -0.9684
 8438TIP3    H249510   0.817   1.781   8.337 -1.0202 -0.3192  1.1097
 8439TIP3   OH249511   0.021   2.726   7.797 -0.0850 -0.0554  0.2747
 8439TIP3    H149512  -0.001   2.703   7.887  1.0752  0.8069  0.8040
 8439TIP3    H249513   0.028   2.822   7.798  4.1160 -0.2091  0.3374
 8440TIP3   OH249514   4.441   3.963   9.269 -0.0732 -0.5827  0.4714
 8440TIP3    H149515   4.371   3.935   9.328  0.4716 -1.0576  0.9077
 8440TIP3    H249516   4.511   3.898   9.282  0.4099 -0.1746 -0.0257
 8441TIP3   OH249517   3.384   4.536   8.158  0.2267 -0.4243  0.3734
 8441TIP3    H149518   3.414   4.532   8.249  1.8126 -1.2151 -0.1548
 8441TIP3    H249519   3.383   4.630   8.138  0.9774 -0.2981  0.8653
 8442TIP3   OH249520   3.665   4.890   6.939  0.5569 -0.0441  0.1206
 8442TIP3    H149521   3.636   4.890   6.847 -1.6918  0.6167  0.7773
 8442TIP3    H249522   3.622   4.814   6.978 -0.2035  0.8500  1.0859
 8443TIP3   OH249523   5.856   1.975   8.203 -0.0900  0.1292 -0.0180
 8443TIP3    H149524   5.773   1.997   8.162 -0.7117  0.5882  1.4492
 8443TIP3    H249525   5.833   1.923   8.279  1.0813 -1.2033 -0.5261
 8444TIP3   OH249526   2.730   5.942   6.850 -0.0666 -0.1929  1.2288
 8444TIP3    H149527   2.709   5.886   6.775 -1.8295  1.3010  0.5454
 8444TIP3    H249528   2.811   5.986   6.825 -0.0381 -0.5378  0.6979
 8445TIP3   OH249529   4.170   5.855   6.700 -0.6982 -0.2183  0.1992
 8445TIP3    H149530   4.129   5.799   6.766  0.2798  0.7588  1.6827
 8445TIP3    H249531   4.157   5.944   6.732  0.9791  0.2129 -0.1924
 8446TIP3   OH249532   2.643   0.411   7.597 -0.1805 -0.6541  0.3063
 8446TIP3    H149533   2.556   0.422   7.635  1.1028 -0.1230  3.3428
 8446TIP3    H249534   2.657   0.317   7.596 -1.3303 -0.8562 -1.7015
 8447TIP3   OH249535   1.219   1.376   6.794  0.3609  0.0594 -0.1675
 8447TIP3    H149536   1.237   1.403   6.704 -2.1854 -0.0601 -0.7939
 8447TIP3    H249537   1.304   1.380   6.838  1.3662  1.8561 -2.1034
 8448TIP3   OH249538   0.608   1.516   7.476 -0.4394 -0.2426  0.4674
 8448TIP3    H149539   0.520   1.553   7.483 -0.1248  0.3219  1.7969
 8448TIP3    H249540   0.609   1.445   7.540 -0.4466 -1.3801 -0.7542
 8449TIP3   OH249541   5.018   2.887   9.247 -0.1522 -0.0124  0.1272
 8449TIP3    H149542   4.984   2.893   9.157 -0.1466 -0.3646  0.0994
 8449TIP3    H249543   5.088   2.952   9.250  0.1309 -0.2933 -0.2569
 8450TIP3   OH249544   2.352   2.769   7.405  0.1298 -0.1946 -0.5910
 8450TIP3    H149545   2.293   2.746   7.334 -1.5703  3.5492 -0.6297
 8450TIP3    H249546   2.316   2.723   7.481  0.1129 -1.7606 -1.5024
 8451TIP3   OH249547   3.578   3.699   6.944 -0.4162 -0.5757 -0.3227
 8451TIP3    H149548   3.579   3.612   6.905  2.3060 -0.9924  0.4613
 8451TIP3    H249549   3.548   3.684   7.034 -0.4347 -0.6355 -0.3387
 8452TIP3   OH249550   4.968   0.279   6.817 -0.7383 -0.4992 -0.0162
 8452TIP3    H149551   4.955   0.203   6.760  0.8482  1.2188 -2.8641
 8452TIP3    H249552   5.036   0.251   6.878  0.8144 -0.9890 -1.8938
 8453TIP3   OH249553   1.552   4.618   8.211 -0.1785  0.2478 -0.5155
 8453TIP3    H149554   1.595   4.599   8.294 -1.6521 -0.1566  0.2016
 8453TIP3    H249555   1.534   4.712   8.214 -0.2679  0.2257 -0.3565
 8454TIP3   OH249556   6.221   1.844   8.238 -0.5261  0.2159  0.9136
 8454TIP3    H149557   6.168   1.877   8.165 -1.3438 -1.8406  0.5173
 8454TIP3    H249558   6.261   1.923   8.275  0.4787  1.3095 -2.1625
 8455TIP3   OH249559   3.351   1.281   6.612 -0.3556  0.3106 -0.1860
 8455TIP3    H149560   3.430   1.281   6.667 -0.9812  0.0020  0.7287
 8455TIP3    H249561   3.308   1.198   6.631 -0.0662 -0.2884 -1.9473
 8456TIP3   OH249562   2.839   5.302   6.547 -0.3099  0.8626  0.0995
 8456TIP3    H149563   2.899   5.350   6.490  1.8457  0.1734  1.6414
 8456TIP3    H249564   2.840   5.351   6.630  0.9908 -1.0825  1.3053
 8457TIP3   OH249565   2.244   6.668   9.828  0.1687 -0.2673 -0.1452
 8457TIP3    H149566   2.208   6.735   9.769 -0.5394  0.7458  1.3784
 8457TIP3    H249567   2.312   6.714   9.878 -0.8692 -0.4362  1.4897
 8458TIP3   OH249568   2.638   3.166   7.864 -0.2199 -0.2873  0.3275
 8458TIP3    H149569   2.644   3.214   7.946  0.5051  0.5100 -0.1797
 8458TIP3    H249570   2.549   3.183   7.833  0.1796  1.1450 -0.0810
 8459TIP3   OH249571   3.455   0.836   7.544  0.0189 -0.2710 -0.1118
 8459TIP3    H149572   3.369   0.874   7.523  0.9179  1.0107 -1.6939
 8459TIP3    H249573   3.499   0.903   7.596  0.5378 -0.3907 -0.3917
 8460TIP3   OH249574   0.504   5.391   6.715  0.6400  0.3927 -0.2272
 8460TIP3    H149575   0.415   5.403   6.683 -0.6294 -0.8415  2.5037
 8460TIP3    H249576   0.514   5.296   6.722  1.0170  0.5480  2.2419
 8461TIP3   OH249577   1.137   2.566   7.822  0.4242  0.0890  0.4791
 8461TIP3    H149578   1.156   2.583   7.915  0.8997  1.6628  0.1250
 8461TIP3    H249579   1.042   2.564   7.817  0.3334  1.9103  0.7290
 8462TIP3   OH249580   1.212   5.674   8.754  0.2918  0.1279  0.0111
 8462TIP3    H149581   1.148   5.702   8.689  0.1813  0.2855  0.1854
 8462TIP3    H249582   1.296   5.674   8.707  0.3382  1.0148  0.0637
 8463TIP3   OH249583   4.963   2.663   7.562  0.0346 -0.4562 -0.2130
 8463TIP3    H149584   5.025   2.736   7.558 -0.1827 -0.2510  0.1430
 8463TIP3    H249585   4.877   2.704   7.560 -0.0912 -0.6663  0.4848
 8464TIP3   OH249586   2.808   3.992   7.696  0.0175  0.0864  0.1440
 8464TIP3    H149587   2.768   3.909   7.720  0.8508 -0.0395  1.1890
 8464TIP3    H249588   2.821   4.037   7.780  1.8205  0.2085 -0.1737
 8465TIP3   OH249589   1.880   1.444   8.369 -0.1446  0.5560 -0.5243
 8465TIP3    H149590   1.944   1.516   8.365 -0.4789  0.8532 -0.5482
 8465TIP3    H249591   1.800   1.486   8.400  0.2514 -0.1912  1.7568
 8466TIP3   OH249592   3.002   0.447   8.170  0.2106  0.0478  0.5123
 8466TIP3    H149593   3.059   0.376   8.140 -2.0126 -2.5498  1.9677
 8466TIP3    H249594   2.965   0.483   8.089  0.6342 -1.1685 -0.2566
 8467TIP3   OH249595   2.990   5.676   6.576 -0.4748  0.5972 -0.4635
 8467TIP3    H149596   3.020   5.612   6.511 -0.5927  0.5757 -0.4983
 8467TIP3    H249597   2.940   5.624   6.639 -1.9644  0.8596 -1.3593
 8468TIP3   OH249598   4.809   4.603   7.673 -0.2777 -0.2534  0.0897
 8468TIP3    H149599   4.718   4.612   7.702 -0.3887  0.8019 -0.5349
 8468TIP3    H249600   4.803   4.553   7.591 -0.6195  2.2398 -1.4968
 8469TIP3   OH249601   1.095   5.146   6.508 -0.2595 -0.0513 -0.0172
 8469TIP3    H149602   1.163   5.212   6.524  1.1136 -1.4481  0.1330
 8469TIP3    H249603   1.025   5.194   6.463  1.3902  1.1741 -1.4068
 8470TIP3   OH249604   1.780   0.920   8.803 -0.4462  0.2887  0.2006
 8470TIP3    H149605   1.788   0.886   8.714  2.1265  0.1325  0.4046
 8470TIP3    H249606   1.732   1.002   8.793 -2.7549 -1.0970 -0.8964
 8471TIP3   OH249607   1.360   5.302   7.905  0.0514 -0.0336  0.2054
 8471TIP3    H149608   1.346   5.210   7.927  2.4135 -0.3185  0.7177
 8471TIP3    H249609   1.314   5.350   7.974 -1.0787 -0.7994  0.0180
 8472TIP3   OH249610   0.778   1.117   7.101 -0.1135  0.3218 -0.0814
 8472TIP3    H149611   0.844   1.187   7.098 -0.7018  0.9124  0.3746
 8472TIP3    H249612   0.724   1.138   7.178 -0.7840 -0.1935 -0.3983
 8473TIP3   OH249613   0.032   0.523   6.743 -0.1282 -0.1175  0.4478
 8473TIP3    H149614   0.073   0.541   6.828 -0.8310  1.3700  0.5036
 8473TIP3    H249615   0.098   0.547   6.679 -0.3734  0.9223  0.5604
 8474TIP3   OH249616   1.913   5.962   8.364  0.0775 -0.0205  0.1356
 8474TIP3    H149617   1.868   6.047   8.362  0.6054  0.2514 -0.9701
 8474TIP3    H249618   1.900   5.926   8.276 -0.3975 -1.2415  0.6788
 8475TIP3   OH249619   2.399   1.995   6.923  0.4946 -0.3001  0.2687
 8475TIP3    H149620   2.306   2.013   6.936  0.6425  0.1491  0.7291
 8475TIP3    H249621   2.404   1.899   6.923  0.2217 -0.3365  1.7022
 8476TIP3   OH249622   3.289   0.503   7.161 -0.4360  0.2131 -0.3640
 8476TIP3    H149623   3.287   0.576   7.099  1.1250 -0.1089 -0.8579
 8476TIP3    H249624   3.330   0.431   7.111 -2.1304 -1.0791  0.0347
 8477TIP3   OH249625   0.805   2.981   9.573 -0.3492  1.1716  0.2575
 8477TIP3    H149626   0.884   3.033   9.557  0.8985 -0.9200 -0.7145
 8477TIP3    H249627   0.757   2.983   9.490  0.0582  0.2249 -0.0111
 8478TIP3   OH249628   2.593   4.559   9.568  0.3086  0.1527  0.0941
 8478TIP3    H149629   2.559   4.648   9.578  1.0922  0.6442 -1.3587
 8478TIP3    H249630   2.670   4.557   9.625  0.8163  0.7033 -0.5663
 8479TIP3   OH249631   6.657   5.003  10.068 -0.6285 -0.1421  0.0913
 8479TIP3    H149632   6.656   4.924  10.122 -1.2185  0.4494  0.9702
 8479TIP3    H249633   6.738   5.048  10.092  0.4980 -1.1796 -1.5098
 8480TIP3   OH249634   3.243   4.910   8.070 -0.4130  0.3084 -0.4447
 8480TIP3    H149635   3.168   4.940   8.121  0.6047  0.2094  1.2131
 8480TIP3    H249636   3.206   4.858   7.999 -1.8941 -0.0501  0.5463
 8481TIP3   OH249637   6.364   5.732   7.454  0.0160  0.3237  0.3487
 8481TIP3    H149638   6.358   5.812   7.508  0.0931  0.5292  0.0560
 8481TIP3    H249639   6.346   5.661   7.515 -0.8378  0.6159  0.4465
 8482TIP3   OH249640   6.639   1.223   7.189  0.2392 -0.1619  0.0622
 8482TIP3    H149641   6.609   1.159   7.125  0.3502  0.2711 -0.4296
 8482TIP3    H249642   6.685   1.171   7.255  0.6311 -0.5563 -0.5126
 8483TIP3   OH249643   2.073   0.969   8.837 -0.0275 -0.0264  0.2688
 8483TIP3    H149644   2.083   0.917   8.757 -1.1423 -0.8526  0.6359
 8483TIP3    H249645   1.978   0.970   8.852  0.1451  0.4516  1.3720
 8484TIP3   OH249646   3.315   2.238   9.659 -1.1855 -0.3453 -0.3005
 8484TIP3    H149647   3.239   2.213   9.712 -0.2920 -2.9883 -0.1263
 8484TIP3    H249648   3.341   2.157   9.616 -0.2520  1.1593 -2.7317
 8485TIP3   OH249649   0.967   1.258   8.151 -0.5641 -0.3155 -0.3859
 8485TIP3    H149650   0.984   1.177   8.199 -0.2437  1.2660  2.3598
 8485TIP3    H249651   0.891   1.237   8.096 -1.6956 -1.9609  1.6517
 8486TIP3   OH249652   3.077   2.508   7.694 -0.5563 -0.5382  0.0068
 8486TIP3    H149653   3.015   2.580   7.695 -1.2114 -1.0187 -2.0544
 8486TIP3    H249654   3.107   2.503   7.603  1.3748 -1.2821  0.6324
 8487TIP3   OH249655   6.018   6.322   7.661 -0.3760 -0.2001 -0.7310
 8487TIP3    H149656   5.952   6.284   7.603  0.3634  0.9219 -2.4084
 8487TIP3    H249657   6.056   6.394   7.610  0.6875  0.5190  0.9780
 8488TIP3   OH249658   0.189   1.123   7.913 -0.1440  0.4949 -0.1079
 8488TIP3    H149659   0.130   1.180   7.864 -1.1827 -0.7882 -0.4058
 8488TIP3    H249660   0.166   1.139   8.005 -0.9759  0.0177 -0.2213
 8489TIP3   OH249661   1.119   4.019   9.390  0.1098  0.0735 -0.3785
 8489TIP3    H149662   1.208   3.984   9.384 -0.3404 -1.1166 -0.4776
 8489TIP3    H249663   1.116   4.060   9.477  0.8794  0.5145 -0.5485
 8490TIP3   OH249664   3.780   4.740   9.101  0.2803 -0.1947  0.0628
 8490TIP3    H149665   3.831   4.790   9.037  1.1270 -0.2751  0.6727
 8490TIP3    H249666   3.841   4.720   9.171 -0.8998  0.7572  1.4030
 8491TIP3   OH249667   5.873   3.370   8.935  0.1496  0.0507  0.1809
 8491TIP3    H149668   5.946   3.369   8.875 -1.3697 -2.3861 -1.8265
 8491TIP3    H249669   5.803   3.416   8.888 -0.7571 -1.0130  0.4360
 8492TIP3   OH249670   5.507   4.235   7.348  0.6514  0.1963 -0.1856
 8492TIP3    H149671   5.447   4.199   7.413  0.4140 -0.4949 -0.7829
 8492TIP3    H249672   5.502   4.175   7.273 -1.1383  2.3754 -1.9626
 8493TIP3   OH249673   3.468   6.097   7.804 -0.1057 -0.4554  0.5855
 8493TIP3    H149674   3.451   6.076   7.896 -2.2807  0.1361  0.3627
 8493TIP3    H249675   3.521   6.023   7.773  2.0101  0.0396  2.6304
 8494TIP3   OH249676   6.304   2.298   7.127  0.4020 -0.3615  0.7590
 8494TIP3    H149677   6.233   2.243   7.094 -0.0568 -0.1313  1.3435
 8494TIP3    H249678   6.282   2.386   7.098  0.8989 -0.4138  0.2128
 8495TIP3   OH249679   3.926   2.095   7.323  0.3734 -0.0035 -0.7103
 8495TIP3    H149680   3.896   2.186   7.332 -0.2807 -0.1891 -0.9895
 8495TIP3    H249681   3.966   2.091   7.236 -0.0400 -0.1059 -0.8966
 8496TIP3   OH249682   5.308   0.622   6.464  0.3780  0.4849  0.5118
 8496TIP3    H149683   5.247   0.659   6.528  1.0671  1.8671  0.3935
 8496TIP3    H249684   5.351   0.698   6.425  1.8799 -0.4374  0.3009
 8497TIP3   OH249685   0.972   1.837   9.938 -0.0588 -0.0979 -0.3218
 8497TIP3    H149686   0.930   1.822   9.853 -0.2033 -1.3294 -0.0452
 8497TIP3    H249687   0.933   1.771   9.996  0.3342  0.4657  0.6046
 8498TIP3   OH249688   5.043   4.867   8.693 -0.2379  0.2383 -0.0299
 8498TIP3    H149689   5.042   4.789   8.748 -1.1811 -0.0902 -0.4933
 8498TIP3    H249690   5.012   4.837   8.607 -2.0171  1.3583  0.1627
 8499TIP3   OH249691   5.082   0.697   6.604 -0.5244  0.5048 -0.7124
 8499TIP3    H149692   5.056   0.647   6.681  0.3844 -0.1241 -0.7997
 8499TIP3    H249693   5.000   0.726   6.564 -1.0757 -1.2158 -0.8704
 8500TIP3   OH249694   3.757   4.604   9.499 -0.2812 -0.4309 -0.4445
 8500TIP3    H149695   3.668   4.580   9.474 -0.8396 -0.4481  1.4204
 8500TIP3    H249696   3.748   4.640   9.587  1.2425  1.8073 -1.1145
 8501TIP3   OH249697   2.333   1.870   8.495  0.4351 -0.8741 -0.1067
 8501TIP3    H149698   2.301   1.954   8.463  2.1916 -0.3455 -0.5473
 8501TIP3    H249699   2.261   1.809   8.477 -1.1492  0.6127  0.8310
 8502TIP3   OH249700   1.628   2.803  10.462  0.7380 -0.2911  0.5190
 8502TIP3    H149701   1.602   2.856  10.386 -0.0490  0.5841  1.3686
 8502TIP3    H249702   1.723   2.813  10.466  0.8731 -0.8478 -0.6906
 8503TIP3   OH249703   5.373   1.313   8.709 -0.3260 -0.3293  0.1189
 8503TIP3    H149704   5.441   1.272   8.762 -0.2773 -0.6319 -0.1735
 8503TIP3    H249705   5.378   1.406   8.730  0.8956 -0.1832 -0.6908
 8504TIP3   OH249706   2.131   4.651   9.998 -0.1620  0.3584 -0.1166
 8504TIP3    H149707   2.195   4.707  10.041  1.0465 -0.9978 -0.0716
 8504TIP3    H249708   2.067   4.631  10.066  0.5982 -0.0832  0.4848
 8505TIP3   OH249709   1.588   0.205   7.363  0.0460  0.2574 -0.2461
 8505TIP3    H149710   1.547   0.128   7.403 -0.6764  1.1059  0.6736
 8505TIP3    H249711   1.521   0.240   7.305  1.1635 -1.1114 -2.5119
 8506TIP3   OH249712   6.536   2.973   9.114 -0.0486  0.1874 -0.2754
 8506TIP3    H149713   6.554   3.036   9.044 -1.2514  2.5436  1.3756
 8506TIP3    H249714   6.486   3.023   9.179 -0.4806 -2.3350  1.4925
 8507TIP3   OH249715   5.216   6.023   8.797  0.1976  0.4395  0.0763
 8507TIP3    H149716   5.124   6.022   8.773  0.3409 -0.3932 -0.4874
 8507TIP3    H249717   5.220   6.074   8.879 -0.7646  0.3821  0.1623
 8508TIP3   OH249718   0.709   1.966   6.630 -0.9057  0.0619  0.1793
 8508TIP3    H149719   0.620   1.935   6.648 -0.6929 -0.3965  0.4311
 8508TIP3    H249720   0.747   1.982   6.717 -0.9128  0.7513  0.0641
 8509TIP3   OH249721   1.338   1.149   7.933 -0.3729 -0.0670 -0.2108
 8509TIP3    H149722   1.280   1.095   7.879  0.0248  0.0747 -0.7782
 8509TIP3    H249723   1.284   1.224   7.959 -0.9289 -0.7164  0.5749
 8510TIP3   OH249724   6.203   5.022   7.054  0.4358  0.0611 -0.3640
 8510TIP3    H149725   6.180   5.042   6.963  0.7035  0.8540 -0.2648
 8510TIP3    H249726   6.144   4.951   7.079  0.1991 -0.0013 -1.0791
 8511TIP3   OH249727   3.269   0.026   7.653  0.1403  0.2888  0.2773
 8511TIP3    H149728   3.194   0.026   7.593 -1.4029 -0.5527  2.0983
 8511TIP3    H249729   3.266   0.112   7.695 -1.1638 -0.4737  1.8640
 8512TIP3   OH249730   4.827   4.347   8.101 -0.2081 -0.5980 -0.0072
 8512TIP3    H149731   4.773   4.420   8.070  0.0516 -0.0405  0.8207
 8512TIP3    H249732   4.849   4.370   8.191  2.9274  0.0829 -0.8307
 8513TIP3   OH249733   4.446   6.415   8.354  0.1028  0.1012 -0.0752
 8513TIP3    H149734   4.447   6.472   8.277  2.1793 -0.8589 -0.8165
 8513TIP3    H249735   4.516   6.352   8.339  0.6734 -0.0521  2.6595
 8514TIP3   OH249736   3.565   5.364   7.737  0.0438 -0.2698 -0.0186
 8514TIP3    H149737   3.476   5.394   7.722  0.2909  1.0782  0.9877
 8514TIP3    H249738   3.618   5.415   7.676  0.1850 -0.7068 -0.2659
 8515TIP3   OH249739   5.837   1.226   8.655 -0.5470 -0.2775  0.2366
 8515TIP3    H149740   5.930   1.240   8.636 -0.3897  0.6491  1.5501
 8515TIP3    H249741   5.791   1.279   8.590 -0.2769 -2.3968 -1.8208
 8516TIP3   OH249742   5.520   4.462   7.846  0.8044 -0.5125  0.2739
 8516TIP3    H149743   5.568   4.383   7.822 -0.6407 -1.0551 -0.9772
 8516TIP3    H249744   5.468   4.483   7.768 -0.6390  0.3064  1.4130
 8517TIP3   OH249745   4.080   3.253   9.046 -0.4146 -0.4620  0.3131
 8517TIP3    H149746   4.070   3.196   8.969 -0.0999 -1.3370  0.9082
 8517TIP3    H249747   4.169   3.239   9.076 -1.0870 -1.5759  1.9387
 8518TIP3   OH249748   5.915   2.616   6.858  0.0280 -0.4051  0.1913
 8518TIP3    H149749   5.992   2.564   6.836 -1.9804 -4.2318  1.3607
 8518TIP3    H249750   5.934   2.652   6.945  0.6975 -0.8434  0.2285
 8519TIP3   OH249751   2.145   0.161   9.699  0.0546 -0.2591  0.0908
 8519TIP3    H149752   2.178   0.248   9.723  1.1690 -0.2807 -1.2196
 8519TIP3    H249753   2.050   0.170   9.700  0.1607  1.2292 -0.8550
 8520TIP3   OH249754   2.411   5.596   8.694 -0.3874  0.0547 -0.1473
 8520TIP3    H149755   2.406   5.664   8.627  1.1853 -0.4716 -0.8505
 8520TIP3    H249756   2.398   5.642   8.777  2.1845  1.5325 -0.4664
 8521TIP3   OH249757   0.664   0.305   9.061  0.6077 -0.3314 -0.4238
 8521TIP3    H149758   0.742   0.290   9.007  1.2354  0.2527  0.2998
 8521TIP3    H249759   0.592   0.306   8.998  0.8449 -3.2504 -0.8648
 8522TIP3   OH249760   3.004   2.828   9.520  0.6759  0.6852 -0.0521
 8522TIP3    H149761   2.971   2.917   9.511 -1.6330 -0.2365 -1.5295
 8522TIP3    H249762   3.049   2.811   9.437  0.8299  0.3711  0.0960
 8523TIP3   OH249763   2.750   3.628   7.265 -0.3104 -0.2664  0.1360
 8523TIP3    H149764   2.725   3.539   7.289  0.2878  0.1524  2.6032
 8523TIP3    H249765   2.732   3.634   7.171 -1.4547 -2.5915  0.1463
 8524TIP3   OH249766   0.676   0.012   7.506  0.4280  0.0766  0.2164
 8524TIP3    H149767   0.650  -0.031   7.424 -0.1209 -0.5426  0.7019
 8524TIP3    H249768   0.625   0.093   7.508 -0.9956 -0.7909  0.8190
 8525TIP3   OH249769   3.422   0.043   9.027 -0.0750 -0.1410 -0.2944
 8525TIP3    H149770   3.495  -0.003   8.984 -0.1475 -0.2287 -0.3248
 8525TIP3    H249771   3.462   0.084   9.103  0.1094  0.2440 -0.5954
 8526TIP3   OH249772   4.816   6.019   7.252  0.1597  0.0415 -0.0585
 8526TIP3    H149773   4.739   6.076   7.257 -0.1550 -0.2914 -0.9906
 8526TIP3    H249774   4.784   5.934   7.282  0.1210 -0.1336 -0.5871
 8527TIP3   OH249775   0.393   2.333   8.154  0.2329  0.2754  0.4840
 8527TIP3    H149776   0.375   2.319   8.061 -0.5849  1.1868  0.4792
 8527TIP3    H249777   0.482   2.299   8.167  0.6459  0.7923 -0.7935
 8528TIP3   OH249778   1.357   4.319   7.118 -0.6880 -0.2922 -0.2015
 8528TIP3    H149779   1.296   4.270   7.174  0.8836 -0.0744  1.8403
 8528TIP3    H249780   1.364   4.404   7.161  1.2372 -0.4128 -0.1759
 8529TIP3   OH249781   6.382   1.036  10.057  0.4748 -0.1808 -0.3339
 8529TIP3    H149782   6.325   0.999  10.124  1.0913 -0.1189  0.2312
 8529TIP3    H249783   6.448   1.085  10.105 -0.6392  2.2021 -1.0887
 8530TIP3   OH249784   4.392   0.933   8.011 -0.0199 -0.2847 -0.2099
 8530TIP3    H149785   4.441   0.852   8.030  1.6312  0.6036 -0.4956
 8530TIP3    H249786   4.318   0.904   7.957  0.9800 -1.5247 -0.9825
 8531TIP3   OH249787   3.311   4.806   7.444 -0.1558 -0.3476 -0.9481
 8531TIP3    H149788   3.228   4.761   7.459 -1.2867  1.7962 -0.5198
 8531TIP3    H249789   3.330   4.850   7.527  0.5993  0.4920 -1.5466
 8532TIP3   OH249790   3.108   2.102   8.295 -0.6126  0.1098 -0.0067
 8532TIP3    H149791   3.054   2.068   8.366  0.2569  1.0365  1.1393
 8532TIP3    H249792   3.103   2.197   8.305  1.8023  0.2345  0.6294
 8533TIP3   OH249793   3.986   2.788   7.801  0.1981  0.1590  0.5859
 8533TIP3    H149794   4.042   2.862   7.827  0.7974 -0.3586  0.7805
 8533TIP3    H249795   4.047   2.717   7.783 -0.1291  0.5569 -2.6274
 8534TIP3   OH249796   4.783   3.475   9.167 -0.5172  0.1775  0.3166
 8534TIP3    H149797   4.842   3.536   9.122  1.3772 -1.4054  0.5225
 8534TIP3    H249798   4.831   3.448   9.245 -1.2736 -1.5858  0.2274
 8535TIP3   OH249799   0.322   6.014   7.341  0.4426 -0.1909  0.0994
 8535TIP3    H149800   0.233   5.978   7.338  0.7825 -0.9972 -0.8537
 8535TIP3    H249801   0.341   6.023   7.434 -0.4699 -0.4364  0.3178
 8536TIP3   OH249802   2.961   0.733   8.815 -0.1876  0.0969 -0.2008
 8536TIP3    H149803   2.997   0.799   8.875  2.2292  0.9069 -2.3762
 8536TIP3    H249804   2.949   0.779   8.732 -0.6985 -1.6388 -1.1518
 8537TIP3   OH249805   3.394   6.106   7.112 -0.3078  0.2150  0.5636
 8537TIP3    H149806   3.384   6.105   7.017  2.2006 -0.1048  0.2533
 8537TIP3    H249807   3.388   6.014   7.138  2.0862 -0.0886  0.2687
 8538TIP3   OH249808   5.847   1.473   9.168 -0.3931  0.1949  0.5325
 8538TIP3    H149809   5.874   1.549   9.116 -1.5907  2.0020  2.3842
 8538TIP3    H249810   5.757   1.493   9.195 -0.7605 -1.9173  1.0620
 8539TIP3   OH249811   6.360   0.211   6.770  0.1393 -0.5435  0.2627
 8539TIP3    H149812   6.323   0.289   6.811 -0.4113 -0.6716  0.0226
 8539TIP3    H249813   6.455   0.218   6.784  0.1826  0.6206 -0.5361
 8540TIP3   OH249814   1.168   4.079   8.323  0.0187  0.2263  0.2075
 8540TIP3    H149815   1.255   4.064   8.288  0.9769  2.6766  1.2954
 8540TIP3    H249816   1.113   4.093   8.246  0.9184  0.2031 -0.4588
 8541TIP3   OH249817   6.429   5.687   9.670  0.6525  0.0460 -0.2651
 8541TIP3    H149818   6.442   5.690   9.765 -0.4599 -1.7923 -0.0179
 8541TIP3    H249819   6.496   5.626   9.638  1.9341  1.7014 -0.8949
 8542TIP3   OH249820   3.060   4.498   9.087  0.1141  0.1261 -0.3380
 8542TIP3    H149821   3.081   4.496   8.994  1.6434  0.9206 -0.0486
 8542TIP3    H249822   3.013   4.581   9.099  0.5295  0.3588 -0.2969
 8543TIP3   OH249823   5.054   1.235   7.391 -0.7931 -0.0152  0.2001
 8543TIP3    H149824   4.997   1.289   7.446  0.0005  0.9062  0.1550
 8543TIP3    H249825   5.114   1.298   7.350  0.0975 -0.9250  0.0601
 8544TIP3   OH249826   4.668   1.758   8.726  0.1915 -0.3772 -0.4143
 8544TIP3    H149827   4.595   1.705   8.693 -0.4525 -0.8367  1.6153
 8544TIP3    H249828   4.684   1.725   8.814 -1.0642  3.5405  1.5131
 8545TIP3   OH249829   3.393   5.141   8.044  0.2552  0.2150  0.6357
 8545TIP3    H149830   3.339   5.062   8.055  0.2916  0.2429  1.0337
 8545TIP3    H249831   3.332   5.214   8.056  0.1137  0.2561 -0.2583
 8546TIP3   OH249832   0.455   6.120   7.113 -0.5834 -0.1896 -0.3246
 8546TIP3    H149833   0.406   6.074   7.181 -0.8157 -0.4791 -0.6844
 8546TIP3    H249834   0.498   6.051   7.063 -2.3005 -0.1741 -1.9294
 8547TIP3   OH249835   2.249   3.020   7.078  0.3201  0.1535  0.3002
 8547TIP3    H149836   2.298   2.940   7.097 -1.2241 -0.5577  1.5854
 8547TIP3    H249837   2.157   2.994   7.087 -0.3451  1.3806 -2.1350
 8548TIP3   OH249838   2.229   4.275   6.442  0.0328 -0.0315  0.2334
 8548TIP3    H149839   2.299   4.217   6.473 -1.5482 -1.4615  1.2600
 8548TIP3    H249840   2.187   4.226   6.371 -0.0989  0.7129 -0.2129
 8549TIP3   OH249841   5.140   5.573   8.485 -0.4881 -0.0980  0.1916
 8549TIP3    H149842   5.162   5.480   8.485  0.5547  0.0632 -2.5537
 8549TIP3    H249843   5.045   5.575   8.498 -0.4974 -1.5229  0.4506
 8550TIP3   OH249844   2.499   0.557  17.399  0.6017  0.5036  0.1451
 8550TIP3    H149845   2.531   0.586  17.314 -0.1683 -0.4570 -0.4936
 8550TIP3    H249846   2.407   0.584  17.400  0.4895  0.1063  0.4887
 8551TIP3   OH249847   4.312   5.119   6.411  0.2414 -0.1461  0.0792
 8551TIP3    H149848   4.353   5.156   6.333  1.1228 -0.6388  0.2985
 8551TIP3    H249849   4.247   5.185   6.437 -1.1878 -0.6495 -1.9536
 8552TIP3   OH249850   6.111   4.307   6.934 -0.0760  0.1677  0.3700
 8552TIP3    H149851   6.176   4.239   6.917  1.2934  1.0054  1.9139
 8552TIP3    H249852   6.107   4.313   7.030 -1.8736  0.6912  0.3014
 8553TIP3   OH249853   2.535   2.179   6.418  0.4629 -0.4535  0.2744
 8553TIP3    H149854   2.473   2.174   6.491  0.7301  1.2143  0.6587
 8553TIP3    H249855   2.559   2.272   6.414  3.5251 -1.1206  0.6519
 8554TIP3   OH249856   3.166   4.212   8.551  0.1940  0.1543  0.2766
 8554TIP3    H149857   3.120   4.182   8.629  2.7762  1.0573  2.3008
 8554TIP3    H249858   3.128   4.299   8.533  0.4277  0.4833  1.3166
 8555TIP3   OH249859   5.478   1.874   7.000 -0.1524 -0.1294 -0.0416
 8555TIP3    H149860   5.498   1.807   6.935  1.3418  1.1812 -1.0113
 8555TIP3    H249861   5.386   1.896   6.985 -0.4763 -1.4662 -0.1368
 8556TIP3   OH249862   0.231   1.563  10.481 -0.5240  0.4554  0.1919
 8556TIP3    H149863   0.320   1.537  10.504 -0.9791 -0.3819  1.1135
 8556TIP3    H249864   0.237   1.593  10.391  0.3321 -1.4899 -0.4430
 8557TIP3   OH249865   1.486   2.922   6.522  0.0961 -0.4441 -0.2961
 8557TIP3    H149866   1.467   2.912   6.429  0.6673 -1.3792 -0.3241
 8557TIP3    H249867   1.582   2.916   6.528  0.6008  3.9789 -0.1602
 8558TIP3   OH249868   2.629   6.616   9.192 -0.6127  0.0271 -0.1014
 8558TIP3    H149869   2.592   6.628   9.279 -0.7904  0.7576 -0.2729
 8558TIP3    H249870   2.576   6.546   9.152 -0.4117 -0.4341  0.4396
 8559TIP3   OH249871   0.106   0.293   6.407 -0.4580 -0.2726 -0.0214
 8559TIP3    H149872   0.014   0.318   6.405 -0.1698  0.8637 -1.4364
 8559TIP3    H249873   0.109   0.207   6.364 -0.7383  0.3135 -1.2783
 8560TIP3   OH249874   2.778   5.529   7.654  0.0817  0.1789  0.4661
 8560TIP3    H149875   2.712   5.459   7.654 -0.7430  0.8983 -0.9351
 8560TIP3    H249876   2.728   5.608   7.634  1.1430  1.0243  1.0795
 8561TIP3   OH249877   3.429   4.779  10.238 -0.4544  0.4368 -0.1105
 8561TIP3    H149878   3.343   4.802  10.271 -0.7089  0.0585 -0.5034
 8561TIP3    H249879   3.456   4.705  10.291 -0.1277  0.9007  0.3829
 8562TIP3   OH249880   6.679   5.151  16.411  0.5055 -0.2171 -0.2796
 8562TIP3    H149881   6.695   5.218  16.345  0.8196 -0.9291 -0.9355
 8562TIP3    H249882   6.756   5.155  16.469 -0.5118  1.5403  1.0705
 8563TIP3   OH249883   1.191   0.975   9.202  0.2858 -0.1079 -0.0955
 8563TIP3    H149884   1.097   0.976   9.184 -0.3696 -0.5636  2.7380
 8563TIP3    H249885   1.220   0.887   9.179  0.1718  0.2159 -1.5358
 8564TIP3   OH249886   5.321   6.616   7.830  0.1722  0.4613 -0.6326
 8564TIP3    H149887   5.375   6.677   7.781  2.2790 -0.4904  0.3836
 8564TIP3    H249888   5.361   6.531   7.815 -2.3147 -0.6410 -1.4873
 8565TIP3   OH249889   1.803   1.949   8.359 -0.0272  0.1407 -0.2405
 8565TIP3    H149890   1.831   1.982   8.273  1.3438  0.3485  0.2593
 8565TIP3    H249891   1.757   2.023   8.399  2.0686  1.1575  0.4293
 8566TIP3   OH249892   6.588   2.308   7.005  0.1782  0.2895 -0.0506
 8566TIP3    H149893   6.610   2.363   7.081  1.9968  0.2537 -0.5212
 8566TIP3    H249894   6.667   2.259   6.987 -0.5483 -0.4422 -1.3851
 8567TIP3   OH249895   3.632   6.679   8.849 -0.3444  0.1952  0.3738
 8567TIP3    H149896   3.692   6.661   8.776  1.2727  0.5787  1.5558
 8567TIP3    H249897   3.620   6.774   8.846 -1.5035  0.0492 -0.2796
 8568TIP3   OH249898   4.996   5.660   7.383  0.7312  0.0690  0.5098
 8568TIP3    H149899   4.913   5.650   7.337  0.5793 -0.1357  0.8235
 8568TIP3    H249900   4.997   5.750   7.413  0.7357  0.1426  0.2906
 8569TIP3   OH249901   1.995   2.954   7.403 -0.3011 -0.4192  0.0641
 8569TIP3    H149902   1.910   2.912   7.417 -0.1829 -1.1121 -1.1253
 8569TIP3    H249903   1.978   3.021   7.336 -0.0379 -0.1113  0.3036
 8570TIP3   OH249904   4.520   3.417   8.508  0.3687 -0.2881 -0.4182
 8570TIP3    H149905   4.459   3.344   8.505  0.4353 -0.4490  1.3326
 8570TIP3    H249906   4.470   3.489   8.545  0.4770  0.4108 -1.5797
 8571TIP3   OH249907   6.022   4.234   9.281 -0.2816  0.5103 -0.0085
 8571TIP3    H149908   6.068   4.317   9.279 -0.2946  0.5071 -1.1689
 8571TIP3    H249909   6.089   4.170   9.305 -0.5554  0.9828  2.3072
 8572TIP3   OH249910   2.488   2.719   8.693  0.8311 -0.3539  0.0774
 8572TIP3    H149911   2.497   2.812   8.675  0.6461 -0.2427  0.5286
 8572TIP3    H249912   2.412   2.692   8.643  0.5300 -0.1288  0.4054
 8573TIP3   OH249913   4.877   5.403   7.948  0.4209  0.0221  0.3739
 8573TIP3    H149914   4.807   5.459   7.981 -0.1729 -0.4515 -0.0421
 8573TIP3    H249915   4.952   5.461   7.938  0.2569  0.4151  1.3778
 8574TIP3   OH249916   2.900   5.928   9.663 -0.2106  0.0650 -0.3264
 8574TIP3    H149917   2.892   5.846   9.614 -0.5464  0.2459 -0.5825
 8574TIP3    H249918   2.826   5.927   9.724 -0.3734  0.2947 -0.5147
 8575TIP3   OH249919   4.901   1.176   8.990 -0.3207  0.4484  0.5472
 8575TIP3    H149920   4.997   1.173   8.997 -0.1527 -2.0642 -1.2509
 8575TIP3    H249921   4.871   1.172   9.080  1.2573  1.1556  1.1524
 8576TIP3   OH249922   2.507   5.474   7.710  0.3731  0.3436  0.2588
 8576TIP3    H149923   2.426   5.524   7.712 -0.1145 -0.2706 -1.8422
 8576TIP3    H249924   2.481   5.384   7.730  0.1265 -0.2591 -2.4913
 8577TIP3   OH249925   1.393   5.342   7.272 -0.1864 -0.1233 -0.3859
 8577TIP3    H149926   1.391   5.399   7.195 -0.2600  1.7905  0.9625
 8577TIP3    H249927   1.478   5.300   7.269  0.2359  0.7421 -0.9786
 8578TIP3   OH249928   2.787   0.839   6.405 -0.3581  0.1388 -0.5818
 8578TIP3    H149929   2.807   0.757   6.451 -1.9007  0.3258  0.5060
 8578TIP3    H249930   2.697   0.828   6.374 -0.1650  0.9621 -1.4747
 8579TIP3   OH249931   4.477   0.819   6.507  0.1014  0.2668  0.0087
 8579TIP3    H149932   4.565   0.816   6.468 -0.9984 -1.2951 -2.6155
 8579TIP3    H249933   4.451   0.911   6.501 -0.1185  0.0981 -3.5154
 8580TIP3   OH249934   5.634   3.989   6.969 -0.6415  0.9428 -0.0562
 8580TIP3    H149935   5.629   3.927   6.896  0.9595 -1.2078  1.5232
 8580TIP3    H249936   5.696   4.055   6.940  0.6812 -0.3792 -0.3518
 8581TIP3   OH249937   2.402   6.446   9.096 -0.5396  0.0522 -0.3492
 8581TIP3    H149938   2.360   6.465   9.012 -0.0905 -0.8592 -0.7932
 8581TIP3    H249939   2.335   6.397   9.145 -0.4176 -0.3780 -0.6065
 8582TIP3   OH249940   5.173   0.744   8.834 -0.0102 -0.1192  0.3275
 8582TIP3    H149941   5.237   0.684   8.871 -0.2658 -0.3530  0.3943
 8582TIP3    H249942   5.191   0.828   8.877  0.3079 -0.1603  0.2768
 8583TIP3   OH249943   2.432   0.535   6.260 -0.0918 -1.1926  0.3569
 8583TIP3    H149944   2.423   0.483   6.180  0.9350 -0.9271  0.0516
 8583TIP3    H249945   2.386   0.484   6.327 -1.0894 -1.3434 -0.4326
 8584TIP3   OH249946   0.006   0.865   7.998  0.3573 -0.3092  0.7586
 8584TIP3    H149947   0.064   0.847   8.071  3.1183  0.1387 -1.1749
 8584TIP3    H249948   0.000   0.960   7.994 -0.7061 -0.3463  1.0244
 8585TIP3   OH249949   4.893   3.644   8.974 -0.4575  0.6472  0.9134
 8585TIP3    H149950   4.960   3.621   8.910 -0.1508  0.6335  1.2395
 8585TIP3    H249951   4.926   3.723   9.017  0.6675 -0.8284  2.9583
 8586TIP3   OH249952   0.941   0.848   8.042 -0.2691 -0.0428  0.2258
 8586TIP3    H149953   0.960   0.793   7.966  1.0378  1.5475 -0.6594
 8586TIP3    H249954   0.872   0.908   8.012  0.4988  0.8234  0.1490
 8587TIP3   OH249955   5.623   6.198   9.422  0.1131 -0.7565 -0.1374
 8587TIP3    H149956   5.538   6.159   9.402 -0.7775  0.5205  0.9295
 8587TIP3    H249957   5.612   6.291   9.402  1.7969 -0.8055 -1.5268
 8588TIP3   OH249958   2.238   5.978   8.180 -0.6567 -0.4320 -0.2657
 8588TIP3    H149959   2.210   5.999   8.091 -0.5362 -0.3079 -0.2754
 8588TIP3    H249960   2.274   6.060   8.214  0.5249 -0.8012 -0.5745
 8589TIP3   OH249961   2.690   5.825   7.356 -0.0751 -0.1499 -0.1703
 8589TIP3    H149962   2.690   5.803   7.449  0.2688  0.2606 -0.0715
 8589TIP3    H249963   2.683   5.740   7.311 -0.0227 -0.3639  0.2234
 8590TIP3   OH249964   2.580   3.916   7.282 -0.2803 -1.0269 -0.2810
 8590TIP3    H149965   2.628   3.972   7.343 -1.4011 -0.3764  0.0275
 8590TIP3    H249966   2.645   3.854   7.250  0.8737  0.1338 -0.2452
 8591TIP3   OH249967   2.249   3.599   7.596 -1.0091 -0.1146  0.0223
 8591TIP3    H149968   2.329   3.622   7.547 -0.3527 -1.2563  0.5045
 8591TIP3    H249969   2.222   3.515   7.559 -0.8807 -0.6712  1.1418
 8592TIP3   OH249970   4.368   1.564   7.818 -0.1064  0.1926  0.0779
 8592TIP3    H149971   4.458   1.583   7.844 -0.6285  1.4853  1.0276
 8592TIP3    H249972   4.372   1.476   7.782  1.7247  0.5917 -0.8222
 8593TIP3   OH249973   0.163   0.717   8.406 -0.2225  0.1857  0.1485
 8593TIP3    H149974   0.199   0.714   8.494  1.3981 -0.5650 -0.4929
 8593TIP3    H249975   0.164   0.810   8.383 -1.7884  0.5280  1.3257
 8594TIP3   OH249976   6.597   3.773   8.669  0.5129 -0.1060  0.6444
 8594TIP3    H149977   6.544   3.693   8.666 -0.4428  0.5258 -0.7554
 8594TIP3    H249978   6.556   3.827   8.736  0.0426 -0.0832  0.3469
 8595TIP3   OH249979   2.899   4.977   8.487  0.2175 -0.3389 -0.3736
 8595TIP3    H149980   2.965   5.043   8.468 -1.2660  0.9218 -1.3762
 8595TIP3    H249981   2.890   4.978   8.582  2.4486 -1.4123 -0.0820
 8596TIP3   OH249982   1.341   3.751   8.958 -0.3201 -0.5771  0.5543
 8596TIP3    H149983   1.346   3.702   8.876 -0.5297 -0.1132  0.2575
 8596TIP3    H249984   1.413   3.717   9.011  0.5133 -0.1240 -0.2509
 8597TIP3   OH249985   1.106   3.961   7.780 -0.2904  0.4147  0.4267
 8597TIP3    H149986   1.200   3.947   7.790  0.0650  1.1791 -1.5399
 8597TIP3    H249987   1.085   4.029   7.844  0.6247  0.7328  0.4018
 8598TIP3   OH249988   0.462   3.557   8.414  0.0860 -0.2507 -0.4217
 8598TIP3    H149989   0.401   3.522   8.479  0.3284  0.2780  0.1059
 8598TIP3    H249990   0.433   3.647   8.401  0.5477 -0.0988 -0.4178
 8599TIP3   OH249991   5.691   2.228  10.247 -0.4907  0.0586 -0.7668
 8599TIP3    H149992   5.664   2.218  10.338 -2.4544  0.9796 -1.2051
 8599TIP3    H249993   5.738   2.147  10.227 -0.1414 -0.2103  0.9978
 8600TIP3   OH249994   5.455   1.577   8.800 -0.1198  0.0608  0.3018
 8600TIP3    H149995   5.521   1.583   8.869 -0.3399 -1.4973  0.6711
 8600TIP3    H249996   5.383   1.631   8.831 -0.4872 -1.1486  1.6173
 8601TIP3   OH249997   2.324   2.585   8.509 -0.1418  0.3742  0.2327
 8601TIP3    H149998   2.358   2.499   8.484 -0.6627  0.2225  0.0216
 8601TIP3    H249999   2.356   2.644   8.440  1.2329  0.5863  1.0238
 8602TIP3   OH250000   2.822   2.920   7.482 -0.0805  0.0326  0.7438
 8602TIP3    H150001   2.786   2.843   7.438  1.7662 -1.1875  1.2241
 8602TIP3    H250002   2.813   2.991   7.419  0.7195 -1.2206 -0.8631
 8603TIP3   OH250003   6.645   6.532   6.542  0.1849  0.1990 -0.1121
 8603TIP3    H150004   6.577   6.543   6.608  1.0658  0.3633  0.7843
 8603TIP3    H250005   6.725   6.519   6.592  0.7482 -0.4705 -1.1494
 8604TIP3   OH250006   0.217   3.028   7.958 -0.2629  0.4872 -0.3339
 8604TIP3    H150007   0.132   3.021   7.914 -0.3177 -1.6642  0.0201
 8604TIP3    H250008   0.207   2.977   8.038  0.5291  2.4999  1.1445
 8605TIP3   OH250009   1.099   3.205   8.263 -0.7245 -0.0372  0.1638
 8605TIP3    H150010   1.194   3.197   8.266 -0.5894  1.3766 -0.0070
 8605TIP3    H250011   1.082   3.299   8.263 -2.1004 -0.2559 -0.4227
 8606TIP3   OH250012   5.074   2.143   7.922  0.0745 -0.7401  0.1609
 8606TIP3    H150013   5.084   2.139   8.017  0.9271 -0.5428  0.0907
 8606TIP3    H250014   4.992   2.098   7.904  0.3132 -1.5087  0.9207
 8607TIP3   OH250015   1.503   2.290   6.281  0.3042  0.1193  0.1903
 8607TIP3    H150016   1.532   2.375   6.246 -0.5231  0.5386  0.4825
 8607TIP3    H250017   1.407   2.297   6.282  0.2049 -1.0328 -0.2930
 8608TIP3   OH250018   4.592   1.890   8.454  1.1857 -0.4806 -0.0284
 8608TIP3    H150019   4.572   1.799   8.476 -0.3669 -0.0503  0.4424
 8608TIP3    H250020   4.513   1.939   8.479  1.4084  0.7885 -1.6746
 8609TIP3   OH250021   3.543   3.428   8.461  0.4141 -0.1539 -0.8347
 8609TIP3    H150022   3.565   3.344   8.421  0.4243 -0.0046 -1.1443
 8609TIP3    H250023   3.497   3.405   8.542  1.6774 -0.4772 -0.1802
 8610TIP3   OH250024   4.746   6.507   9.394 -0.0997 -0.2422  0.5762
 8610TIP3    H150025   4.803   6.519   9.470 -1.3163  0.1622  1.4375
 8610TIP3    H250026   4.733   6.595   9.359 -0.2636 -0.3249  0.4259
 8611TIP3   OH250027   6.042   0.491   8.069 -0.0243  0.4692 -0.0509
 8611TIP3    H150028   6.089   0.407   8.063  1.4809  1.2519  0.3134
 8611TIP3    H250029   5.958   0.474   8.025  0.9353 -0.7385 -1.5361
 8612TIP3   OH250030   6.494   4.389  10.684 -0.5350 -0.0934 -0.1200
 8612TIP3    H150031   6.450   4.462  10.727  0.5019  0.2300  0.4101
 8612TIP3    H250032   6.523   4.425  10.600  1.3893  0.6105  0.8014
 8613TIP3   OH250033   5.989   5.857   6.442 -0.0120 -0.1185 -0.4755
 8613TIP3    H150034   6.045   5.930   6.416  0.8147 -1.7169 -3.6062
 8613TIP3    H250035   5.904   5.897   6.461  1.2675  1.9728  1.1932
 8614TIP3   OH250036   0.658   1.706   7.025  0.4087  0.3593  0.0442
 8614TIP3    H150037   0.601   1.676   7.095 -0.4908  1.5105 -0.1733
 8614TIP3    H250038   0.741   1.727   7.068 -0.3746  1.7948  0.9040
 8615TIP3   OH250039   2.084   6.599   9.408  0.3592  0.7996  0.1401
 8615TIP3    H150040   2.048   6.636   9.327  0.1457  0.8105  0.2381
 8615TIP3    H250041   2.024   6.527   9.429  0.4197  0.7914  0.2846
 8616TIP3   OH250042   5.427   5.289   6.630  0.1617  0.4820 -0.2640
 8616TIP3    H150043   5.474   5.370   6.611 -0.1686  1.2236  1.7721
 8616TIP3    H250044   5.466   5.224   6.572  2.7212  1.3653  0.3304
 8617TIP3   OH250045   2.263   0.475   7.309  0.4219  0.5042  0.3047
 8617TIP3    H150046   2.169   0.485   7.321  0.3111  0.7472 -0.6929
 8617TIP3    H250047   2.281   0.384   7.336 -0.0713  0.4846  0.5869
 8618TIP3   OH250048   3.683   0.466   8.096  0.0581  0.4943  0.2749
 8618TIP3    H150049   3.701   0.386   8.047  0.6886  0.4612  0.5561
 8618TIP3    H250050   3.642   0.437   8.177  0.0965  0.4743  0.2867
 8619TIP3   OH250051   0.893   2.754   6.585 -0.7856 -0.1319 -0.7014
 8619TIP3    H150052   0.905   2.659   6.588 -0.6147 -0.2813 -3.5623
 8619TIP3    H250053   0.803   2.766   6.555 -0.4947  0.5970 -1.3037
 8620TIP3   OH250054   3.759   0.959   6.374  0.4282  0.0241 -0.0348
 8620TIP3    H150055   3.833   0.980   6.432  0.2977  2.6036 -0.6572
 8620TIP3    H250056   3.776   0.869   6.345  2.2014 -0.1898  1.4686
 8621TIP3   OH250057   5.791   3.134   7.856  0.0294 -0.0932  0.3965
 8621TIP3    H150058   5.823   3.150   7.767 -0.1293  1.0282  0.5192
 8621TIP3    H250059   5.867   3.153   7.912  0.1451 -0.8517  0.5044
 8622TIP3   OH250060   3.707   3.879   7.481 -0.0902 -0.9300  0.6488
 8622TIP3    H150061   3.744   3.808   7.429  0.2411  0.1225 -0.6253
 8622TIP3    H250062   3.616   3.884   7.453  0.1521 -0.1989 -0.0504
 8623TIP3   OH250063   4.341   0.546   9.040  0.4966  0.2536 -0.7432
 8623TIP3    H150064   4.363   0.634   9.070  1.4968 -0.2758  0.1476
 8623TIP3    H250065   4.259   0.525   9.085  0.8868  0.2752 -0.0134
 8624TIP3   OH250066   1.809   1.334   6.733 -0.2521 -0.3992 -0.2145
 8624TIP3    H150067   1.749   1.379   6.673  1.4152  1.0617 -0.8419
 8624TIP3    H250068   1.846   1.263   6.680 -0.7185 -0.7501 -0.0870
 8625TIP3   OH250069   6.484   2.088   7.202  0.2369  0.2438 -0.2291
 8625TIP3    H150070   6.508   2.123   7.288  0.1090 -0.8962  0.2971
 8625TIP3    H250071   6.428   2.155   7.163 -0.4543  0.4045  0.9805
 8626TIP3   OH250072   2.687   3.722   7.994 -0.0725 -0.2789 -0.1917
 8626TIP3    H150073   2.757   3.724   8.059  0.8193  1.4130 -1.1243
 8626TIP3    H250074   2.641   3.805   8.005 -1.1286 -0.8073 -0.4567
 8627TIP3   OH250075   6.304   4.128   8.402  0.2660 -0.5430 -0.5051
 8627TIP3    H150076   6.245   4.061   8.434  1.2709 -1.2010 -0.0029
 8627TIP3    H250077   6.387   4.083   8.389  1.8060  1.1131  2.5675
 8628TIP3   OH250078   6.138   5.316   8.259 -0.2623 -0.4359 -0.0104
 8628TIP3    H150079   6.076   5.370   8.309 -1.2196 -2.5585  1.2788
 8628TIP3    H250080   6.086   5.281   8.186 -0.3717 -1.4779  0.5416
 8629TIP3   OH250081   0.324   3.003   7.535 -0.4098  0.9532  0.2105
 8629TIP3    H150082   0.400   3.058   7.519 -0.8953  1.6511  0.2460
 8629TIP3    H250083   0.256   3.064   7.564 -0.9952  0.3523  0.1316
 8630TIP3   OH250084   0.913   5.344   6.526  0.2929  0.3235 -0.1988
 8630TIP3    H150085   0.877   5.303   6.604 -0.0120 -0.6237 -0.8207
 8630TIP3    H250086   0.929   5.435   6.552 -0.1056  0.1071  0.8580
 8631TIP3   OH250087   6.666   6.276   8.550  0.8471 -0.7053  0.1219
 8631TIP3    H150088   6.737   6.298   8.490 -0.2202  0.1836 -0.8698
 8631TIP3    H250089   6.692   6.193   8.589  1.7826 -1.0855 -1.2404
 8632TIP3   OH250090   0.239   5.511   8.498  0.7464  0.4854  0.0813
 8632TIP3    H150091   0.178   5.472   8.561  2.2873 -0.4084  1.0929
 8632TIP3    H250092   0.325   5.502   8.539  1.5603  1.8478 -1.2267
 8633TIP3   OH250093   5.958   3.141   9.388 -0.0810  0.2315 -0.5316
 8633TIP3    H150094   5.930   3.055   9.357  1.9969 -0.7863  0.2754
 8633TIP3    H250095   5.971   3.192   9.308  3.1346 -1.6956 -1.3726
 8634TIP3   OH250096   2.731   4.197   8.874  0.2653 -0.8021  0.3204
 8634TIP3    H150097   2.670   4.156   8.934  1.2556 -1.0795  1.1690
 8634TIP3    H250098   2.708   4.290   8.875 -2.5521 -1.3018 -2.2569
 8635TIP3   OH250099   2.309   0.446   8.165 -0.1831  0.1954  0.0455
 8635TIP3    H150100   2.268   0.533   8.167 -1.8728 -0.5299 -0.9355
 8635TIP3    H250101   2.352   0.442   8.080 -1.6522 -0.5331 -0.7183
 8636TIP3   OH250102   2.974   2.224   6.687  0.4907 -0.0991  0.0047
 8636TIP3    H150103   2.924   2.241   6.767  0.6087  0.8246 -0.1017
 8636TIP3    H250104   2.984   2.129   6.685  1.4841 -0.0727  1.7013
 8637TIP3   OH250105   4.685   1.091   8.397 -0.1681 -0.2910 -0.5152
 8637TIP3    H150106   4.765   1.075   8.446 -1.1944  0.0780  1.3988
 8637TIP3    H250107   4.713   1.098   8.306  1.7772 -1.4242 -0.0556
 8638TIP3   OH250108   4.509   1.583   8.543 -0.1354  0.4880 -0.0882
 8638TIP3    H150109   4.573   1.525   8.501 -0.3462  1.1525 -1.3829
 8638TIP3    H250110   4.424   1.542   8.525 -0.2306  0.8036 -0.3737
 8639TIP3   OH250111   1.017   5.854   6.872  0.1070  0.0600 -0.0663
 8639TIP3    H150112   0.961   5.908   6.928 -0.1271  1.6340 -1.7561
 8639TIP3    H250113   0.975   5.856   6.786  2.0728  0.2100 -1.0650
 8640TIP3   OH250114   1.419   6.499   9.043  0.1416 -0.0588 -0.0760
 8640TIP3    H150115   1.486   6.463   9.101  0.5796 -0.6404 -0.9270
 8640TIP3    H250116   1.340   6.501   9.097  0.2167 -1.8322  0.1543
 8641TIP3   OH250117   4.277   3.657   7.523 -0.4859 -0.1961 -0.3608
 8641TIP3    H150118   4.294   3.616   7.608 -0.0837  1.8462  0.6213
 8641TIP3    H250119   4.187   3.631   7.502 -0.2753 -1.4779  0.2306
 8642TIP3   OH250120   5.831   1.935   8.561 -0.0602  0.0810  0.1079
 8642TIP3    H150121   5.844   1.857   8.507 -2.1751  0.3648 -0.9178
 8642TIP3    H250122   5.803   1.901   8.646  1.1208 -0.3016  0.3664
 8643TIP3   OH250123   2.176   0.964   9.521 -0.1604  0.1525  0.1817
 8643TIP3    H150124   2.183   0.878   9.480 -2.5412 -0.7573  1.4867
 8643TIP3    H250125   2.267   0.994   9.528  0.7560 -2.2370 -0.3168
 8644TIP3   OH250126   5.086   2.223   6.937  0.2327  0.0147 -0.0993
 8644TIP3    H150127   5.000   2.261   6.954  0.1039 -1.0297  2.0035
 8644TIP3    H250128   5.090   2.214   6.842 -2.7250 -1.4574 -0.2342
 8645TIP3   OH250129   4.707   2.098   7.595 -0.1324  0.2919 -0.6308
 8645TIP3    H150130   4.619   2.093   7.633  0.5130  0.3107  0.9418
 8645TIP3    H250131   4.711   2.185   7.555 -1.0409  0.0345 -1.3155
 8646TIP3   OH250132   1.168   0.487   7.736 -0.2321 -0.0045 -0.4184
 8646TIP3    H150133   1.263   0.477   7.734 -0.2429  0.0050 -2.1114
 8646TIP3    H250134   1.134   0.400   7.714 -0.5793  0.2898 -1.0701
 8647TIP3   OH250135   0.992   6.147   9.433  0.5414  0.2411  0.2483
 8647TIP3    H150136   1.042   6.214   9.481 -0.6482 -0.2805  2.3481
 8647TIP3    H250137   0.906   6.186   9.421  0.6243  0.0805 -0.9027
 8648TIP3   OH250138   1.029   0.717   8.540  0.2226 -0.3829 -0.4303
 8648TIP3    H150139   1.000   0.808   8.539 -1.8171 -0.9886 -0.1742
 8648TIP3    H250140   1.011   0.685   8.452  2.2712 -0.2061 -0.9770
 8649TIP3   OH250141   6.037   4.789   7.085  0.1296  0.1364 -0.1133
 8649TIP3    H150142   6.071   4.700   7.097 -0.5984 -0.0654  0.5490
 8649TIP3    H250143   5.943   4.780   7.099 -0.1686  0.7507 -1.5294
 8650TIP3   OH250144   3.935   4.291   7.653 -0.0861 -0.4135  0.5474
 8650TIP3    H150145   3.969   4.379   7.667 -0.2164 -0.2905  0.1136
 8650TIP3    H250146   3.875   4.277   7.726  1.7943 -1.1130  2.0185
 8651TIP3   OH250147   6.289   5.358   8.941  0.2587 -0.4361  0.0209
 8651TIP3    H150148   6.261   5.284   8.888 -2.2335  0.8341 -0.5607
 8651TIP3    H250149   6.294   5.431   8.880  1.8149  0.1233  0.7479
 8652TIP3   OH250150   4.485   1.688   7.094 -0.9294 -0.3016 -0.2411
 8652TIP3    H150151   4.468   1.594   7.082  0.7377 -0.7650  0.7737
 8652TIP3    H250152   4.412   1.731   7.049 -1.9384 -2.0791 -0.4001
 8653TIP3   OH250153   0.354   5.123   7.263 -0.0025 -0.2930  0.2804
 8653TIP3    H150154   0.325   5.101   7.351 -0.9890  2.0364  0.6098
 8653TIP3    H250155   0.275   5.154   7.219  0.1316 -2.7916 -1.9876
 8654TIP3   OH250156   4.305   3.247   9.425  0.1761  0.0511 -0.0909
 8654TIP3    H150157   4.298   3.160   9.385 -0.2616 -0.3246  0.7670
 8654TIP3    H250158   4.380   3.240   9.484 -1.0866 -0.4251  1.5428
 8655TIP3   OH250159   1.297   4.308   8.445 -0.0025 -0.3702  0.5349
 8655TIP3    H150160   1.249   4.240   8.399  1.4637 -0.9679 -0.1774
 8655TIP3    H250161   1.274   4.296   8.537 -0.2031 -1.4566  0.3516
 8656TIP3   OH250162   0.428   0.565   9.290  0.0160  0.0744  0.1321
 8656TIP3    H150163   0.390   0.483   9.324  0.0408 -0.0455 -0.1310
 8656TIP3    H250164   0.519   0.563   9.318 -0.3982  0.8313  1.6372
 8657TIP3   OH250165   6.706   5.119   8.210 -0.1252 -0.4277 -0.0807
 8657TIP3    H150166   6.629   5.160   8.171  0.5302  1.2785  0.3658
 8657TIP3    H250167   6.762   5.097   8.135 -0.5007 -0.5696 -0.3240
 8658TIP3   OH250168   3.665   5.226   8.270 -0.3047 -0.2857 -0.6291
 8658TIP3    H150169   3.748   5.232   8.222  0.5211  1.0689  0.8540
 8658TIP3    H250170   3.663   5.135   8.302 -0.8729 -1.2228 -3.0783
 8659TIP3   OH250171   0.690   1.790   7.375 -0.4722 -0.3843  0.2483
 8659TIP3    H150172   0.628   1.812   7.444 -2.4162  0.0466 -1.5289
 8659TIP3    H250173   0.689   1.694   7.372 -0.1841 -0.4155  0.9428
 8660TIP3   OH250174   6.323   3.246   8.673  0.0502 -0.0037 -0.5189
 8660TIP3    H150175   6.409   3.209   8.653 -0.4398 -1.3956 -0.1664
 8660TIP3    H250176   6.336   3.341   8.666  2.3465  0.0398  2.1773
 8661TIP3   OH250177   3.945   2.230   8.595 -0.4558  0.2436 -0.5421
 8661TIP3    H150178   3.927   2.312   8.639  0.4831 -1.0210  2.4164
 8661TIP3    H250179   4.025   2.197   8.636 -0.7663 -2.1192 -1.6634
 8662TIP3   OH250180   2.438   2.083   8.298 -0.3740 -0.3722  0.0231
 8662TIP3    H150181   2.433   1.989   8.281 -0.7580 -0.3552  0.0261
 8662TIP3    H250182   2.459   2.122   8.214 -1.6186 -0.3442 -0.2983
 8663TIP3   OH250183   2.884   0.583   7.921  0.0763 -0.4108  0.3573
 8663TIP3    H150184   2.930   0.667   7.928 -0.2937 -0.3306  2.4712
 8663TIP3    H250185   2.829   0.592   7.843  0.1508  1.2718  0.4640
 8664TIP3   OH250186   1.349   1.819   7.813  0.6451  0.2159 -0.0262
 8664TIP3    H150187   1.295   1.865   7.876  1.0585  1.2657 -0.4180
 8664TIP3    H250188   1.423   1.877   7.797  1.4474 -0.8060 -0.1603
 8665TIP3   OH250189   0.730   3.179   8.435 -0.8988  0.2843  0.1711
 8665TIP3    H150190   0.811   3.139   8.467 -1.4094 -1.7223 -0.8386
 8665TIP3    H250191   0.734   3.269   8.464  2.1136  0.4891 -0.5666
 8666TIP3   OH250192   5.070   2.663   6.312  0.0241  0.3476 -0.2560
 8666TIP3    H150193   5.082   2.585   6.258  0.3238  0.2168 -0.0044
 8666TIP3    H250194   5.034   2.630   6.394 -1.4969  0.6656 -0.7575
 8667TIP3   OH250195   0.233   5.397   6.679 -0.3024  0.5103  0.4954
 8667TIP3    H150196   0.168   5.352   6.625  0.9521  0.9108 -1.4281
 8667TIP3    H250197   0.230   5.488   6.648  1.0281  0.5657  0.5069
 8668TIP3   OH250198   5.450   2.257   9.148 -0.5617 -0.1751  0.0893
 8668TIP3    H150199   5.422   2.271   9.238  0.8391  1.0905  0.3645
 8668TIP3    H250200   5.494   2.338   9.123  2.9446 -1.9814 -0.2481
 8669TIP3   OH250201   1.568   6.706   8.314 -0.0906  0.0670 -0.5523
 8669TIP3    H150202   1.486   6.751   8.335 -0.0768  0.9034 -2.1270
 8669TIP3    H250203   1.634   6.749   8.368 -0.4516  0.3946 -0.3667
 8670TIP3   OH250204   5.136   1.193   6.950 -0.0970  0.3945  0.5184
 8670TIP3    H150205   5.120   1.129   7.018  1.1595  0.5964  1.0404
 8670TIP3    H250206   5.232   1.196   6.941 -0.2081  0.6938 -0.9391
 8671TIP3   OH250207   1.645   3.957   8.599  0.1262 -0.4120 -0.1752
 8671TIP3    H150208   1.697   4.021   8.648  0.2260 -0.5595 -0.0873
 8671TIP3    H250209   1.577   4.009   8.556 -0.6389 -0.4041  1.0083
 8672TIP3   OH250210   5.515   4.420   7.120 -0.1097 -0.3340  0.0898
 8672TIP3    H150211   5.594   4.368   7.137  0.6326  0.9853  0.9065
 8672TIP3    H250212   5.522   4.445   7.027 -0.9447 -2.3707 -0.5768
 8673TIP3   OH250213   5.139   2.811   6.677 -0.1821  0.2098 -0.2354
 8673TIP3    H150214   5.128   2.899   6.640  0.3513  0.4029  0.0527
 8673TIP3    H250215   5.228   2.811   6.712 -0.1660 -0.4624 -0.2697
 8674TIP3   OH250216   2.988   0.804   7.181  0.3819 -0.0384  0.3487
 8674TIP3    H150217   2.931   0.880   7.166  0.4079  0.0277  0.5787
 8674TIP3    H250218   3.068   0.825   7.133  1.1446  0.9717  1.9690
 8675TIP3   OH250219   4.024   6.506   8.245  0.1192 -0.0769  0.2662
 8675TIP3    H150220   4.027   6.427   8.300 -1.4879  1.6677  3.1457
 8675TIP3    H250221   4.095   6.561   8.279  0.6385  0.1101 -1.0831
 8676TIP3   OH250222   6.078   3.069   7.187 -0.1880  0.1332  0.8488
 8676TIP3    H150223   6.091   3.052   7.280  0.8852 -1.9193  0.3889
 8676TIP3    H250224   6.153   3.123   7.161  0.7325 -1.1438  0.7605
 8677TIP3   OH250225   0.070   5.852   9.062  0.5439 -0.0371  0.5282
 8677TIP3    H150226   0.032   5.767   9.086  0.1877  0.7911  3.3043
 8677TIP3    H250227  -0.003   5.913   9.067  0.9175  0.5493 -0.8357
 8678TIP3   OH250228   4.390   5.206   7.789 -0.6154  0.0579  0.1556
 8678TIP3    H150229   4.347   5.122   7.772 -0.6778  0.1944 -0.3496
 8678TIP3    H250230   4.360   5.264   7.720  0.5812  0.0790 -0.3833
 8679TIP3   OH250231   6.556   2.319   8.963  0.0997  0.5259 -0.2228
 8679TIP3    H150232   6.642   2.361   8.968 -0.4832  1.8508 -0.8845
 8679TIP3    H250233   6.576   2.225   8.956  1.4771  0.7837 -0.0951
 8680TIP3   OH250234   4.575   5.852   8.398  0.1656  0.2331  0.2597
 8680TIP3    H150235   4.608   5.935   8.364 -1.0170  0.2100 -1.0557
 8680TIP3    H250236   4.545   5.872   8.486  0.7629  0.9726  0.3062
 8681TIP3   OH250237   1.683   0.976   9.180 -0.3284 -0.1715 -0.0231
 8681TIP3    H150238   1.702   0.972   9.274  0.5502 -0.2152 -0.1887
 8681TIP3    H250239   1.758   0.932   9.139 -0.4949  0.2226 -0.7666
 8682TIP3   OH250240   1.789   2.501   9.495 -0.6192  0.4257  0.4736
 8682TIP3    H150241   1.766   2.592   9.478 -2.5206 -0.0371  0.3116
 8682TIP3    H250242   1.820   2.468   9.411  0.5087  1.0104  0.6374
 8683TIP3   OH250243   1.800   4.992   7.423 -0.3499 -0.0184 -0.2750
 8683TIP3    H150244   1.834   5.028   7.342  0.6871 -1.0621 -0.3343
 8683TIP3    H250245   1.800   4.897   7.409 -1.2077 -0.1570  0.5469
 8684TIP3   OH250246   3.671   2.933  10.127  0.3144  0.2657 -0.6502
 8684TIP3    H150247   3.580   2.962  10.128 -0.0561 -0.7980 -1.1692
 8684TIP3    H250248   3.667   2.843  10.159  1.3184  0.5194  0.2403
 8685TIP3   OH250249   6.117   1.098   9.712 -0.2311 -0.8879  0.7059
 8685TIP3    H150250   6.049   1.092   9.645 -0.8222  0.5252  1.1279
 8685TIP3    H250251   6.078   1.153   9.781  1.1085 -0.5551  1.2400
 8686TIP3   OH250252   2.908   4.081   8.467  0.1027  0.2661 -0.4586
 8686TIP3    H150253   2.821   4.111   8.441 -0.1476 -0.8066 -0.9024
 8686TIP3    H250254   2.920   4.117   8.555 -0.8652  0.2782 -0.3152
 8687TIP3   OH250255   0.625   1.821   7.972  0.5901 -0.7728 -0.1391
 8687TIP3    H150256   0.716   1.847   7.990  0.4531 -0.3184 -0.0762
 8687TIP3    H250257   0.591   1.795   8.057  0.5974 -0.7279 -0.1222
 8688TIP3   OH250258   0.901   3.876   6.402  0.2929 -0.4850 -0.3349
 8688TIP3    H150259   0.934   3.787   6.401  0.3810 -0.4651  0.2214
 8688TIP3    H250260   0.960   3.925   6.345 -0.8972 -1.1505 -2.2344
 8689TIP3   OH250261   5.833   3.259   7.570  0.3682 -0.1765  1.2634
 8689TIP3    H150262   5.825   3.343   7.616 -0.6000  0.9874 -0.8882
 8689TIP3    H250263   5.916   3.266   7.523  0.5586 -0.6800  1.5206
 8690TIP3   OH250264   0.642   6.486   8.243  0.0021  0.8555 -0.9834
 8690TIP3    H150265   0.623   6.420   8.311 -0.3325  2.3822  0.4807
 8690TIP3    H250266   0.731   6.515   8.263  0.1712  0.8116 -1.6569
 8691TIP3   OH250267   0.393   3.169   7.779  0.1819 -0.1625 -0.0604
 8691TIP3    H150268   0.330   3.132   7.839 -0.6878  0.8414 -0.3283
 8691TIP3    H250269   0.474   3.177   7.830 -0.5519  0.7010  0.9765
 8692TIP3   OH250270   5.804   4.890   7.979  0.4560 -0.0939  0.9127
 8692TIP3    H150271   5.893   4.906   7.946 -0.1643  0.2732 -0.6963
 8692TIP3    H250272   5.782   4.803   7.945 -0.8876  1.0479 -1.3589
 8693TIP3   OH250273   2.057   2.561   9.842 -0.1882  0.3594  0.4518
 8693TIP3    H150274   2.152   2.550   9.848 -0.1277  0.6468  0.0239
 8693TIP3    H250275   2.035   2.625   9.910  0.2900  2.4069 -1.2289
 8694TIP3   OH250276   6.696   5.597   9.066 -0.1945  0.0407 -0.2712
 8694TIP3    H150277   6.748   5.546   9.005 -2.0069  1.0290 -2.8102
 8694TIP3    H250278   6.614   5.548   9.076 -0.3485  0.4278  0.5138
 8695TIP3   OH250279   1.800   3.591   9.693  0.0712 -0.1349 -0.0764
 8695TIP3    H150280   1.844   3.550   9.618  0.1580 -2.0096  0.9259
 8695TIP3    H250281   1.869   3.600   9.759 -0.0662  1.2360 -0.0880
 8696TIP3   OH250282   3.743   3.484   6.710 -0.0534  0.0040  0.0187
 8696TIP3    H150283   3.832   3.481   6.675  0.8883  1.9433  2.0256
 8696TIP3    H250284   3.713   3.574   6.696 -2.0447 -0.7793 -1.2716
 8697TIP3   OH250285   4.118   1.494   6.774 -0.1035  0.0572 -0.2497
 8697TIP3    H150286   4.023   1.479   6.773 -0.0822 -0.3763  1.2263
 8697TIP3    H250287   4.150   1.436   6.843  1.0767  1.0576  0.0728
 8698TIP3   OH250288   4.100   0.870   9.243  0.5772  0.1457 -1.0187
 8698TIP3    H150289   4.074   0.884   9.334  1.1750 -0.1250 -0.8039
 8698TIP3    H250290   4.195   0.880   9.243  0.7667 -1.3999 -1.3134
 8699TIP3   OH250291   0.435   3.694   9.288  0.7194  0.3760 -0.1594
 8699TIP3    H150292   0.394   3.616   9.326  1.1447  0.1238 -0.2134
 8699TIP3    H250293   0.508   3.714   9.347  1.0165  0.3348 -0.5075
 8700TIP3   OH250294   2.559   0.423   6.578  0.6626 -0.0797 -0.5443
 8700TIP3    H150295   2.519   0.448   6.661  0.3617  1.7586 -1.1847
 8700TIP3    H250296   2.486   0.393   6.524  0.8985 -1.5566 -0.0767
 8701TIP3   OH250297   1.471   6.395   8.338 -0.4330 -0.0634  0.0841
 8701TIP3    H150298   1.486   6.479   8.294 -0.5636  0.4298  0.9479
 8701TIP3    H250299   1.521   6.402   8.420  0.8321 -1.4514 -0.5279
 8702TIP3   OH250300   3.922   4.888   6.512 -0.6230  0.0080 -0.3478
 8702TIP3    H150301   3.996   4.870   6.571 -1.3446 -3.4633 -0.2998
 8702TIP3    H250302   3.914   4.983   6.512  1.6631  0.3259  2.3416
 8703TIP3   OH250303   6.354   3.815   9.656  0.1778  1.0809  0.2474
 8703TIP3    H150304   6.299   3.766   9.717 -0.5438  3.0492  1.2993
 8703TIP3    H250305   6.441   3.814   9.696 -0.2417  2.1699  1.2586
 8704TIP3   OH250306   5.847   6.001   8.716  0.3666  0.2543 -0.5359
 8704TIP3    H150307   5.911   6.023   8.783  1.5066 -0.1085 -1.4745
 8704TIP3    H250308   5.762   6.006   8.761  1.0520  0.6282  0.7548
 8705TIP3   OH250309   6.717   0.709   9.086 -0.0574 -0.5193 -0.4627
 8705TIP3    H150310   6.767   0.739   9.162  1.1025 -0.7305 -1.1138
 8705TIP3    H250311   6.626   0.716   9.113  0.2110  1.8797  0.0451
 8706TIP3   OH250312   0.572   4.424   7.805 -0.1430 -0.3653 -0.1996
 8706TIP3    H150313   0.655   4.449   7.845  0.5915 -1.4552 -1.0074
 8706TIP3    H250314   0.590   4.341   7.761 -1.5415 -0.3899 -0.7724
 8707TIP3   OH250315   3.744   4.024   6.611  0.6774  0.4154 -0.1601
 8707TIP3    H150316   3.718   4.026   6.519 -0.2360  0.4835  0.0894
 8707TIP3    H250317   3.827   4.070   6.614 -0.7734  3.2420 -0.4795
 8708TIP3   OH250318   1.675   4.567   8.486 -0.0282 -0.6886  0.4650
 8708TIP3    H150319   1.701   4.485   8.528 -0.6648 -0.0231  2.2571
 8708TIP3    H250320   1.746   4.628   8.506 -0.6890 -0.1603  1.2795
 8709TIP3   OH250321   5.992   0.414   6.401  0.1129  0.6698  0.0667
 8709TIP3    H150322   6.073   0.429   6.450  0.4033 -1.0232  0.1831
 8709TIP3    H250323   5.922   0.444   6.460  0.5229 -0.3343  1.1087
 8710TIP3   OH250324   5.612   5.763   7.591 -0.1497  0.2888 -0.0369
 8710TIP3    H150325   5.592   5.704   7.663  1.7200  0.7615  0.9302
 8710TIP3    H250326   5.594   5.712   7.512 -1.7521 -0.3983  0.7429
 8711TIP3   OH250327   2.316   2.443   7.626 -0.4561 -0.2867  1.0686
 8711TIP3    H150328   2.385   2.502   7.657 -1.2636  0.5596  1.3378
 8711TIP3    H250329   2.238   2.473   7.673 -1.2985 -0.2939 -0.2799
 8712TIP3   OH250330   6.474   5.004   7.115 -0.0872 -0.5661 -0.2357
 8712TIP3    H150331   6.521   5.085   7.094 -1.0311  0.1702  0.4204
 8712TIP3    H250332   6.383   5.023   7.095 -0.0428 -2.3437 -2.5274
 8713TIP3   OH250333   1.837   0.767   7.023 -0.4731  0.1593  0.0848
 8713TIP3    H150334   1.845   0.720   6.940 -0.2681  1.4700 -0.6625
 8713TIP3    H250335   1.774   0.716   7.074  0.4428 -1.4262 -0.3230
 8714TIP3   OH250336   5.962   5.677   8.251  0.3052  0.3013  0.3393
 8714TIP3    H150337   5.986   5.627   8.329 -2.0074  1.1651  1.6977
 8714TIP3    H250338   5.922   5.612   8.193  0.3062 -0.0213  0.6969
 8715TIP3   OH250339   4.574   2.386   7.904  0.0294 -0.3342 -0.0783
 8715TIP3    H150340   4.521   2.352   7.976 -0.5723 -0.6642 -0.6603
 8715TIP3    H250341   4.654   2.333   7.905  0.4564  0.3055  0.9383
 8716TIP3   OH250342   1.550   4.891   8.191  0.2291  0.3384 -0.3798
 8716TIP3    H150343   1.624   4.953   8.195  0.7025 -0.2956  1.1996
 8716TIP3    H250344   1.493   4.917   8.263  1.6573 -2.4892  1.9718
 8717TIP3   OH250345   3.443   2.635   7.955  0.0729  0.0994  0.0047
 8717TIP3    H150346   3.394   2.711   7.985 -0.8644  0.6404 -2.6051
 8717TIP3    H250347   3.375   2.573   7.926  0.8503 -1.1804  0.8285
 8718TIP3   OH250348   2.394   3.246   7.379  0.6895  0.0466 -0.3503
 8718TIP3    H150349   2.348   3.169   7.411  1.3716 -0.2383 -0.0393
 8718TIP3    H250350   2.327   3.314   7.375  0.0661 -0.5716 -0.6861
 8719TIP3   OH250351   3.133   1.072   8.479 -0.3119  0.3974 -0.8551
 8719TIP3    H150352   3.108   1.041   8.392 -2.8573 -0.9176  0.2265
 8719TIP3    H250353   3.094   1.160   8.485 -0.2649  0.4266 -0.9730
 8720TIP3   OH250354   4.547   1.316   7.069 -0.2192 -0.7264  0.1806
 8720TIP3    H150355   4.483   1.294   7.137  0.0732 -0.3040  0.5904
 8720TIP3    H250356   4.630   1.280   7.101  0.4207  1.5307  1.1925
 8721TIP3   OH250357   2.668   0.600   9.523 -0.2112 -0.5331  0.0252
 8721TIP3    H150358   2.623   0.679   9.551  0.1282  0.0257 -0.9511
 8721TIP3    H250359   2.761   0.622   9.528 -0.1160  0.0524 -2.6327
 8722TIP3   OH250360   3.836   2.275   7.065 -0.6314  0.2104 -0.0021
 8722TIP3    H150361   3.843   2.249   7.157 -0.7963 -0.3940 -0.1594
 8722TIP3    H250362   3.797   2.200   7.021 -0.6162  0.5210 -0.5589
 8723TIP3   OH250363   3.111   3.672   8.905 -0.0111  0.3524 -0.5820
 8723TIP3    H150364   3.078   3.582   8.914 -2.5612  1.1630 -1.1176
 8723TIP3    H250365   3.191   3.672   8.957  0.0076 -2.1887 -0.4430
 8724TIP3   OH250366   6.434   5.129   6.760 -0.1505 -0.2032  1.1550
 8724TIP3    H150367   6.482   5.152   6.840 -0.4180  2.0953  0.7327
 8724TIP3    H250368   6.342   5.139   6.784 -0.2396  0.1806  0.6681
 8725TIP3   OH250369   4.929   4.996   6.708  0.0784  0.0604  0.2027
 8725TIP3    H150370   4.979   5.051   6.768 -1.5891  0.2729  1.4903
 8725TIP3    H250371   4.840   4.996   6.745 -0.9582 -0.0470 -2.1160
 8726TIP3   OH250372   3.462   2.250   8.372  0.8594  0.6928 -0.3235
 8726TIP3    H150373   3.428   2.282   8.288  1.9350  0.7127 -0.7670
 8726TIP3    H250374   3.549   2.216   8.351  0.5648 -0.6183  0.5373
 8727TIP3   OH250375   3.307   6.398   8.534 -0.6267  0.2153 -0.3111
 8727TIP3    H150376   3.364   6.443   8.596 -1.5151  1.4834 -0.3834
 8727TIP3    H250377   3.286   6.314   8.577  0.3344  0.2376  0.2160
 8728TIP3   OH250378   3.165   3.591   8.255 -0.2156 -0.1632  0.4134
 8728TIP3    H150379   3.251   3.561   8.223 -0.3171  0.3200 -0.3400
 8728TIP3    H250380   3.108   3.585   8.179 -0.7202  0.0386  0.7719
 8729TIP3   OH250381   2.817   6.207   7.577  0.0654 -0.0407 -0.4109
 8729TIP3    H150382   2.893   6.152   7.598  0.3043  0.6122  0.4855
 8729TIP3    H250383   2.807   6.198   7.482  0.3107 -1.3463 -0.3396
 8730TIP3   OH250384   1.996   4.407   6.554  0.3440 -0.4786 -0.5534
 8730TIP3    H150385   2.076   4.356   6.541  0.0905 -0.6036 -1.7259
 8730TIP3    H250386   1.969   4.386   6.643  2.8623  1.3594  0.7899
 8731TIP3   OH250387   6.114   2.948   8.345  0.4552 -0.3370 -0.4060
 8731TIP3    H150388   6.030   2.989   8.325  1.3946  2.0395  0.0729
 8731TIP3    H250389   6.149   2.920   8.261 -0.4751 -0.6717 -0.6898
 8732TIP3   OH250390   6.289   0.098   8.795 -0.0462  0.4102  0.0901
 8732TIP3    H150391   6.363   0.049   8.759  0.1262  0.0172  0.9457
 8732TIP3    H250392   6.283   0.068   8.886 -2.8859 -1.5364 -0.6215
 8733TIP3   OH250393   4.801   2.239   7.207  0.3628 -0.2248  0.5605
 8733TIP3    H150394   4.749   2.170   7.165 -0.9087  0.2446  1.3006
 8733TIP3    H250395   4.787   2.316   7.151  2.2841 -0.6609 -0.6217
 8734TIP3   OH250396   4.233   6.677   7.975  0.8552 -0.1204  0.3726
 8734TIP3    H150397   4.264   6.688   7.885  2.7953 -0.3922  0.9657
 8734TIP3    H250398   4.312   6.675   8.028 -0.1488 -1.7476  1.9217
 8735TIP3   OH250399   5.004   1.301   9.584  0.3566  0.1086 -0.0295
 8735TIP3    H150400   5.058   1.339   9.653  1.4705  0.1352 -0.8918
 8735TIP3    H250401   4.953   1.232   9.627  2.1872 -0.9483  0.5345
 8736TIP3   OH250402   0.220   0.498   7.309  0.0364  0.2911  0.2606
 8736TIP3    H150403   0.264   0.512   7.224  0.1392 -1.9679 -0.1275
 8736TIP3    H250404   0.136   0.457   7.286  1.6450 -4.1377  1.2041
 8737TIP3   OH250405   4.817   3.318   7.283 -0.3609  0.2077 -0.1690
 8737TIP3    H150406   4.847   3.296   7.371 -2.1957 -1.4558  0.1021
 8737TIP3    H250407   4.785   3.408   7.291 -1.6778 -0.3330  1.2545
 8738TIP3   OH250408   5.820   1.957  10.349  0.1798 -0.7529  0.0283
 8738TIP3    H150409   5.888   1.984  10.411 -0.4034  2.2246 -0.4727
 8738TIP3    H250410   5.846   1.997  10.266 -0.9969 -1.5350 -0.7457
 8739TIP3   OH250411   4.844   1.336   7.082 -0.4733  0.3683  0.1129
 8739TIP3    H150412   4.787   1.358   7.156 -0.3990 -0.6118  0.4795
 8739TIP3    H250413   4.927   1.310   7.123 -0.1792  0.5523 -0.3561
 8740TIP3   OH250414   5.478   5.246   8.613 -0.2970 -0.1029  0.1246
 8740TIP3    H150415   5.525   5.174   8.656  1.7861  0.6464 -0.7516
 8740TIP3    H250416   5.464   5.215   8.523 -0.1636  0.2367 -0.0164
 8741TIP3   OH250417   2.939   1.358   8.233 -0.0910  0.5493 -0.1405
 8741TIP3    H150418   2.844   1.355   8.233 -0.0938  0.4927  0.3580
 8741TIP3    H250419   2.964   1.330   8.321  0.3517  1.5530  0.0738
 8742TIP3   OH250420   3.884   0.080   6.864 -0.2042  0.1436  0.3918
 8742TIP3    H150421   3.850   0.014   6.924 -2.5073  0.4094 -0.5335
 8742TIP3    H250422   3.855   0.051   6.777  1.0973  0.9566 -0.3605
 8743TIP3   OH250423   2.826   3.440   8.325 -0.2978  0.2623  0.1491
 8743TIP3    H150424   2.765   3.369   8.343  0.7907 -0.3928  1.5009
 8743TIP3    H250425   2.903   3.397   8.287 -0.1563  0.9035 -0.3152
 8744TIP3   OH250426   0.189   2.923   6.953 -0.0666 -0.1167 -0.3708
 8744TIP3    H150427   0.125   2.895   7.019 -0.9375  0.5601 -0.9077
 8744TIP3    H250428   0.274   2.901   6.991 -0.5604  0.0799  0.8948
 8745TIP3   OH250429   4.536   5.061   9.273 -0.8574  0.0557 -0.4784
 8745TIP3    H150430   4.514   4.981   9.321  0.4267  1.5702  2.9894
 8745TIP3    H250431   4.613   5.038   9.221  0.6307 -0.6498  1.8644
 8746TIP3   OH250432   4.289   4.829   7.104  0.2810 -0.2754  0.2436
 8746TIP3    H150433   4.274   4.750   7.052 -0.5285 -0.4866  0.7784
 8746TIP3    H250434   4.233   4.818   7.181  2.2684 -0.5099  1.7481
 8747TIP3   OH250435   3.054   0.819   7.852 -0.3301  0.0574  0.0521
 8747TIP3    H150436   3.064   0.764   7.774  1.8191 -0.5055  0.6498
 8747TIP3    H250437   3.062   0.908   7.820  3.7394 -0.1933 -0.1382
 8748TIP3   OH250438   5.761   4.587   7.147  0.5813  0.5962  0.0522
 8748TIP3    H150439   5.744   4.681   7.140 -0.1865  0.3977 -1.0028
 8748TIP3    H250440   5.684   4.546   7.108 -0.5289 -0.5882  3.2231
 8749TIP3   OH250441   3.145   0.712   9.099  0.2813  0.2733  0.2462
 8749TIP3    H150442   3.105   0.691   9.183 -1.3356 -0.6884 -0.6997
 8749TIP3    H250443   3.081   0.767   9.054 -0.6667 -2.1820 -1.7328
 8750TIP3   OH250444   1.898   1.211   9.334  0.6995 -0.2636 -0.1913
 8750TIP3    H150445   1.864   1.250   9.253 -0.1942 -1.0453 -0.2173
 8750TIP3    H250446   1.941   1.130   9.306  0.1136 -0.6997  0.1217
 8751TIP3   OH250447   5.162   1.594   7.527  0.7823 -0.2725 -0.7823
 8751TIP3    H150448   5.153   1.517   7.583 -0.5551  1.0960  1.0118
 8751TIP3    H250449   5.177   1.666   7.588  0.6853  1.0892 -2.3142
 8752TIP3   OH250450   6.509   4.281   9.882  0.5918 -0.2011 -0.0011
 8752TIP3    H150451   6.593   4.292   9.926  0.0082  2.3206  0.6525
 8752TIP3    H250452   6.448   4.337   9.932 -0.9914 -0.3411 -1.6584
 8753TIP3   OH250453   0.329   3.632   7.438  0.2883 -0.5543  0.5599
 8753TIP3    H150454   0.275   3.626   7.360  1.7237  0.5612 -0.5953
 8753TIP3    H250455   0.294   3.566   7.497 -2.6308  0.4546  0.1231
 8754TIP3   OH250456   0.496   6.257   7.348  0.4375  0.5613  0.7275
 8754TIP3    H150457   0.499   6.246   7.253  1.4202 -1.4614  0.9383
 8754TIP3    H250458   0.492   6.168   7.382  0.5848  1.2369  2.6122
 8755TIP3   OH250459   4.013   3.175   9.489  0.3794 -0.4200  0.2430
 8755TIP3    H150460   4.047   3.088   9.508  1.3529 -0.6577 -2.2563
 8755TIP3    H250461   4.089   3.227   9.466 -0.4102  0.4517 -0.5079
 8756TIP3   OH250462   1.167   1.349   7.865 -0.7138 -0.0637 -0.1932
 8756TIP3    H150463   1.199   1.415   7.804  1.3825 -1.7463 -1.0477
 8756TIP3    H250464   1.123   1.284   7.810 -0.3436 -0.7263  0.2644
 8757TIP3   OH250465   3.367   4.891   7.688  0.2169 -0.2458 -0.0731
 8757TIP3    H150466   3.429   4.961   7.710 -0.3700  0.0611  0.6435
 8757TIP3    H250467   3.398   4.815   7.737  1.3947 -0.7797 -1.5672
 8758TIP3   OH250468   0.636   2.226   8.175  0.0884  0.5884  0.7997
 8758TIP3    H150469   0.708   2.287   8.159 -0.2998  0.7470 -0.5037
 8758TIP3    H250470   0.617   2.188   8.089 -0.2798 -0.7119  1.4265
 8759TIP3   OH250471   0.145   0.846   6.850 -0.1275  0.1479 -0.0309
 8759TIP3    H150472   0.060   0.844   6.805 -0.4337 -1.9133  0.5376
 8759TIP3    H250473   0.207   0.875   6.783 -0.9557 -0.4877 -1.1185
 8760TIP3   OH250474   5.244   2.034   8.727 -0.0422  0.1990 -0.1597
 8760TIP3    H150475   5.256   2.103   8.792 -0.3154  0.2228 -0.1302
 8760TIP3    H250476   5.159   1.995   8.750  0.7827 -1.1292  0.7363
 8761TIP3   OH250477   4.333   6.453   8.598  0.4859 -0.4837  0.6179
 8761TIP3    H150478   4.292   6.527   8.553 -1.0297 -0.7594  1.4898
 8761TIP3    H250479   4.384   6.409   8.530 -0.4352  0.0422 -0.4402
 8762TIP3   OH250480   4.934   1.639   8.978  0.1660  0.0175 -0.0156
 8762TIP3    H150481   4.849   1.599   8.959 -1.2437  2.5903  0.3044
 8762TIP3    H250482   4.949   1.622   9.071 -1.3120  1.6564  0.5730
 8763TIP3   OH250483   1.498   2.493   7.089 -0.2346  0.1737 -0.6419
 8763TIP3    H150484   1.434   2.519   7.024  0.0442  1.9034 -0.2608
 8763TIP3    H250485   1.450   2.432   7.146 -1.3966  1.0626 -0.6412
 8764TIP3   OH250486   5.409   5.061  15.760 -0.3604 -0.6689  0.2339
 8764TIP3    H150487   5.365   5.051  15.845  1.3639 -0.7525  1.1607
 8764TIP3    H250488   5.496   5.023  15.773  0.2134 -0.0082 -1.3549
 8765TIP3   OH250489   3.239   5.740   7.714  0.2109 -0.2899  0.0741
 8765TIP3    H150490   3.159   5.792   7.710 -0.3772 -1.0950  0.7548
 8765TIP3    H250491   3.214   5.662   7.765  1.5093 -0.4123  0.5694
 8766TIP3   OH250492   3.136   2.509   8.821  0.3663  0.0570  0.3282
 8766TIP3    H150493   3.086   2.469   8.750  1.1248  0.3925 -0.4076
 8766TIP3    H250494   3.100   2.468   8.900 -0.1420 -0.7043 -0.2678
 8767TIP3   OH250495   6.509   1.449   7.331  0.0963 -0.1388  0.0359
 8767TIP3    H150496   6.468   1.501   7.262 -0.2061 -0.2533  0.1242
 8767TIP3    H250497   6.526   1.364   7.290 -1.1280 -0.5902  0.4086
 8768TIP3   OH250498   1.995   0.804   8.471 -0.6117  0.0111  0.5780
 8768TIP3    H150499   1.949   0.793   8.388 -0.0784  0.3728  0.2335
 8768TIP3    H250500   1.930   0.781   8.537 -0.9820 -0.4682  0.0590
 8769TIP3   OH250501   6.654   2.001   6.995 -0.2794 -0.2937 -0.2366
 8769TIP3    H150502   6.584   2.033   7.052 -1.1356 -0.0801 -1.3703
 8769TIP3    H250503   6.723   2.068   7.002 -1.1912  0.7563 -0.9608
 8770TIP3   OH250504   5.851   0.608   7.250  0.4244 -0.4311 -0.0786
 8770TIP3    H150505   5.825   0.516   7.256  1.8052 -0.9154 -1.0486
 8770TIP3    H250506   5.803   0.650   7.322 -0.0565 -1.9395  0.5429
 8771TIP3   OH250507   2.136   4.153   6.893 -0.1301 -0.3331  0.0089
 8771TIP3    H150508   2.158   4.165   6.985  1.0210  0.6059 -0.3708
 8771TIP3    H250509   2.206   4.197   6.845 -0.6053 -0.9712 -1.3264
 8772TIP3   OH250510   3.987   3.098   6.485 -0.0130  0.5230  0.0301
 8772TIP3    H150511   4.051   3.055   6.541 -1.1606 -2.1121 -0.5317
 8772TIP3    H250512   4.031   3.106   6.400  0.8369  2.2302  0.5827
 8773TIP3   OH250513   1.519   0.698   6.798  0.0044 -0.3476 -0.2062
 8773TIP3    H150514   1.556   0.787   6.800 -0.6206 -0.0046 -1.9112
 8773TIP3    H250515   1.457   0.697   6.871  0.7399  0.2768  0.4513
 8774TIP3   OH250516   2.469   2.908   6.824  0.3226  0.1124  0.3054
 8774TIP3    H150517   2.549   2.906   6.771  0.0610 -1.1924 -0.0696
 8774TIP3    H250518   2.407   2.960   6.772  0.9919  1.3618  0.7244
 8775TIP3   OH250519   3.605   4.022   8.624  0.1177  0.3049  1.0342
 8775TIP3    H150520   3.516   4.005   8.655 -0.1748 -0.1575 -0.0274
 8775TIP3    H250521   3.652   3.940   8.642  1.1156  1.3875  4.0929
 8776TIP3   OH250522   6.296   6.225  15.451 -0.1157  0.6861 -0.7270
 8776TIP3    H150523   6.305   6.319  15.431  1.7031  0.7791  0.3015
 8776TIP3    H250524   6.256   6.224  15.538  1.3154  0.5836 -0.0453
 8777TIP3   OH250525   3.302   3.939   7.024 -0.1777  0.0134 -0.3495
 8777TIP3    H150526   3.269   3.852   7.046 -1.3691  0.3271 -0.8326
 8777TIP3    H250527   3.230   3.998   7.046  0.7547  0.9379  0.3430
 8778TIP3   OH250528   5.476   5.209   6.937 -0.0165  0.2228  0.2974
 8778TIP3    H150529   5.461   5.213   7.032 -3.0862  0.2318 -0.0941
 8778TIP3    H250530   5.455   5.297   6.906  1.1749  0.2779 -0.4174
 8779TIP3   OH250531   3.472   4.352   7.743  0.0097  0.2831 -0.7778
 8779TIP3    H150532   3.466   4.384   7.653  0.0874 -1.4978 -1.4471
 8779TIP3    H250533   3.382   4.332   7.768 -0.1456  1.7082 -0.0565
 8780TIP3   OH250534   2.380   2.957   8.390  0.1424 -0.0347  0.6820
 8780TIP3    H150535   2.385   2.968   8.485 -0.7400 -0.9223  0.8477
 8780TIP3    H250536   2.470   2.971   8.360  0.1991  1.5315  1.4792
 8781TIP3   OH250537   5.336   3.784   9.541 -0.2113  0.7398  0.5532
 8781TIP3    H150538   5.275   3.834   9.487  0.1085  1.0939  0.5084
 8781TIP3    H250539   5.281   3.737   9.603 -0.6523 -0.4025 -0.6522
 8782TIP3   OH250540   4.272   3.877  10.293  0.2149 -0.3924 -0.3504
 8782TIP3    H150541   4.303   3.794  10.258 -0.2233  0.0011 -1.7392
 8782TIP3    H250542   4.250   3.929  10.215 -2.5443 -0.1277  0.5260
 8783TIP3   OH250543   0.963   0.910   9.610 -0.4296 -0.0182  0.0880
 8783TIP3    H150544   1.042   0.933   9.659 -0.4699 -0.8402  0.5534
 8783TIP3    H250545   0.921   0.842   9.663 -1.4432  0.3983 -0.1631
 8784TIP3   OH250546   6.353   3.259   9.015  0.4811 -0.1856 -0.0605
 8784TIP3    H150547   6.335   3.345   9.053 -0.5526 -1.1178  1.6942
 8784TIP3    H250548   6.267   3.218   9.007  0.6192 -0.1413 -3.4294
 8785TIP3   OH250549   0.130   3.838   8.941  0.2004  0.6503  0.3882
 8785TIP3    H150550   0.135   3.781   9.017  0.1720  1.2039  0.8119
 8785TIP3    H250551   0.038   3.867   8.939  0.3250  1.0640  0.4669
 8786TIP3   OH250552   4.488   5.557   8.615 -0.1682 -0.1556 -0.1952
 8786TIP3    H150553   4.444   5.485   8.660 -0.2445  0.0235  0.0196
 8786TIP3    H250554   4.443   5.635   8.646 -0.2291 -0.0286 -0.5903
 8787TIP3   OH250555   5.639   5.737   6.417  0.3391 -0.2375 -0.6460
 8787TIP3    H150556   5.588   5.748   6.336  0.1966 -0.5192 -0.5974
 8787TIP3    H250557   5.673   5.824   6.436  0.1423 -0.1123 -0.8581
 8788TIP3   OH250558   6.719   0.702   6.425 -0.0366 -0.6482  0.4413
 8788TIP3    H150559   6.630   0.666   6.423 -1.0065  1.2458  2.8575
 8788TIP3    H250560   6.706   0.797   6.432  2.2274 -0.2273 -0.1959
 8789TIP3   OH250561   4.724   3.117   7.500 -0.0501  0.0402  0.3576
 8789TIP3    H150562   4.771   3.110   7.583 -0.1619  0.8228  0.4921
 8789TIP3    H250563   4.643   3.163   7.522  0.0375  0.4813 -0.2352
 8790TIP3   OH250564   1.184   0.322   6.713 -0.0449 -0.0788 -0.1210
 8790TIP3    H150565   1.118   0.252   6.720  1.0016 -1.0628  0.2136
 8790TIP3    H250566   1.267   0.275   6.705  0.5188  1.1145 -1.8567
 8791TIP3   OH250567   1.142   2.699  10.525 -0.1070  0.1024 -0.2815
 8791TIP3    H150568   1.126   2.667  10.613 -0.9957  0.6707 -0.2154
 8791TIP3    H250569   1.236   2.691  10.512  0.4322  2.3355  1.6634
 8792TIP3   OH250570   2.800   0.293   8.651  0.2106 -0.4892 -0.0080
 8792TIP3    H150571   2.800   0.371   8.707 -2.3884  0.6731 -1.4692
 8792TIP3    H250572   2.879   0.302   8.597  1.9630 -0.8912  2.3280
 8793TIP3   OH250573   2.457   2.679   6.592  0.3183 -0.4511 -0.8590
 8793TIP3    H150574   2.496   2.759   6.558  1.3330 -1.6604 -2.7013
 8793TIP3    H250575   2.363   2.690   6.579  0.1505  1.4959  1.3889
 8794TIP3   OH250576   5.015   3.921   7.538  0.5160 -0.3548  0.3729
 8794TIP3    H150577   5.013   3.872   7.456  0.1890  0.8976 -0.4023
 8794TIP3    H250578   4.960   3.998   7.521  0.3465 -0.1351  1.8124
 8795TIP3   OH250579   6.348   1.096   9.539 -0.4862  0.2841  0.1037
 8795TIP3    H150580   6.369   1.180   9.497  0.8132 -0.3586 -0.5832
 8795TIP3    H250581   6.259   1.108   9.572 -0.6721  1.6251 -0.7880
 8796TIP3   OH250582   0.462   6.501   8.797 -0.5272 -0.7553 -0.0363
 8796TIP3    H150583   0.511   6.423   8.823  0.7345 -0.2616 -0.8515
 8796TIP3    H250584   0.384   6.467   8.754 -0.5475 -1.5645  0.6225
 8797TIP3   OH250585   5.244   3.045   6.807 -0.4298 -0.2086  0.1591
 8797TIP3    H150586   5.225   3.000   6.889  0.6248 -1.6655 -0.3384
 8797TIP3    H250587   5.165   3.095   6.787 -1.7692 -2.0519  0.6382
 8798TIP3   OH250588   6.016   4.280   8.409  0.3713  0.0802 -0.0237
 8798TIP3    H150589   5.978   4.215   8.468  1.4047 -1.1333 -0.6404
 8798TIP3    H250590   6.106   4.250   8.394  0.3814  0.7624 -1.5856
 8799TIP3   OH250591   4.460   6.500   6.388  0.0986  0.2520 -0.5802
 8799TIP3    H150592   4.437   6.462   6.303 -1.3326 -0.4730  0.1131
 8799TIP3    H250593   4.384   6.553   6.412  1.1161  1.6989 -0.4370
 8800TIP3   OH250594   4.890   3.895   6.684 -0.2258  0.6188  0.1006
 8800TIP3    H150595   4.878   3.953   6.608  0.0299 -0.8127 -1.0910
 8800TIP3    H250596   4.969   3.927   6.727 -0.0553  1.1158 -0.5703
 8801TIP3   OH250597   2.824   1.473   7.679  0.4186  0.0397  0.2890
 8801TIP3    H150598   2.857   1.475   7.769  0.7002 -0.1569  0.1918
 8801TIP3    H250599   2.858   1.553   7.639 -3.0154  2.3523  1.4830
 8802TIP3   OH250600   0.173   1.158   7.599 -0.3127 -0.4624  0.1197
 8802TIP3    H150601   0.128   1.217   7.539  1.9118  1.2369  0.0044
 8802TIP3    H250602   0.116   1.154   7.676 -1.7181 -0.2177 -0.8690
 8803TIP3   OH250603   6.261   0.113   6.247 -0.6158  0.3479 -0.1656
 8803TIP3    H150604   6.238   0.021   6.238 -1.6328  0.7457 -2.0561
 8803TIP3    H250605   6.278   0.124   6.341 -3.2141 -1.1217  0.5612
 8804TIP3   OH250606   5.334   0.921   6.886 -0.6584 -0.3794  0.2076
 8804TIP3    H150607   5.378   0.874   6.815  0.0095 -1.0921  1.0762
 8804TIP3    H250608   5.365   1.011   6.878 -1.6169 -0.1323 -1.2025
 8805TIP3   OH250609   3.991   1.873   6.325  0.6063  0.0212  0.1500
 8805TIP3    H150610   4.046   1.801   6.355  0.4051 -0.2598 -0.1584
 8805TIP3    H250611   3.905   1.834   6.311  0.8900 -0.0487 -1.6440
 8806TIP3   OH250612   5.234   2.237   7.471 -0.0911  0.3153  0.2135
 8806TIP3    H150613   5.245   2.147   7.439  0.4598  0.4960 -0.1264
 8806TIP3    H250614   5.317   2.280   7.448 -0.1621  0.7759  0.8149
 8807TIP3   OH250615   1.587   2.744   8.099  0.3145 -0.4090  0.0232
 8807TIP3    H150616   1.596   2.670   8.160 -0.5038 -1.0689 -0.6210
 8807TIP3    H250617   1.607   2.706   8.013  0.7979  0.3522 -0.2064
 8808TIP3   OH250618   0.444   4.632   6.939 -0.0622  0.2643 -0.1043
 8808TIP3    H150619   0.349   4.623   6.931 -0.0056 -0.3374 -0.1170
 8808TIP3    H250620   0.477   4.542   6.939  0.5172  0.4735 -0.2161
 8809TIP3   OH250621   0.434   4.196   8.551 -0.6567 -0.0728  0.3438
 8809TIP3    H150622   0.395   4.278   8.520 -1.3323 -0.5291 -0.0301
 8809TIP3    H250623   0.440   4.207   8.646 -1.1430  0.2427  0.3430
 8810TIP3   OH250624   6.292   0.143   7.787  0.2456 -0.0648  0.4022
 8810TIP3    H150625   6.210   0.136   7.737 -0.5833  0.9947  1.5205
 8810TIP3    H250626   6.354   0.087   7.740 -1.0136 -0.6129 -0.6928
 8811TIP3   OH250627   5.783   5.942   9.264  0.1477  0.0489  0.6775
 8811TIP3    H150628   5.787   5.854   9.300 -1.1956 -0.0792  0.5785
 8811TIP3    H250629   5.720   5.935   9.191  0.2132  1.0282  0.5113
 8812TIP3   OH250630   3.573   0.709   7.839 -0.2183  0.2680  0.1322
 8812TIP3    H150631   3.593   0.624   7.881  3.2616  0.2591 -1.2228
 8812TIP3    H250632   3.543   0.686   7.752 -2.6308  0.4392  0.8442
 8813TIP3   OH250633   0.688   6.383   6.992  0.1391  0.3571 -0.6215
 8813TIP3    H150634   0.616   6.434   7.028 -0.2819 -0.4931 -0.2195
 8813TIP3    H250635   0.764   6.406   7.046 -0.3563 -0.4692  0.4880
 8814TIP3   OH250636   3.636   0.731   8.994  0.2137  0.5370 -0.8900
 8814TIP3    H150637   3.579   0.756   8.922 -1.4754 -0.2064  0.1097
 8814TIP3    H250638   3.646   0.811   9.046 -4.0658 -0.1830  1.5641
 8815TIP3   OH250639   4.277   0.904   8.520  0.2934 -0.1790 -0.4595
 8815TIP3    H150640   4.240   0.820   8.549 -4.5712  2.7550  3.4816
 8815TIP3    H250641   4.215   0.935   8.454 -0.6384  2.0254  1.3332
 8816TIP3   OH250642   1.347   6.188   9.123 -0.5231  0.3899 -0.1936
 8816TIP3    H150643   1.259   6.221   9.104  0.1233  2.6349  0.3739
 8816TIP3    H250644   1.354   6.194   9.218  0.1485 -0.0502 -0.2101
 8817TIP3   OH250645   6.378   1.216   8.744 -0.3169  0.0785  0.1209
 8817TIP3    H150646   6.404   1.160   8.671 -1.3591  0.3882 -0.5102
 8817TIP3    H250647   6.459   1.233   8.792 -0.0343 -2.4840  0.7179
 8818TIP3   OH250648   3.798   1.156   6.888  0.7100  0.5916  1.1456
 8818TIP3    H150649   3.752   1.177   6.806  0.7076 -0.1662  0.9454
 8818TIP3    H250650   3.747   1.084   6.926  2.7246 -1.5652 -0.0023
 8819TIP3   OH250651   2.781   1.921   9.340  0.3825 -0.0380  0.2944
 8819TIP3    H150652   2.873   1.917   9.367  0.7178  1.0359 -0.5814
 8819TIP3    H250653   2.767   1.841   9.289  1.5336  0.8123 -1.4897
 8820TIP3   OH250654   5.163   4.552   9.546 -0.6169  0.2994 -0.3236
 8820TIP3    H150655   5.075   4.588   9.536 -0.1875  1.7965  0.8529
 8820TIP3    H250656   5.211   4.619   9.596  1.4413 -0.0696 -1.6852
 8821TIP3   OH250657   3.936   4.829   6.998 -0.3502  0.1978  0.2274
 8821TIP3    H150658   3.995   4.897   7.032  0.0161  0.3566 -0.7193
 8821TIP3    H250659   3.856   4.877   6.976 -0.3599  0.1961  0.2578
 8822TIP3   OH250660   5.460   4.589  10.033  0.1589  0.0668 -0.0837
 8822TIP3    H150661   5.426   4.549   9.953  1.6925 -2.3712  0.3959
 8822TIP3    H250662   5.399   4.562  10.101 -0.1344  0.6240 -0.1150
 8823TIP3   OH250663   1.820   1.912   9.497  0.1797 -1.1467 -0.5450
 8823TIP3    H150664   1.813   1.968   9.574 -1.2320 -1.3982 -0.4708
 8823TIP3    H250665   1.868   1.835   9.527 -1.1688 -1.6758  0.3593
 8824TIP3   OH250666   4.769   6.401   7.450  0.2137 -0.3378  0.1171
 8824TIP3    H150667   4.811   6.342   7.512  0.5038 -1.9513 -1.5286
 8824TIP3    H250668   4.687   6.357   7.426  0.9797 -0.7402 -2.0130
 8825TIP3   OH250669   6.364   1.520   8.131  0.3614 -0.3232 -0.4190
 8825TIP3    H150670   6.453   1.551   8.114  0.9034  0.7887  3.3533
 8825TIP3    H250671   6.308   1.582   8.085  1.5619  1.8912  0.9230
 8826TIP3   OH250672   2.260   2.742   6.940 -0.2047 -0.3671  0.1306
 8826TIP3    H150673   2.196   2.796   6.892  0.2213 -0.1997 -0.2542
 8826TIP3    H250674   2.337   2.740   6.883 -0.4176 -1.9023 -0.1543
 8827TIP3   OH250675   4.290   3.106   9.852  0.4264 -0.3297 -0.0483
 8827TIP3    H150676   4.330   3.138   9.771  0.1185  0.4257  0.0887
 8827TIP3    H250677   4.220   3.047   9.823 -0.7200  1.1492 -0.3907
 8828TIP3   OH250678   4.185   2.110   8.793 -0.1460  0.4702  0.4494
 8828TIP3    H150679   4.276   2.125   8.816 -0.3180  1.5139  0.4909
 8828TIP3    H250680   4.135   2.141   8.868 -0.5296 -0.6671  0.6885
 8829TIP3   OH250681   3.278   6.508   8.128 -0.1356  0.1470 -0.1423
 8829TIP3    H150682   3.232   6.535   8.048  0.3290 -0.0518 -0.4836
 8829TIP3    H250683   3.210   6.502   8.194 -0.6257 -0.2588 -0.6695
 8830TIP3   OH250684   0.023   6.580   9.669 -0.7258  0.0127 -0.0503
 8830TIP3    H150685   0.106   6.536   9.653 -0.7152 -0.5590  1.3764
 8830TIP3    H250686   0.047   6.670   9.692 -0.6471  0.3802 -1.5126
 8831TIP3   OH250687   5.330   4.924   6.477 -0.4168 -0.3693 -0.0142
 8831TIP3    H150688   5.239   4.922   6.448 -0.0697 -0.1229 -1.1436
 8831TIP3    H250689   5.367   4.843   6.443 -0.6413 -1.3577  1.9580
 8832TIP3   OH250690   5.955   0.848   6.476  0.1749  0.2822  0.3636
 8832TIP3    H150691   6.042   0.814   6.458  0.2677  0.4871  0.4166
 8832TIP3    H250692   5.971   0.935   6.512 -0.0612  0.4495  0.0720
 8833TIP3   OH250693   2.676   4.449   8.828 -0.5875 -0.2068  0.0848
 8833TIP3    H150694   2.757   4.500   8.827 -1.4301  1.2824  1.6653
 8833TIP3    H250695   2.606   4.515   8.819 -1.7402 -0.9507  2.6559
 8834TIP3   OH250696   1.401   6.483   8.035 -0.4685 -0.2821 -0.1349
 8834TIP3    H150697   1.465   6.471   8.104 -0.8059 -2.6254 -0.1535
 8834TIP3    H250698   1.444   6.542   7.972  1.3289 -1.1029  0.2618
 8835TIP3   OH250699   2.644   1.510   6.930  0.3057  0.2233 -0.1858
 8835TIP3    H150700   2.570   1.568   6.943  0.9665  0.8560  0.9758
 8835TIP3    H250701   2.684   1.539   6.848  0.5347  1.3256  0.2968
 8836TIP3   OH250702   1.352   0.900   8.527  0.2238 -0.1896 -0.3836
 8836TIP3    H150703   1.330   0.807   8.533  0.3346 -0.3050 -1.4899
 8836TIP3    H250704   1.446   0.904   8.546  0.1424 -0.2484  0.0454
 8837TIP3   OH250705   3.486   3.769   9.766  0.0479  0.4625 -0.0262
 8837TIP3    H150706   3.456   3.770   9.857 -0.4185  1.6990 -0.1787
 8837TIP3    H250707   3.566   3.820   9.767  0.4360 -0.1276 -0.1986
 8838TIP3   OH250708   1.848   0.108   7.314  0.6893 -0.1631 -0.1616
 8838TIP3    H150709   1.859   0.070   7.401  1.3306  1.0418  0.3051
 8838TIP3    H250710   1.764   0.154   7.319 -0.4341 -2.0134 -0.9449
 8839TIP3   OH250711   3.514   4.387   7.445 -0.4386 -0.3366  0.0694
 8839TIP3    H150712   3.534   4.480   7.431  0.3176 -0.2284  1.6466
 8839TIP3    H250713   3.600   4.344   7.444 -0.5584 -0.6761  1.5035
 8840TIP3   OH250714   4.941   4.719   6.636  0.2890 -0.2018 -0.2266
 8840TIP3    H150715   4.956   4.811   6.655 -0.9509  0.0027 -0.1842
 8840TIP3    H250716   4.847   4.713   6.615  0.2405 -1.5300  0.2792
 8841TIP3   OH250717   4.725   3.405   6.906 -0.2642 -0.9602  0.2505
 8841TIP3    H150718   4.814   3.379   6.926 -0.3430  0.0484  2.0413
 8841TIP3    H250719   4.700   3.349   6.832  2.2081 -0.4694 -1.0615
 8842TIP3   OH250720   6.293   5.544   7.643  0.1918 -0.0903  0.1931
 8842TIP3    H150721   6.321   5.531   7.733 -1.3389 -0.4197  0.6470
 8842TIP3    H250722   6.221   5.483   7.630  0.7712 -0.4816 -1.4602
 8843TIP3   OH250723   0.018   4.107   9.179 -0.4178  0.2660  0.4079
 8843TIP3    H150724  -0.015   4.184   9.225  0.0748 -0.4936  2.1558
 8843TIP3    H250725  -0.061   4.058   9.154 -0.7031  0.7929  0.2596
 8844TIP3   OH250726   2.289   3.404   6.633  0.0236  0.0727  0.0398
 8844TIP3    H150727   2.255   3.481   6.587  0.0596  0.7155  1.0522
 8844TIP3    H250728   2.315   3.438   6.719  1.4716 -0.7611 -0.0326
 8845TIP3   OH250729   6.029   2.146   8.375  0.1155 -0.3534  0.2534
 8845TIP3    H150730   6.107   2.120   8.326  0.0549 -0.1206  0.0358
 8845TIP3    H250731   5.960   2.089   8.342 -0.2807  0.8137 -1.0341
 8846TIP3   OH250732   0.617   0.407   7.289  0.3138 -0.1700 -0.6131
 8846TIP3    H150733   0.542   0.456   7.255  1.1737  0.9687 -0.9304
 8846TIP3    H250734   0.691   0.465   7.275  1.3789 -1.5866 -1.0180
 8847TIP3   OH250735   2.868   0.390   9.716  0.1186 -0.5335 -0.0810
 8847TIP3    H150736   2.952   0.343   9.719  0.2869 -0.2326 -0.0525
 8847TIP3    H250737   2.888   0.473   9.672 -0.1724 -0.4752 -0.1080
 8848TIP3   OH250738   3.680   4.750   7.889 -0.1838 -0.1983  0.4883
 8848TIP3    H150739   3.681   4.811   7.963 -0.0400  0.8717 -0.3671
 8848TIP3    H250740   3.765   4.763   7.847 -0.4179 -0.5117 -0.0915
 8849TIP3   OH250741   4.551   0.824   8.255 -0.2572 -0.2526  0.6086
 8849TIP3    H150742   4.564   0.741   8.301 -1.3268  0.0231  1.4489
 8849TIP3    H250743   4.456   0.829   8.241 -0.1575  0.6329  0.1958
 8850TIP3   OH250744   6.530   4.479   8.368  0.6917  0.0830  0.3495
 8850TIP3    H150745   6.583   4.422   8.312  0.0036 -0.2239 -0.0032
 8850TIP3    H250746   6.528   4.434   8.453 -0.8328 -1.0472 -0.2554
 8851TIP3   OH250747   0.237   3.547   8.110  0.1906  0.3866  0.4395
 8851TIP3    H150748   0.214   3.486   8.040 -2.9531  1.4163  0.4509
 8851TIP3    H250749   0.266   3.491   8.182  0.5963 -0.8479 -0.6418
 8852TIP3   OH250750   5.537   3.912   8.252 -0.2741  0.1133  0.1668
 8852TIP3    H150751   5.555   3.948   8.165  1.1016  1.3861  0.9266
 8852TIP3    H250752   5.566   3.980   8.313 -0.4973 -1.0469  1.6347
 8853TIP3   OH250753   3.002   6.465   6.218  0.1225 -0.1701 -0.0924
 8853TIP3    H150754   2.959   6.511   6.145  0.2432 -1.0608 -0.7425
 8853TIP3    H250755   2.956   6.496   6.296  1.2146  2.2380 -0.3258
 8854TIP3   OH250756   0.259   2.557  10.069 -0.1305 -0.6521  0.0765
 8854TIP3    H150757   0.182   2.608  10.096  0.2864 -0.2234  0.4655
 8854TIP3    H250758   0.297   2.526  10.151  0.9796  0.4170 -0.0196
 8855TIP3   OH250759   5.946   3.008   6.821  0.6125 -0.3215 -0.0833
 8855TIP3    H150760   5.942   2.918   6.851 -2.4001  0.4514  2.3952
 8855TIP3    H250761   5.946   3.060   6.901  2.5927  1.9478 -1.4227
 8856TIP3   OH250762   2.784   0.640   7.669 -0.2277 -0.4210 -0.8119
 8856TIP3    H150763   2.724   0.569   7.645  1.8746 -2.8386  0.5692
 8856TIP3    H250764   2.838   0.654   7.591 -1.5976  0.7794 -1.5844
 8857TIP3   OH250765   1.753   6.297   8.878 -0.2179 -0.2446 -0.1184
 8857TIP3    H150766   1.723   6.385   8.855  0.4272  0.3994  1.3598
 8857TIP3    H250767   1.685   6.239   8.844 -1.3617  0.9227  0.0977
 8858TIP3   OH250768   2.617   1.865   8.791  0.5359  0.1360  0.1959
 8858TIP3    H150769   2.694   1.809   8.793  0.7700  0.2775 -2.0124
 8858TIP3    H250770   2.542   1.805   8.790  0.5692 -0.0015  2.2586
 8859TIP3   OH250771   4.091   3.176   8.791 -0.4919 -0.2327  0.6427
 8859TIP3    H150772   4.032   3.128   8.734  0.5281  0.8898 -1.4960
 8859TIP3    H250773   4.083   3.267   8.762  1.4343  0.1032  1.0354
 8860TIP3   OH250774   5.702   6.243   7.842  0.0002  0.2860 -0.0783
 8860TIP3    H150775   5.702   6.332   7.805 -0.2808  0.4176  0.2319
 8860TIP3    H250776   5.778   6.201   7.802 -0.3892  0.3687 -0.9353
 8861TIP3   OH250777   3.230   1.961   7.194  0.5236 -0.8457 -0.1874
 8861TIP3    H150778   3.284   2.005   7.259  1.2736 -0.9466 -0.7360
 8861TIP3    H250779   3.143   1.957   7.234  0.8337 -0.3619  0.5509
 8862TIP3   OH250780   1.466   4.959   9.239  0.3361  0.0109 -0.5160
 8862TIP3    H150781   1.380   5.001   9.240  0.6016  0.5506  0.3349
 8862TIP3    H250782   1.448   4.867   9.259  0.0203  0.2684  0.4496
 8863TIP3   OH250783   2.434   5.160   9.304  0.7316  0.0457 -0.4420
 8863TIP3    H150784   2.470   5.223   9.242  3.0038 -0.4585  0.2664
 8863TIP3    H250785   2.451   5.074   9.265  2.6547 -0.3063  1.0026
 8864TIP3   OH250786   3.946   0.982   6.557 -0.0179  0.3200 -0.0329
 8864TIP3    H150787   3.924   1.063   6.604 -2.0885  0.3159 -0.8767
 8864TIP3    H250788   4.035   0.961   6.586 -0.0790  1.9401  1.5420
 8865TIP3   OH250789   5.893   4.589   8.167  0.2630  0.1911  1.0364
 8865TIP3    H150790   5.920   4.680   8.159 -0.1820  0.1722 -1.1262
 8865TIP3    H250791   5.926   4.562   8.253  3.0643  1.4882  0.4632
 8866TIP3   OH250792   4.384   4.277   8.926 -0.0305  0.1383 -0.1201
 8866TIP3    H150793   4.368   4.183   8.929 -0.1108  0.1745  1.3374
 8866TIP3    H250794   4.350   4.305   8.841  1.5560 -1.4035 -1.3179
 8867TIP3   OH250795   5.129   1.710   8.598  0.0043  0.2384 -0.0924
 8867TIP3    H150796   5.135   1.761   8.679  0.7409  0.6029 -0.3669
 8867TIP3    H250797   5.074   1.763   8.541  0.6061  0.6340 -0.3076
 8868TIP3   OH250798   5.476   2.250   8.197 -0.5086  0.4830 -0.1909
 8868TIP3    H150799   5.470   2.163   8.237  0.5527 -0.4844 -1.9790
 8868TIP3    H250800   5.463   2.234   8.103 -0.4139  2.2771 -0.5448
 8869TIP3   OH250801   2.779   3.504   8.845 -0.1901  0.3552  0.2976
 8869TIP3    H150802   2.860   3.487   8.893 -0.4358 -0.5298  0.4137
 8869TIP3    H250803   2.796   3.586   8.799  0.8571  0.0675  0.1399
 8870TIP3   OH250804   0.577   0.888   7.710  0.2651  0.2942 -0.4637
 8870TIP3    H150805   0.511   0.958   7.720  1.4214  1.5360 -1.1890
 8870TIP3    H250806   0.528   0.815   7.673 -1.2547  0.2322  1.4863
 8871TIP3   OH250807   0.529   3.233   9.595 -0.7746  0.1512 -0.1213
 8871TIP3    H150808   0.504   3.263   9.682  0.3470  0.1558  0.2154
 8871TIP3    H250809   0.474   3.157   9.578  0.8342 -1.5399  1.7512
 8872TIP3   OH250810   1.552   3.785   9.172 -0.5156  0.4181 -0.0656
 8872TIP3    H150811   1.578   3.863   9.221 -1.4180 -0.0417  1.1888
 8872TIP3    H250812   1.565   3.713   9.233  1.3637 -0.6118 -1.5447
 8873TIP3   OH250813   0.850   3.606   7.972 -0.5554  0.1345  0.2923
 8873TIP3    H150814   0.876   3.639   7.886 -1.1571  0.4473  0.2281
 8873TIP3    H250815   0.828   3.514   7.956  1.2941 -0.3795  0.5085
 8874TIP3   OH250816   5.243   0.405   7.568 -0.3344  0.1579  0.2776
 8874TIP3    H150817   5.234   0.464   7.643  1.1648  0.1610  0.4890
 8874TIP3    H250818   5.306   0.448   7.511 -0.2773 -0.5821 -0.2306
 8875TIP3   OH250819   1.692   2.262  10.674 -0.4298  0.0979 -0.1250
 8875TIP3    H150820   1.623   2.222  10.621 -0.1152 -0.0432 -0.4390
 8875TIP3    H250821   1.772   2.220  10.642 -0.0994  0.9397 -0.4181
 8876TIP3   OH250822   3.880   2.209  10.106 -0.2094  0.1845  0.0131
 8876TIP3    H150823   3.901   2.117  10.124 -1.3863  0.3345  2.6409
 8876TIP3    H250824   3.811   2.205  10.040 -1.8494 -1.0275  1.6827
 8877TIP3   OH250825   4.669   4.840   7.167  0.4808  0.4247  0.4111
 8877TIP3    H150826   4.614   4.807   7.238 -0.2815 -0.6091 -0.6163
 8877TIP3    H250827   4.638   4.930   7.152 -0.8179 -0.0686 -0.0102
 8878TIP3   OH250828   6.601   3.120   6.826 -0.5904  0.1078  0.0150
 8878TIP3    H150829   6.513   3.148   6.852  0.1172  0.8100  1.8081
 8878TIP3    H250830   6.595   3.109   6.731 -2.9151 -1.0606  0.2236
 8879TIP3   OH250831   6.304   1.686   9.258 -0.3896  0.3894 -0.2999
 8879TIP3    H150832   6.255   1.702   9.177 -1.7103  0.6489  0.5162
 8879TIP3    H250833   6.284   1.761   9.313  0.3542  0.1286  0.3354
 8880TIP3   OH250834   1.223   1.988   6.778  0.3608 -0.2047  0.1209
 8880TIP3    H150835   1.277   1.957   6.706  0.7534 -0.0460  0.3428
 8880TIP3    H250836   1.136   1.951   6.761  0.6427 -0.8245 -0.0082
 8881TIP3   OH250837   2.095   6.123   7.254  0.7508  0.1200  0.4978
 8881TIP3    H150838   2.069   6.075   7.176  1.8602  1.3953 -0.6934
 8881TIP3    H250839   2.023   6.109   7.316 -1.4245  1.1887 -1.6484
 8882TIP3   OH250840   3.627   4.401   6.473  0.3255 -0.3551  0.5982
 8882TIP3    H150841   3.636   4.495   6.457  0.6839 -0.5393 -0.3256
 8882TIP3    H250842   3.716   4.370   6.484  0.5344 -1.1152 -2.3556
 8883TIP3   OH250843   6.396   0.494   8.206 -0.2367  0.0257 -0.0164
 8883TIP3    H150844   6.334   0.561   8.234 -0.4062 -0.2977  0.3860
 8883TIP3    H250845   6.482   0.535   8.215 -0.2474 -0.2255  1.4531
 8884TIP3   OH250846   4.868   4.795  10.435 -0.2713 -0.3766  0.0124
 8884TIP3    H150847   4.874   4.870  10.376 -0.1978  0.2394  0.7839
 8884TIP3    H250848   4.792   4.746  10.404 -1.0447  0.6673  0.2171
 8885TIP3   OH250849   0.227   2.782   7.418  0.6693  0.0043  0.3055
 8885TIP3    H150850   0.189   2.722   7.482  0.7638 -1.2023 -0.7369
 8885TIP3    H250851   0.281   2.841   7.470  0.1424 -0.4674  1.4153
 8886TIP3   OH250852   2.539   4.736   8.891  0.7757 -0.5842  0.1090
 8886TIP3    H150853   2.480   4.803   8.926  0.5665 -0.1593 -1.0169
 8886TIP3    H250854   2.609   4.730   8.956 -0.1373 -0.5999  1.1284
 8887TIP3   OH250855   0.864   1.451   7.361 -0.4296  0.4270 -0.5390
 8887TIP3    H150856   0.781   1.486   7.394 -0.1227  2.5002 -1.7781
 8887TIP3    H250857   0.928   1.478   7.427 -0.4470  0.6733 -0.6219
 8888TIP3   OH250858   5.730   0.518   9.466 -0.0283  0.3879  0.0136
 8888TIP3    H150859   5.757   0.572   9.540 -0.8451  1.3683 -0.3868
 8888TIP3    H250860   5.783   0.549   9.392 -1.4231  1.6269 -0.5349
 8889TIP3   OH250861   0.588   5.909   6.866 -0.1926 -0.2229  0.3734
 8889TIP3    H150862   0.645   5.832   6.868  1.3610  0.8956  0.5987
 8889TIP3    H250863   0.646   5.983   6.881 -1.4767  1.1139 -0.8364
 8890TIP3   OH250864   1.544   5.619   8.710  0.1216 -0.5294  0.8287
 8890TIP3    H150865   1.635   5.607   8.684  0.3823 -0.1667  1.5602
 8890TIP3    H250866   1.507   5.676   8.643  0.0945 -1.6432 -0.1448
 8891TIP3   OH250867   3.931   6.522   7.974  0.3761 -0.7698 -0.5366
 8891TIP3    H150868   3.997   6.471   7.926  0.9910 -0.0112 -0.5187
 8891TIP3    H250869   3.944   6.498   8.066  0.0353 -1.2801 -0.6178
 8892TIP3   OH250870   1.530   2.852   7.291 -0.1441  0.1839 -0.3551
 8892TIP3    H150871   1.603   2.871   7.232  1.0353 -1.9215  0.3380
 8892TIP3    H250872   1.488   2.774   7.255  0.6797 -1.2254  1.5447
 8893TIP3   OH250873   4.703   0.811   7.084  0.4393  0.1211  0.3440
 8893TIP3    H150874   4.715   0.906   7.082  0.7551  0.0620 -0.6573
 8893TIP3    H250875   4.786   0.775   7.053 -0.2829 -0.4305 -1.0217
 8894TIP3   OH250876   3.337   0.664   8.335  0.1228 -0.3600 -0.1719
 8894TIP3    H150877   3.373   0.739   8.382  1.1896 -2.2580  2.2673
 8894TIP3    H250878   3.381   0.665   8.250 -1.1275  2.6342 -0.9145
 8895TIP3   OH250879   4.930   0.457   7.127 -0.4010  0.9466 -0.4282
 8895TIP3    H150880   4.955   0.375   7.085 -1.7007  0.7422 -0.8393
 8895TIP3    H250881   5.010   0.488   7.169  0.2700 -0.1813 -0.8442
 8896TIP3   OH250882   6.411   0.744   8.723 -0.5286 -0.2692 -1.0886
 8896TIP3    H150883   6.344   0.694   8.675 -0.1090 -2.7482  0.7083
 8896TIP3    H250884   6.363   0.786   8.794 -0.3243 -1.9182  0.1037
 8897TIP3   OH250885   6.029   1.313   8.902 -0.1416 -0.5921 -0.7186
 8897TIP3    H150886   6.086   1.237   8.915 -0.3384 -0.6085  0.1138
 8897TIP3    H250887   6.054   1.347   8.816  2.4004  0.4461  0.3151
 8898TIP3   OH250888   3.567   4.228   7.181  0.0066 -0.0659  0.0174
 8898TIP3    H150889   3.604   4.212   7.268 -0.8405  1.4372  0.6907
 8898TIP3    H250890   3.627   4.183   7.121  1.8304  0.6502  1.2133
 8899TIP3   OH250891   4.612   2.635   9.429 -0.0662  0.0521 -0.0852
 8899TIP3    H150892   4.583   2.684   9.505  1.6865  0.1527  0.5514
 8899TIP3    H250893   4.693   2.678   9.402 -0.1564 -0.5726 -1.4350
 8900TIP3   OH250894   0.876   1.633   6.417  0.5435 -0.6667  0.4921
 8900TIP3    H150895   0.858   1.627   6.511 -1.2541 -1.4070  0.1319
 8900TIP3    H250896   0.861   1.544   6.384 -0.5164 -0.0618 -0.7511
 8901TIP3   OH250897   4.256   6.706   8.283  0.2736 -0.7162  0.0000
 8901TIP3    H150898   4.232   6.770   8.215  0.5810 -0.2694  0.2997
 8901TIP3    H250899   4.352   6.705   8.279  0.2471 -1.9770 -0.7401
 8902TIP3   OH250900   4.864   4.928   9.342  0.4438 -0.1307  0.0374
 8902TIP3    H150901   4.953   4.929   9.306  0.3299 -0.0976 -0.2514
 8902TIP3    H250902   4.810   4.894   9.270  0.1436  0.3760  0.0158
 8903TIP3   OH250903   2.446   6.455   8.436 -0.4826 -0.8354 -0.6116
 8903TIP3    H150904   2.501   6.531   8.455 -0.7134 -1.0389  1.0379
 8903TIP3    H250905   2.456   6.441   8.342 -0.3084  1.1272 -0.9284
 8904TIP3   OH250906   4.677   1.401   8.433  0.2076 -0.3937  0.4673
 8904TIP3    H150907   4.715   1.348   8.363 -2.6782 -3.5842  1.0123
 8904TIP3    H250908   4.709   1.361   8.514 -1.6764 -1.1446  0.8969
 8905TIP3   OH250909   2.496   4.116   7.090  0.9318 -0.0838  0.1826
 8905TIP3    H150910   2.476   4.047   7.153 -0.5417 -0.8558 -1.0663
 8905TIP3    H250911   2.503   4.195   7.143 -0.8872 -0.6009  1.2915
 8906TIP3   OH250912   5.715   2.710  10.070 -0.3787  0.4710 -0.6832
 8906TIP3    H150913   5.781   2.682  10.134 -1.3885 -2.3340 -0.6939
 8906TIP3    H250914   5.639   2.734  10.123 -0.6867 -0.3266 -0.7435
 8907TIP3   OH250915   3.991   3.425   6.609  0.3114  0.4260 -0.0773
 8907TIP3    H150916   3.969   3.335   6.586 -1.9240  1.0989 -0.8543
 8907TIP3    H250917   4.079   3.438   6.573  0.3389 -1.1780 -0.6761
 8908TIP3   OH250918   2.337   3.228   8.533 -0.2600 -0.2430  0.1596
 8908TIP3    H150919   2.258   3.175   8.520 -0.0617 -0.6026  0.4238
 8908TIP3    H250920   2.365   3.208   8.622 -0.8117  1.1553  0.6638
 8909TIP3   OH250921   2.409   4.954   8.948 -0.1325 -0.3310  0.1654
 8909TIP3    H150922   2.319   4.961   8.914 -0.0294  0.6231  0.0544
 8909TIP3    H250923   2.431   5.043   8.974  1.3556 -0.2315 -1.2919
 8910TIP3   OH250924   6.239   4.362   7.487  0.4828  0.6788 -0.8717
 8910TIP3    H150925   6.278   4.318   7.562 -0.6653  0.1328 -0.5724
 8910TIP3    H250926   6.158   4.400   7.521  0.0305  0.5686 -1.7964
 8911TIP3   OH250927   1.946   3.005   7.679 -0.3563  0.0736 -0.4366
 8911TIP3    H150928   1.958   2.971   7.590 -1.0944  1.2576 -1.0165
 8911TIP3    H250929   1.852   3.021   7.686 -0.2461  0.4013  0.4056
 8912TIP3   OH250930   5.972   5.140   7.658  0.2561 -0.5657  0.4823
 8912TIP3    H150931   5.885   5.180   7.651  0.2606 -0.6488 -0.1390
 8912TIP3    H250932   5.999   5.126   7.567  0.7107 -0.9995  0.6797
 8913TIP3   OH250933   3.660   3.050   7.603 -0.0015  0.0428 -0.0170
 8913TIP3    H150934   3.619   3.127   7.642  0.5594 -0.3784  1.4520
 8913TIP3    H250935   3.645   3.060   7.509 -0.8549  1.3984  0.2399
 8914TIP3   OH250936   6.112   4.872   9.601  0.0979 -0.0528  0.0792
 8914TIP3    H150937   6.057   4.917   9.537  0.2447 -0.9990 -0.7263
 8914TIP3    H250938   6.051   4.825   9.657  0.0328 -0.1716 -0.0930
 8915TIP3   OH250939   1.286   3.129   6.487  0.3128  0.3320  0.6749
 8915TIP3    H150940   1.308   3.213   6.528  0.1911 -0.1630  1.7864
 8915TIP3    H250941   1.357   3.070   6.513 -0.7790 -0.5109  1.8715
 8916TIP3   OH250942   0.083   3.741   6.988  0.0534  0.3633  0.3592
 8916TIP3    H150943   0.129   3.722   6.906  1.9656 -1.0584  1.6745
 8916TIP3    H250944   0.069   3.836   6.985  1.1275  0.5275 -1.0895
 8917TIP3   OH250945   0.364   3.270   9.246  0.2861 -0.1879  0.2072
 8917TIP3    H150946   0.416   3.210   9.193 -0.8050 -0.9536 -0.0440
 8917TIP3    H250947   0.320   3.325   9.182  1.0761  0.7280  0.4300
 8918TIP3   OH250948   6.411   6.015   8.162 -0.2266  0.0282  0.1956
 8918TIP3    H150949   6.363   5.933   8.151  1.4766 -0.8240 -1.2117
 8918TIP3    H250950   6.369   6.076   8.102 -2.0047  0.5140  1.7982
 8919TIP3   OH250951   5.359   0.969   7.785  0.3291 -0.4134 -0.1353
 8919TIP3    H150952   5.356   0.877   7.761  0.5272 -0.3685 -0.3337
 8919TIP3    H250953   5.320   1.015   7.711 -0.2161 -0.3731  0.1679
 8920TIP3   OH250954   1.768   0.483   8.045 -0.3852 -0.1320  0.2539
 8920TIP3    H150955   1.768   0.531   7.962  0.3637 -0.9360 -0.2320
 8920TIP3    H250956   1.753   0.392   8.021 -4.0464  0.0408  1.3565
 8921TIP3   OH250957   3.959   3.016   7.527 -0.8642 -0.3178  0.5698
 8921TIP3    H150958   3.984   3.107   7.547 -1.2441  0.1765 -1.0369
 8921TIP3    H250959   3.993   3.001   7.439  0.1183 -2.1313  1.1983
 8922TIP3   OH250960   3.832   6.598   8.656  0.2673  0.1355 -0.4806
 8922TIP3    H150961   3.813   6.586   8.563 -0.8150 -0.6162 -0.1755
 8922TIP3    H250962   3.902   6.535   8.675 -0.6455 -0.8811 -0.4314
 8923TIP3   OH250963   5.966   4.618   8.707  0.0403  0.2871 -0.2423
 8923TIP3    H150964   5.995   4.535   8.671  1.5312  1.2103 -1.2783
 8923TIP3    H250965   5.884   4.637   8.662  1.0439  0.6320 -2.0137
 8924TIP3   OH250966   3.528   0.843   8.541  0.3624  0.7262  0.0506
 8924TIP3    H150967   3.532   0.879   8.630 -0.3664 -0.2862  0.5253
 8924TIP3    H250968   3.510   0.918   8.485 -1.7810  1.0706  1.0730
 8925TIP3   OH250969   6.473   1.562   7.043  0.2667  0.2387 -0.0010
 8925TIP3    H150970   6.525   1.641   7.058 -0.1933  1.1650 -2.7184
 8925TIP3    H250971   6.531   1.506   6.990 -0.3608 -0.0417 -0.4005
 8926TIP3   OH250972   1.731   4.423   6.456 -0.3088  0.1726  0.2145
 8926TIP3    H150973   1.824   4.404   6.467 -0.0832  1.4292  0.6248
 8926TIP3    H250974   1.714   4.498   6.513 -1.8180 -0.6704  0.9538
 8927TIP3   OH250975   1.594   3.241   8.985 -0.0945  0.1375  0.1338
 8927TIP3    H150976   1.585   3.257   9.079 -1.3609 -1.2028  0.2596
 8927TIP3    H250977   1.688   3.225   8.973  0.1994  1.0614  1.0225
 8928TIP3   OH250978   6.056   1.814   9.380  0.1238 -0.3926 -0.8151
 8928TIP3    H150979   6.097   1.777   9.459 -1.6461 -1.4630 -0.3307
 8928TIP3    H250980   6.094   1.764   9.308  1.2888  0.1552 -0.5989
 8929TIP3   OH250981   3.838   6.579   6.271  0.1305 -0.3699  0.4043
 8929TIP3    H150982   3.877   6.495   6.247 -1.1871 -0.7750 -0.4867
 8929TIP3    H250983   3.905   6.644   6.251  0.2036 -0.9814 -1.5461
 8930TIP3   OH250984   1.774   3.850   8.005  0.1539  0.0796  0.3491
 8930TIP3    H150985   1.728   3.775   7.967 -0.6583  0.9437 -0.4178
 8930TIP3    H250986   1.785   3.910   7.932 -3.4485  2.8078  1.7286
 8931TIP3   OH250987   2.792   2.932   7.827  0.4096  0.6240  0.1435
 8931TIP3    H150988   2.878   2.971   7.840  1.2020 -1.1753  0.7432
 8931TIP3    H250989   2.730   2.998   7.857  1.6314  1.6264  0.5272
 8932TIP3   OH250990   4.289   3.261   6.766  0.3474 -0.0700 -0.2884
 8932TIP3    H150991   4.298   3.175   6.724 -0.2302  0.0909 -0.7561
 8932TIP3    H250992   4.305   3.244   6.859 -2.5268 -1.2488  0.1075
 8933TIP3   OH250993   0.391   5.252   7.846  0.1065  0.5438  0.6946
 8933TIP3    H150994   0.400   5.163   7.811  1.2880  1.0167 -0.2764
 8933TIP3    H250995   0.325   5.244   7.915  0.1382 -1.0701  0.5783
 8934TIP3   OH250996   4.187   2.370   7.951  0.5389  0.0368 -0.5053
 8934TIP3    H150997   4.140   2.339   8.028  0.6742 -0.6593 -0.7008
 8934TIP3    H250998   4.279   2.372   7.978  0.6952 -1.0272 -0.8964
 8935TIP3   OH250999   0.103   3.159   7.230  0.0510  0.2639  0.6479
 8935TIP3    H151000   0.057   3.091   7.279  1.3380 -0.5967  0.7255
 8935TIP3    H251001   0.037   3.196   7.172 -1.0194 -0.0765  1.6029
 8936TIP3   OH251002   2.688   6.630   8.132 -0.2786 -0.1269 -0.0552
 8936TIP3    H151003   2.772   6.606   8.093 -0.9642 -0.3046 -1.5264
 8936TIP3    H251004   2.708   6.654   8.222  1.2071 -1.0826 -0.0999
 8937TIP3   OH251005   0.248   5.095   6.562  0.2041  0.4651  0.0881
 8937TIP3    H151006   0.177   5.079   6.624  0.6981  4.7591  2.1632
 8937TIP3    H251007   0.203   5.108   6.478 -1.3290  1.2176  0.9681
 8938TIP3   OH251008   0.611   2.397   9.373  0.2659  0.1359 -0.5049
 8938TIP3    H151009   0.537   2.439   9.417 -0.7278 -2.2207  0.2241
 8938TIP3    H251010   0.680   2.395   9.439 -0.4281 -1.2860  0.2075
 8939TIP3   OH251011   0.751   2.061   9.723  0.2114  0.0711 -0.1218
 8939TIP3    H151012   0.780   2.092   9.637  2.3313 -0.3331  0.4107
 8939TIP3    H251013   0.749   2.139   9.778 -0.7543  0.2634 -0.4125
 8940TIP3   OH251014   1.825   5.008   6.920 -0.4274  0.5110 -0.5697
 8940TIP3    H151015   1.843   5.054   6.838 -1.7657  0.2654 -1.0253
 8940TIP3    H251016   1.736   4.974   6.909 -0.4513  0.0867  0.8113
 8941TIP3   OH251017   4.448   1.588   9.258 -0.4356  0.0448  0.3070
 8941TIP3    H151018   4.521   1.649   9.269  0.4748 -0.8754 -0.2982
 8941TIP3    H251019   4.481   1.525   9.193 -2.7389  1.0885 -2.0707
 8942TIP3   OH251020   6.059   3.348   9.171  0.1167 -0.7103  0.0143
 8942TIP3    H151021   6.074   3.253   9.162  1.8494 -0.4711  0.0988
 8942TIP3    H251022   6.043   3.377   9.081  1.2037 -0.8456 -0.2362
 8943TIP3   OH251023   1.938   5.497   8.325 -0.1066 -0.0506 -0.3614
 8943TIP3    H151024   2.024   5.468   8.357  0.0413  1.8504  1.1748
 8943TIP3    H251025   1.893   5.417   8.302  1.4256 -1.2471  0.5762
 8944TIP3   OH251026   1.393   2.354   6.728  0.0582  0.4644  0.1189
 8944TIP3    H151027   1.473   2.337   6.778 -0.2034 -0.7893  0.1382
 8944TIP3    H251028   1.423   2.370   6.639  0.4384  1.5497  0.4240
 8945TIP3   OH251029   4.575   3.888   8.119 -0.0073  0.4084  0.2528
 8945TIP3    H151030   4.545   3.925   8.202 -1.1696  0.0864 -0.0042
 8945TIP3    H251031   4.626   3.959   8.079  0.1856  0.7216  1.0370
 8946TIP3   OH251032   3.991   3.106   7.268  0.1397  0.0271 -0.4421
 8946TIP3    H151033   4.030   3.070   7.188  2.3597  2.9238 -0.8438
 8946TIP3    H251034   3.979   3.199   7.249 -2.6051  0.1650  1.4514
 8947TIP3   OH251035   1.948   3.963   9.118 -0.5715  0.3469  0.4810
 8947TIP3    H151036   2.025   3.953   9.062 -0.5877  0.9944  0.3271
 8947TIP3    H251037   1.963   3.903   9.191 -0.2548 -0.0487  0.0945
 8948TIP3   OH251038   5.942   4.116   8.606  0.1179 -0.4660  0.2100
 8948TIP3    H151039   6.006   4.062   8.653  0.5477 -1.0535 -1.0137
 8948TIP3    H251040   5.881   4.053   8.568 -1.1148  0.0782  1.1887
 8949TIP3   OH251041   2.768   4.721   9.103  0.0805 -0.3315  0.0926
 8949TIP3    H151042   2.722   4.753   9.181  0.0777 -0.1408  0.0124
 8949TIP3    H251043   2.858   4.754   9.113  0.7141 -2.2201  1.1718
 8950TIP3   OH251044   5.750   2.887  10.432  0.2362  0.8356 -0.0841
 8950TIP3    H151045   5.692   2.953  10.471  0.5606  1.2729 -0.3478
 8950TIP3    H251046   5.708   2.864  10.349  0.8674  1.7665 -0.6745
 8951TIP3   OH251047   4.231   4.668   6.647  0.4609 -0.0221 -0.5875
 8951TIP3    H151048   4.284   4.672   6.726  0.0284  0.0522 -0.2955
 8951TIP3    H251049   4.215   4.574   6.633  2.6687 -0.2612 -2.0511
 8952TIP3   OH251050   3.723   1.018   8.205  0.4533  0.1046 -0.7117
 8952TIP3    H151051   3.658   1.037   8.272  0.5405  0.1782 -0.6481
 8952TIP3    H251052   3.672   1.010   8.124  0.3311 -0.1429 -0.6110
 8953TIP3   OH251053   6.215   0.105   8.500  0.1043  0.1608 -0.0791
 8953TIP3    H151054   6.253   0.191   8.518  0.4197  0.5362 -2.2829
 8953TIP3    H251055   6.245   0.083   8.412  0.9095 -2.7024  0.7827
 8954TIP3   OH251056   2.648   3.755   8.981 -0.1252  0.5552  0.0082
 8954TIP3    H151057   2.713   3.698   9.022 -1.2679 -1.2690 -0.5858
 8954TIP3    H251058   2.592   3.695   8.931 -3.1791  1.8234  1.6825
 8955TIP3   OH251059   6.405   1.343   9.421  0.3884 -0.3027 -0.4436
 8955TIP3    H151060   6.320   1.385   9.415  0.5627  0.2267  0.5507
 8955TIP3    H251061   6.462   1.394   9.363  0.1420 -0.3855 -0.7615
 8956TIP3   OH251062   0.115   3.596   7.257 -0.8668 -0.2781  0.3427
 8956TIP3    H151063   0.113   3.620   7.164  1.4237 -1.8299 -0.1882
 8956TIP3    H251064   0.024   3.601   7.285 -1.4640  1.4374 -1.6454
 8957TIP3   OH251065   3.349   4.002   8.750  0.3586 -0.3280 -0.1783
 8957TIP3    H151066   3.259   3.972   8.739 -0.5884  2.0144  0.5329
 8957TIP3    H251067   3.366   3.992   8.844  1.0529 -1.2037 -0.3790
 8958TIP3   OH251068   3.624   1.667   7.934 -0.2420  0.1472  0.4403
 8958TIP3    H151069   3.617   1.723   7.857 -1.2707 -0.3395  0.1584
 8958TIP3    H251070   3.637   1.728   8.007 -0.8191  0.7187  0.0743
 8959TIP3   OH251071   5.387   6.174   6.602  0.0032  0.4263  0.2678
 8959TIP3    H151072   5.443   6.208   6.532  0.3958  1.3118  0.9973
 8959TIP3    H251073   5.368   6.084   6.576 -1.2926  1.2376 -1.8618
 8960TIP3   OH251074   3.956   4.104   6.439 -0.0734 -0.2709 -0.0425
 8960TIP3    H151075   3.953   4.067   6.351 -1.6979  2.4688 -1.2537
 8960TIP3    H251076   4.047   4.133   6.450 -0.1354  0.4924 -1.3640
 8961TIP3   OH251077   2.386   5.640   7.194 -0.1404 -0.4330  0.5328
 8961TIP3    H151078   2.465   5.682   7.162 -1.4343  2.0837  0.4378
 8961TIP3    H251079   2.336   5.619   7.114 -0.9710  0.9360  0.6699
 8962TIP3   OH251080   5.688   5.489   6.896  0.4988  0.2472 -0.5388
 8962TIP3    H151081   5.713   5.566   6.845  0.7208  0.3197 -0.3225
 8962TIP3    H251082   5.599   5.508   6.925  0.8901  0.8393  0.2977
 8963TIP3   OH251083   4.700   6.243   8.380  0.1054  0.1877  0.0226
 8963TIP3    H151084   4.633   6.189   8.421 -0.5857 -0.2387 -1.5952
 8963TIP3    H251085   4.775   6.184   8.369  0.7632  0.6342  1.7245
 8964TIP3   OH251086   4.600   5.816   7.941 -0.2783  0.2083 -0.0241
 8964TIP3    H151087   4.692   5.792   7.951 -0.4257 -0.3023  0.1292
 8964TIP3    H251088   4.554   5.733   7.926 -0.6980  0.4695 -0.2190
 8965TIP3   OH251089   2.873   0.561   7.127  0.4294  0.1229  0.3008
 8965TIP3    H151090   2.915   0.505   7.192  1.2296 -0.5112 -0.7345
 8965TIP3    H251091   2.931   0.637   7.120  0.0274  0.4804  0.7467
 8966TIP3   OH251092   5.175   1.212   9.136  0.5246  0.1869  0.0209
 8966TIP3    H151093   5.174   1.305   9.112  2.4953  0.0772 -0.6140
 8966TIP3    H251094   5.140   1.211   9.225  0.1174  1.4804 -0.0949
 8967TIP3   OH251095   5.372   4.043   7.457  0.1854 -0.0949 -0.1003
 8967TIP3    H151096   5.340   3.953   7.454 -0.3750  0.0652  0.8052
 8967TIP3    H251097   5.346   4.075   7.543 -0.2502  1.1639 -0.6759
 8968TIP3   OH251098   5.283   2.066   8.371 -0.7413 -0.3838  0.2552
 8968TIP3    H151099   5.333   2.137   8.409  0.6484 -0.7277 -0.8315
 8968TIP3    H251100   5.273   2.002   8.442 -0.2638  0.0086  0.6813
 8969TIP3   OH251101   4.486   2.607   7.429 -0.2088 -0.0280 -0.3371
 8969TIP3    H151102   4.393   2.588   7.438  0.2919 -2.6463  0.0886
 8969TIP3    H251103   4.503   2.676   7.493 -1.5008 -0.8603  0.9622
 8970TIP3   OH251104   0.082   1.046   8.707 -0.4149 -0.0787 -0.2095
 8970TIP3    H151105   0.028   0.975   8.672 -1.4009 -0.3841  1.7992
 8970TIP3    H251106   0.148   1.001   8.760 -0.7321  0.4804  0.6711
 8971TIP3   OH251107   3.494   6.562   6.846 -0.3252  0.5836  0.1432
 8971TIP3    H151108   3.438   6.620   6.794  0.6315  0.5705 -0.9387
 8971TIP3    H251109   3.564   6.537   6.787 -0.2455 -1.0157  0.8558
 8972TIP3   OH251110   2.504   3.084  10.638  1.1639  0.4652  0.5436
 8972TIP3    H151111   2.434   3.131  10.683  1.7145  0.4457  1.4329
 8972TIP3    H251112   2.531   3.143  10.567 -2.5356 -1.1527 -2.5888
 8973TIP3   OH251113   2.085   1.085   7.977  0.3120  0.3904  0.1415
 8973TIP3    H151114   2.167   1.110   7.935  0.6086 -0.6925  0.0401
 8973TIP3    H251115   2.052   1.166   8.016  0.6593  1.1566 -1.1031
 8974TIP3   OH251116   3.287   2.231   6.636  0.0629 -0.2174  0.5838
 8974TIP3    H151117   3.201   2.191   6.650 -1.1742  1.7597 -0.8482
 8974TIP3    H251118   3.317   2.255   6.723 -0.5831 -1.4321  1.1548
 8975TIP3   OH251119   0.689   2.894   7.277  0.3709  0.2939  0.0844
 8975TIP3    H151120   0.753   2.896   7.205  0.2591 -1.2170 -0.1080
 8975TIP3    H251121   0.675   2.985   7.300 -0.2787  0.9118 -2.4278
 8976TIP3   OH251122   2.243   6.434   7.783 -0.2251 -0.6097 -0.4653
 8976TIP3    H151123   2.256   6.490   7.860 -0.6357 -1.9389  0.6028
 8976TIP3    H251124   2.302   6.471   7.717 -0.3718  0.9831  0.2319
 8977TIP3   OH251125   4.298   5.476   7.656 -0.0006 -0.2600 -0.0808
 8977TIP3    H151126   4.393   5.461   7.661  0.1678  0.8832  0.3716
 8977TIP3    H251127   4.276   5.457   7.565  0.7355 -0.1296 -0.2952
 8978TIP3   OH251128   0.342   3.781   6.527 -0.1834  0.4306  0.6662
 8978TIP3    H151129   0.302   3.807   6.444 -1.6010 -4.5880 -0.5594
 8978TIP3    H251130   0.436   3.775   6.508 -0.4072  0.1033 -0.3936
 8979TIP3   OH251131   0.516   1.599   8.791  0.3436  0.2798 -0.0572
 8979TIP3    H151132   0.563   1.556   8.863  0.7847 -0.0243 -0.5190
 8979TIP3    H251133   0.582   1.609   8.722 -0.3118 -0.3036 -0.7813
 8980TIP3   OH251134   1.274   5.384   8.165 -1.0136 -0.0300 -0.5617
 8980TIP3    H151135   1.361   5.411   8.193 -1.6425  0.6014  0.8716
 8980TIP3    H251136   1.222   5.465   8.166 -1.9292 -0.6030 -0.1543
 8981TIP3   OH251137   0.128   1.149   9.241  0.3493 -0.2506 -0.1540
 8981TIP3    H151138   0.176   1.115   9.317  0.2708  0.1641  0.0903
 8981TIP3    H251139   0.196   1.188   9.186  0.3682 -0.2317 -0.1183
 8982TIP3   OH251140   3.841   5.325   8.522 -0.2154 -0.0716  0.2418
 8982TIP3    H151141   3.776   5.326   8.451 -0.6673  0.1559  0.6559
 8982TIP3    H251142   3.833   5.411   8.563 -0.7448 -0.6029  1.2828
 8983TIP3   OH251143   1.404   5.638   7.793  0.3967 -0.5935 -0.4905
 8983TIP3    H151144   1.363   5.722   7.775  1.4008 -0.0542 -0.3644
 8983TIP3    H251145   1.331   5.576   7.801 -0.3506  0.2538 -0.6233
 8984TIP3   OH251146   6.614   2.431  10.037  0.0771 -0.2151 -0.3063
 8984TIP3    H151147   6.534   2.378  10.033 -0.1904  0.0715  0.8586
 8984TIP3    H251148   6.685   2.368  10.029 -0.1414 -1.1893  3.4668
 8985TIP3   OH251149   1.085   2.623   8.464  0.2463 -0.3632 -0.7526
 8985TIP3    H151150   1.100   2.715   8.488 -1.1470 -0.3542  0.3060
 8985TIP3    H251151   1.124   2.573   8.536 -0.1153 -0.5212 -0.6584
 8986TIP3   OH251152   5.586   6.237   6.402  0.1112 -0.0588  0.1995
 8986TIP3    H151153   5.595   6.261   6.310  1.2811 -0.9438  0.0660
 8986TIP3    H251154   5.567   6.320   6.446  0.9951  0.6141 -0.6474
 8987TIP3   OH251155   2.849   4.347   6.523 -0.1962 -0.2793 -0.2670
 8987TIP3    H151156   2.800   4.277   6.479 -0.8522  0.1353 -0.1961
 8987TIP3    H251157   2.933   4.306   6.545 -0.2997 -0.8334 -0.8686
 8988TIP3   OH251158   0.778   4.481   6.819 -0.0388  0.5017  0.0421
 8988TIP3    H151159   0.791   4.497   6.912  0.8300  3.7204 -0.4971
 8988TIP3    H251160   0.687   4.453   6.811  0.0375 -0.3843  1.8680
 8989TIP3   OH251161   0.651   1.658   8.554 -0.0268 -0.2084 -0.2745
 8989TIP3    H151162   0.601   1.711   8.492  0.0570 -1.0664 -1.0989
 8989TIP3    H251163   0.731   1.636   8.507  1.0048  0.8807  0.9189
 8990TIP3   OH251164   4.129   4.533   8.026 -0.3091  0.0582 -0.0528
 8990TIP3    H151165   4.153   4.441   8.035  0.0829  0.1254 -0.3864
 8990TIP3    H251166   4.056   4.545   8.087 -1.8255 -0.9953 -1.5648
 8991TIP3   OH251167   2.998   5.647   7.214 -0.3024 -0.2049 -0.0069
 8991TIP3    H151168   3.031   5.594   7.287  1.3657 -0.2549 -0.7447
 8991TIP3    H251169   2.978   5.732   7.253  1.0914 -0.0563  0.4367
 8992TIP3   OH251170   2.510   2.945   6.475  0.1222 -0.0404 -0.5026
 8992TIP3    H151171   2.482   2.980   6.391 -1.4696 -2.6121 -1.1479
 8992TIP3    H251172   2.462   2.996   6.540  0.2267  0.9733 -1.2084
 8993TIP3   OH251173   0.111   6.379   8.174  0.0817 -0.5616 -0.2527
 8993TIP3    H151174   0.119   6.302   8.231  0.9607  0.2719  0.7805
 8993TIP3    H251175   0.032   6.424   8.205 -0.5914 -1.1538 -1.0353
 8994TIP3   OH251176   2.293   6.233   8.287 -0.4892  1.1108  0.1007
 8994TIP3    H151177   2.346   6.295   8.238  0.2755  0.9505  0.7033
 8994TIP3    H251178   2.261   6.283   8.362  0.0962  0.7925  0.5655
 8995TIP3   OH251179   6.206   4.402   8.830 -0.0374 -0.1912  0.2242
 8995TIP3    H151180   6.113   4.383   8.822 -0.1201  0.2850 -0.0012
 8995TIP3    H251181   6.216   4.490   8.793  0.1763  0.5553  1.9598
 8996TIP3   OH251182   4.827   0.041   8.817 -0.1133  0.1567  0.2535
 8996TIP3    H151183   4.779   0.122   8.834  0.5334  0.6370 -0.1480
 8996TIP3    H251184   4.882   0.028   8.894  1.2228  1.1729 -0.4741
 8997TIP3   OH251185   2.209   1.862   8.872 -0.2758 -0.2854 -0.5943
 8997TIP3    H151186   2.269   1.930   8.902 -1.5728  0.2210  0.9176
 8997TIP3    H251187   2.165   1.831   8.951 -1.4077 -1.2570 -1.5632
 8998TIP3   OH251188   1.239   2.134   8.648  0.3821  0.0675  0.1961
 8998TIP3    H151189   1.182   2.065   8.682 -1.4733  0.9486 -0.9998
 8998TIP3    H251190   1.276   2.175   8.726  0.0877 -1.0815  0.9683
 8999TIP3   OH251191   4.609   4.687   7.411  1.0675  0.5115  0.0963
 8999TIP3    H151192   4.635   4.606   7.369  1.4244  0.9062 -0.4588
 8999TIP3    H251193   4.591   4.663   7.502 -0.9993 -0.6081 -0.5451
 9000TIP3   OH251194   1.099   3.363   6.409  0.9017 -0.0098  0.1632
 9000TIP3    H151195   1.172   3.347   6.469  2.4975  1.7279 -1.1957
 9000TIP3    H251196   1.137   3.413   6.338 -1.1142 -1.2056 -1.8936
 9001TIP3   OH251197   1.634   1.950   7.033  0.3600 -0.5261  0.4255
 9001TIP3    H151198   1.720   1.974   6.997 -0.1720 -0.1056 -0.5933
 9001TIP3    H251199   1.622   1.859   7.006 -0.0188 -0.2250 -0.4503
 9002TIP3   OH251200   0.916   5.178   7.020  0.0223 -0.2719 -0.0709
 9002TIP3    H151201   0.958   5.260   7.044  0.4331 -0.7056  0.7357
 9002TIP3    H251202   0.857   5.159   7.093 -1.7962  0.4454 -1.2946
 9003TIP3   OH251203   2.403   0.908   7.885 -0.0982 -0.0257 -0.2480
 9003TIP3    H151204   2.378   0.994   7.919  1.4342 -0.4141  2.1559
 9003TIP3    H251205   2.473   0.926   7.823  0.0233  0.4860  0.0351
 9004TIP3   OH251206   6.612   1.027   9.634  0.8727 -0.1943 -0.1399
 9004TIP3    H151207   6.518   1.028   9.615  0.5674 -0.0242  1.2836
 9004TIP3    H251208   6.638   0.935   9.625  0.4617 -0.3239 -0.0079
 9005TIP3   OH251209   0.961   6.710   6.975  0.1360 -0.1794 -0.0045
 9005TIP3    H151210   0.868   6.700   6.957 -0.1452 -1.8817  2.0076
 9005TIP3    H251211   0.977   6.656   7.052  2.5632  1.0217  0.4492
 9006TIP3   OH251212   4.763   3.011   7.253 -0.1948  0.6413  0.8729
 9006TIP3    H151213   4.754   3.073   7.326 -0.2986  1.3197  0.2906
 9006TIP3    H251214   4.748   3.064   7.175 -0.0024 -0.0660  0.3520
 9007TIP3   OH251215   3.354   0.197   8.338  0.1905 -0.5090 -0.4550
 9007TIP3    H151216   3.436   0.236   8.308 -0.6606  0.7656 -1.1975
 9007TIP3    H251217   3.348   0.220   8.430  0.6806 -0.6335 -0.3909
 9008TIP3   OH251218   6.484   5.300   7.274 -1.0373 -0.1088 -0.2374
 9008TIP3    H151219   6.420   5.235   7.304 -0.7567 -0.1690  0.2517
 9008TIP3    H251220   6.442   5.384   7.292  0.2617 -0.0117  3.2199
 9009TIP3   OH251221   4.848   4.495   9.211 -0.2755  0.7468 -0.1838
 9009TIP3    H151222   4.906   4.431   9.169 -0.0703 -0.1071  1.3578
 9009TIP3    H251223   4.891   4.579   9.196 -0.7515  0.6495 -2.5944
 9010TIP3   OH251224   1.791   3.430   6.836  0.1158 -0.4150  0.2486
 9010TIP3    H151225   1.759   3.514   6.869 -1.8165 -1.0893  0.2518
 9010TIP3    H251226   1.831   3.388   6.912  0.5390  0.2414  0.3955
 9011TIP3   OH251227   2.499   0.224   8.243 -0.5439  0.0761 -0.0289
 9011TIP3    H151228   2.440   0.296   8.222  1.0077  1.5487  0.4442
 9011TIP3    H251229   2.578   0.267   8.276  0.1996 -1.8755  0.8620
 9012TIP3   OH251230   5.193   4.401   9.289 -0.3916  0.0911  0.5483
 9012TIP3    H151231   5.282   4.375   9.312 -0.1610 -0.4487 -0.8397
 9012TIP3    H251232   5.163   4.454   9.363  2.0277  2.5830 -0.0816
 9013TIP3   OH251233   2.188   2.346   6.417 -0.0513 -0.3208  0.7177
 9013TIP3    H151234   2.202   2.361   6.510  0.7962 -2.3231  0.9554
 9013TIP3    H251235   2.096   2.320   6.410 -0.0888 -0.2644  1.0022
 9014TIP3   OH251236   2.517   4.487   8.540  0.1040  0.5684 -0.6782
 9014TIP3    H151237   2.576   4.451   8.607 -0.8947 -1.1399 -0.6718
 9014TIP3    H251238   2.553   4.456   8.457  1.1927  2.4762 -0.9956
 9015TIP3   OH251239   6.680   4.455   7.033 -0.5667  0.0446 -0.0056
 9015TIP3    H151240   6.687   4.445   6.938  2.0168 -1.5760  0.2649
 9015TIP3    H251241   6.723   4.539   7.051  0.6542 -0.5515 -0.1120
 9016TIP3   OH251242   1.794   4.710   7.442 -0.3873 -0.1552 -0.6751
 9016TIP3    H151243   1.878   4.728   7.485 -0.2940 -1.4879 -0.2447
 9016TIP3    H251244   1.742   4.667   7.510 -2.2892  2.6387 -0.1934
 9017TIP3   OH251245   4.773   1.878   9.785  0.3422 -0.2244  0.6572
 9017TIP3    H151246   4.684   1.911   9.790  0.7516  0.8036  1.5375
 9017TIP3    H251247   4.773   1.818   9.710 -0.7225  0.8735 -0.2502
 9018TIP3   OH251248   4.009   0.570   6.585  0.6603  0.0157 -0.1153
 9018TIP3    H151249   3.986   0.588   6.676 -0.2973  0.1275 -0.3658
 9018TIP3    H251250   4.105   0.573   6.583  0.6642  1.5398  0.5882
 9019TIP3   OH251251   4.937   6.512   8.626 -0.4155  0.4183  0.7371
 9019TIP3    H151252   4.973   6.532   8.713  1.0056  0.3503  0.1953
 9019TIP3    H251253   5.009   6.468   8.581 -1.8096 -1.4294  0.2004
 9020TIP3   OH251254   4.723   0.325   7.656 -0.1831  0.5106 -0.1477
 9020TIP3    H151255   4.631   0.309   7.635  0.1059  0.0812 -1.1419
 9020TIP3    H251256   4.749   0.252   7.711 -0.1852  0.1410 -0.6382
 9021TIP3   OH251257   6.293   0.219   8.241 -0.0522 -0.0456 -0.7641
 9021TIP3    H151258   6.212   0.221   8.189 -0.9587  1.5856  0.6017
 9021TIP3    H251259   6.337   0.301   8.219 -0.0146  0.2478  0.3435
 9022TIP3   OH251260   5.183   1.970   6.950  0.0615  0.1167 -0.3886
 9022TIP3    H151261   5.140   2.054   6.934  0.3031  0.4063  0.4314
 9022TIP3    H251262   5.119   1.920   7.001  0.1740  0.0412 -0.3214
 9023TIP3   OH251263   5.181   2.691   7.960 -0.2118  0.1985 -0.1949
 9023TIP3    H151264   5.257   2.692   8.018 -0.9876 -0.2187  0.8706
 9023TIP3    H251265   5.214   2.725   7.877  0.5331  2.6612  0.9946
 9024TIP3   OH251266   5.428   4.145   8.614  0.1474  0.2921  0.1741
 9024TIP3    H151267   5.349   4.199   8.621  0.9845  1.4448  1.3302
 9024TIP3    H251268   5.474   4.181   8.538  0.4472  0.8905  0.6275
 9025TIP3   OH251269   1.922   0.195   6.375  0.0146 -0.2111 -0.3600
 9025TIP3    H151270   2.004   0.214   6.421 -0.9860 -1.6675  2.2124
 9025TIP3    H251271   1.942   0.117   6.323  0.5975  0.2372 -0.8286
 9026TIP3   OH251272   3.155   0.400   6.311  0.3204  0.2355 -0.2799
 9026TIP3    H151273   3.185   0.383   6.222 -0.9460 -0.6355 -0.5773
 9026TIP3    H251274   3.176   0.492   6.327  0.3196  0.4797 -1.5850
 9027TIP3   OH251275   1.940   1.863   7.202  0.2467 -0.1976  0.2118
 9027TIP3    H151276   2.001   1.843   7.131 -0.1305  0.6284 -0.3690
 9027TIP3    H251277   1.983   1.935   7.250 -0.3632  0.5499 -0.3429
 9028TIP3   OH251278   3.116   1.935   7.824 -0.0999 -0.2631  0.1401
 9028TIP3    H151279   3.051   1.946   7.755 -0.5689 -1.7064  0.3118
 9028TIP3    H251280   3.109   1.842   7.848  2.3173 -0.5615 -0.1245
 9029TIP3   OH251281   2.487   4.794   7.313 -0.2079 -0.4365 -0.4080
 9029TIP3    H151282   2.511   4.730   7.380  0.0509 -0.4487 -0.5080
 9029TIP3    H251283   2.392   4.801   7.319 -0.1260  0.0393  0.3831
 9030TIP3   OH251284   0.648   2.967   7.850 -0.5444  0.5529  0.0362
 9030TIP3    H151285   0.641   3.049   7.899  0.6702  0.8813 -0.3112
 9030TIP3    H251286   0.723   2.980   7.792 -1.1289 -0.3336 -0.9420
 9031TIP3   OH251287   4.293   4.466   7.165  0.2226 -0.4820 -0.0590
 9031TIP3    H151288   4.211   4.420   7.178  0.5023 -0.9998 -0.0901
 9031TIP3    H251289   4.308   4.513   7.247 -1.0956  1.2539 -0.7517
 9032TIP3   OH251290   2.902   5.079   8.789  0.7138  0.6234 -0.5775
 9032TIP3    H151291   2.829   5.019   8.774 -0.6604  2.0882  0.0784
 9032TIP3    H251292   2.916   5.078   8.883  2.1499 -0.2680 -0.7540
 9033TIP3   OH251293   6.128   5.359   7.783  0.1918 -0.0300  0.0176
 9033TIP3    H151294   6.122   5.307   7.703 -1.8993  0.7128 -0.3647
 9033TIP3    H251295   6.088   5.304   7.851 -1.5753  0.8102 -0.2880
 9034TIP3   OH251296   0.582   5.956   8.880  0.2405  0.3698 -0.0110
 9034TIP3    H151297   0.537   6.003   8.810 -1.2793 -0.6245  0.2342
 9034TIP3    H251298   0.577   6.014   8.956  0.1208  0.6158 -0.2063
 9035TIP3   OH251299   4.648   4.947   6.758  0.3311 -0.2612  0.1872
 9035TIP3    H151300   4.575   4.994   6.718  1.8663  0.1089 -2.3681
 9035TIP3    H251301   4.660   4.870   6.703  2.1434 -0.0724  0.2462
 9036TIP3   OH251302   4.406   6.572   7.308 -0.1987  0.4412  0.1742
 9036TIP3    H151303   4.324   6.567   7.357 -1.3298 -0.8148 -1.7099
 9036TIP3    H251304   4.388   6.635   7.238  1.3540  2.1379  1.2194
 9037TIP3   OH251305   1.005   2.478   9.345 -0.6644 -0.1160 -0.7880
 9037TIP3    H151306   0.951   2.515   9.415 -1.7632  0.2511 -1.8031
 9037TIP3    H251307   1.078   2.540   9.337  1.3241 -1.8134  2.1885
 9038TIP3   OH251308   3.165   5.696   6.979  0.2701  0.4540 -0.7125
 9038TIP3    H151309   3.250   5.732   7.002  0.3070  0.3807 -0.7340
 9038TIP3    H251310   3.123   5.678   7.063  0.6217 -0.3199 -0.6964
 9039TIP3   OH251311   2.641   6.003   8.741  0.5011  0.9127 -0.1028
 9039TIP3    H151312   2.623   6.020   8.648  0.4149  2.7698  0.2168
 9039TIP3    H251313   2.735   5.987   8.745  0.5646  1.1817 -0.4642
 9040TIP3   OH251314   2.121   5.459   7.734 -0.2939 -0.6046  0.0597
 9040TIP3    H151315   2.041   5.430   7.777 -0.2745 -0.2216  0.3642
 9040TIP3    H251316   2.180   5.384   7.741 -1.4932 -1.9288 -2.5880
 9041TIP3   OH251317   2.484   3.994   8.575 -0.2873  0.5496  0.1360
 9041TIP3    H151318   2.481   3.991   8.479  0.9193  0.9186  0.0702
 9041TIP3    H251319   2.463   3.905   8.603 -5.1767  1.2875 -0.2445
 9042TIP3   OH251320   6.398   3.146   9.276  0.4277 -0.0168 -0.1852
 9042TIP3    H151321   6.457   3.201   9.327 -0.7563  2.2696 -1.1384
 9042TIP3    H251322   6.416   3.170   9.185 -2.2045  1.1250 -0.4933
 9043TIP3   OH251323   3.081   1.217   8.801  0.1967 -0.7113 -0.3865
 9043TIP3    H151324   3.002   1.163   8.801 -1.6636  1.8493 -1.4497
 9043TIP3    H251325   3.095   1.237   8.894 -0.5301 -0.9997 -0.2058
 9044TIP3   OH251326   4.477   1.193   8.091 -0.3109 -0.3999 -0.5664
 9044TIP3    H151327   4.420   1.247   8.037 -0.9136  0.2626  0.6897
 9044TIP3    H251328   4.455   1.103   8.067 -0.1829 -0.1157 -1.7902
 9045TIP3   OH251329   1.967   1.726   8.365  0.3486 -0.3127  0.1888
 9045TIP3    H151330   1.891   1.781   8.347  0.2244 -0.1570  1.1582
 9045TIP3    H251331   1.989   1.744   8.456  1.9482  0.1420 -0.2507
 9046TIP3   OH251332   1.519   2.018   6.451 -0.4988 -0.2712  0.3260
 9046TIP3    H151333   1.519   2.090   6.387  1.5101  0.1602  0.7528
 9046TIP3    H251334   1.447   1.961   6.422  0.8640 -0.5913 -2.9274
 9047TIP3   OH251335   6.280   0.068   9.075 -0.1353 -0.9757  0.0103
 9047TIP3    H151336   6.291   0.130   9.147  0.8248  0.5047 -1.3496
 9047TIP3    H251337   6.216   0.004   9.108 -0.2212  0.0211  1.9080
 9048TIP3   OH251338   4.727   3.988   7.301  0.5208  0.6210 -0.3732
 9048TIP3    H151339   4.721   3.893   7.309  2.5154  0.4274 -0.6141
 9048TIP3    H251340   4.765   4.003   7.214 -0.9866  1.7156 -0.8803
 9049TIP3   OH251341   2.139   1.447   8.007  0.0646 -0.7222  0.1417
 9049TIP3    H151342   2.079   1.519   8.022  0.2154 -0.3456 -1.0028
 9049TIP3    H251343   2.115   1.381   8.073 -1.1901 -0.3317  0.0864
 9050TIP3   OH251344   0.143   0.453   8.586 -0.7889  0.1445 -0.0191
 9050TIP3    H151345   0.200   0.517   8.629 -1.5605  0.5262  0.4564
 9050TIP3    H251346   0.195   0.374   8.581 -0.4987  0.2400  1.1754
 9051TIP3   OH251347   5.121   2.931   6.217 -0.0757 -0.7346 -0.1470
 9051TIP3    H151348   5.201   2.929   6.164  0.1906 -0.1294  0.2243
 9051TIP3    H251349   5.095   2.839   6.223  1.9472 -1.2689  1.7667
 9052TIP3   OH251350   5.098   4.249   7.522 -0.2862  0.4348 -0.3976
 9052TIP3    H151351   5.017   4.225   7.568 -0.2815  0.7325 -0.2351
 9052TIP3    H251352   5.099   4.192   7.445 -1.1975  1.1784 -0.9833
 9053TIP3   OH251353   0.885   3.771   7.044 -0.3897 -0.0315 -0.4693
 9053TIP3    H151354   0.810   3.713   7.031 -0.6023  0.6035 -2.2471
 9053TIP3    H251355   0.884   3.829   6.969  1.2435  0.7266  0.0547
 9054TIP3   OH251356   2.188   4.548   9.044  0.0265 -0.0596 -0.1621
 9054TIP3    H151357   2.098   4.518   9.036 -0.2538  0.4455  0.8765
 9054TIP3    H251358   2.184   4.621   9.106  1.2548 -0.5542  0.5389
 9055TIP3   OH251359   3.438   1.159   7.350  0.6695 -0.3874 -0.6978
 9055TIP3    H151360   3.426   1.169   7.445  0.3462 -0.9790 -0.6742
 9055TIP3    H251361   3.424   1.247   7.315  1.8763  0.0727 -0.0905
 9056TIP3   OH251362   1.140   5.750   7.554 -0.2781  0.7189 -0.9774
 9056TIP3    H151363   1.201   5.772   7.624 -0.2571  1.1971 -1.1437
 9056TIP3    H251364   1.195   5.730   7.478 -0.2394 -1.2015 -0.4914
 9057TIP3   OH251365   6.273   2.619  10.846 -0.2747  0.0757 -0.0397
 9057TIP3    H151366   6.330   2.652  10.915  0.6144  0.3087 -0.8563
 9057TIP3    H251367   6.321   2.638  10.765 -0.9491 -0.8523 -0.6758
 9058TIP3   OH251368   4.765   0.150   7.862 -0.2794  0.3726 -0.0124
 9058TIP3    H151369   4.831   0.081   7.861 -0.4316  0.2022  0.9129
 9058TIP3    H251370   4.745   0.163   7.955 -2.0876 -0.0897 -0.3084
 9059TIP3   OH251371   5.059   0.086   7.724 -0.2387  0.1235  0.0093
 9059TIP3    H151372   4.971   0.059   7.697 -0.3239  0.1437  0.2711
 9059TIP3    H251373   5.093   0.012   7.773 -1.0255  1.0193  1.9928
 9060TIP3   OH251374   4.393   3.214   7.006 -0.4484 -0.4667 -0.1036
 9060TIP3    H151375   4.381   3.152   7.078 -0.0897 -0.1108  0.2654
 9060TIP3    H251376   4.347   3.293   7.035  0.3709 -0.0555  0.0808
 9061TIP3   OH251377   3.465   1.982   7.831 -0.1417  0.0597  0.2752
 9061TIP3    H151378   3.440   1.950   7.917  0.4851  0.9595  0.8143
 9061TIP3    H251379   3.453   2.077   7.836  0.5723  0.1986 -0.3904
 9062TIP3   OH251380   0.467   5.854   7.952  0.0395  0.2877  0.5440
 9062TIP3    H151381   0.520   5.896   7.885  0.1659 -1.2134 -0.3353
 9062TIP3    H251382   0.475   5.911   8.029  1.2436  1.1509 -0.1972
 9063TIP3   OH251383   6.172   5.174   6.826 -0.0043 -0.0409  0.1003
 9063TIP3    H151384   6.175   5.264   6.861  0.4349  0.0995 -0.2791
 9063TIP3    H251385   6.105   5.177   6.758 -0.0120 -0.0023  0.1092
 9064TIP3   OH251386   2.450   4.946   7.771  0.0089 -0.1990  0.2485
 9064TIP3    H151387   2.438   4.891   7.694  1.6277 -0.3109  0.0378
 9064TIP3    H251388   2.434   4.887   7.845 -2.9931  0.2423  0.0889
 9065TIP3   OH251389   2.226   0.995   7.312  0.1897  0.0426 -0.6062
 9065TIP3    H151390   2.288   1.064   7.290 -0.4501  0.4387 -1.2205
 9065TIP3    H251391   2.208   0.952   7.228  0.3121 -0.6435 -0.2868
 9066TIP3   OH251392   0.990   2.234   6.253  0.3943  0.0867  0.2076
 9066TIP3    H151393   0.974   2.244   6.159  0.4006  1.0408  0.2983
 9066TIP3    H251394   0.921   2.285   6.295  0.9307  0.4294  0.6957
 9067TIP3   OH251395   2.591   4.161   9.417 -0.0720  0.2569 -0.0137
 9067TIP3    H151396   2.583   4.126   9.506 -0.9621 -1.2819 -0.6732
 9067TIP3    H251397   2.666   4.115   9.380 -1.7025 -1.6096 -1.1400
 9068TIP3   OH251398   2.507   2.636   7.095  0.6231 -1.0485 -0.3521
 9068TIP3    H151399   2.562   2.661   7.020  0.8648  0.1250  0.1889
 9068TIP3    H251400   2.452   2.713   7.110  0.1417 -1.5155  0.2887
 9069TIP3   OH251401   4.263   5.173   9.275 -0.1183 -0.6737  0.6718
 9069TIP3    H151402   4.197   5.143   9.337 -0.2466 -0.5223  0.6103
 9069TIP3    H251403   4.283   5.263   9.303 -1.4870  0.0570 -0.5606
 9070TIP3   OH251404   1.246   3.539   7.669  0.2462 -0.4382  0.2196
 9070TIP3    H151405   1.282   3.453   7.691 -0.9142 -1.2394 -0.8506
 9070TIP3    H251406   1.151   3.526   7.669  0.0700  0.7028 -0.5462
 9071TIP3   OH251407   0.800   0.600   7.594 -0.4165  0.2716  0.2087
 9071TIP3    H151408   0.736   0.582   7.662  1.1533  0.7494  1.8776
 9071TIP3    H251409   0.875   0.639   7.640  2.0143 -2.2419 -1.3049
 9072TIP3   OH251410   4.945   0.822   6.982 -0.0926 -0.3580 -0.3468
 9072TIP3    H151411   5.036   0.851   6.992  0.4809 -2.4720  1.1035
 9072TIP3    H251412   4.949   0.756   6.914 -0.2611 -1.4912  0.7192
 9073TIP3   OH251413   0.046   4.231   9.984  0.3987 -0.3153 -0.1150
 9073TIP3    H151414   0.111   4.221  10.053 -0.4599 -1.1454  0.5845
 9073TIP3    H251415   0.067   4.163   9.920 -0.9258 -1.9063  1.0567
 9074TIP3   OH251416   0.778   1.132   6.577  0.2037  0.1834  0.0234
 9074TIP3    H151417   0.723   1.055   6.564  1.5033 -0.5301 -1.6741
 9074TIP3    H251418   0.844   1.104   6.641  0.0654  0.2327  0.1886
 9075TIP3   OH251419   4.591   4.822   9.542  0.5526 -0.5288  0.2582
 9075TIP3    H151420   4.575   4.757   9.474  1.6536  0.1001 -0.6614
 9075TIP3    H251421   4.510   4.872   9.548  0.1006 -1.2490  0.1385
 9076TIP3   OH251422   4.588   0.571   8.362  0.6539 -0.0965  0.6094
 9076TIP3    H151423   4.680   0.551   8.378  0.6105 -0.7582  0.0682
 9076TIP3    H251424   4.542   0.491   8.385  0.1428  0.4100  1.4177
 9077TIP3   OH251425   6.519   4.046   8.706  0.2627  0.1628  0.1057
 9077TIP3    H151426   6.448   4.068   8.766 -0.2463  0.4914 -0.5961
 9077TIP3    H251427   6.598   4.074   8.752 -0.0428 -0.3355  0.9573
 9078TIP3   OH251428   2.088   3.185   6.720  0.1633 -0.3888  0.0164
 9078TIP3    H151429   2.144   3.252   6.682  0.1194 -0.5005 -0.2461
 9078TIP3    H251430   2.065   3.219   6.807 -1.4662  0.8840 -0.8602
 9079TIP3   OH251431   4.163   4.696   8.654 -0.0163 -0.3425 -0.1705
 9079TIP3    H151432   4.151   4.788   8.635  2.3127  0.4865  1.8066
 9079TIP3    H251433   4.079   4.668   8.692  0.4745  2.2281  3.3026
 9080TIP3   OH251434   3.074   4.461  10.217  0.2973 -0.0597 -0.0147
 9080TIP3    H151435   3.007   4.401  10.183  0.1070  0.9658 -1.5515
 9080TIP3    H251436   3.155   4.432  10.176  0.2815  0.4394 -0.4097
 9081TIP3   OH251437   2.545   1.308   7.738 -0.0399 -0.2935 -0.1183
 9081TIP3    H151438   2.608   1.378   7.756  0.6287 -1.1481  0.9924
 9081TIP3    H251439   2.540   1.304   7.642 -0.7133  1.7897 -0.2180
 9082TIP3   OH251440   0.791   1.949   6.891  0.7138  0.1602  0.4857
 9082TIP3    H151441   0.763   1.862   6.921  0.5282 -0.5989 -1.6454
 9082TIP3    H251442   0.871   1.967   6.940  0.6512 -1.1527  1.1176
 9083TIP3   OH251443   5.326   4.522   6.733 -0.1508 -0.7336  0.6031
 9083TIP3    H151444   5.383   4.576   6.677 -0.0328  0.4874  1.8581
 9083TIP3    H251445   5.310   4.576   6.810 -6.1823  0.7568 -1.1997
 9084TIP3   OH251446   0.795   3.225   7.294  0.3356  0.6070  0.7713
 9084TIP3    H151447   0.806   3.255   7.204 -1.0413 -0.0558  0.3514
 9084TIP3    H251448   0.857   3.277   7.345  3.7569 -1.4118 -0.9875
 9085TIP3   OH251449   4.563   6.429   8.825 -0.1452 -0.1922  0.5927
 9085TIP3    H151450   4.629   6.469   8.882  0.5498 -1.1252  0.4666
 9085TIP3    H251451   4.605   6.426   8.739 -1.3007  1.5044 -0.0846
 9086TIP3   OH251452   1.093   5.591   8.013  0.3958 -0.0367  0.2397
 9086TIP3    H151453   1.131   5.618   7.930  0.8187  1.2265  0.8067
 9086TIP3    H251454   1.009   5.639   8.018 -0.3766 -1.3108 -0.1416
 9087TIP3   OH251455   4.793   2.472   8.581  0.2229 -0.0168 -0.1345
 9087TIP3    H151456   4.840   2.478   8.664 -0.4611  0.2037  0.2395
 9087TIP3    H251457   4.802   2.558   8.541  0.7428 -0.1895 -0.3987
 9088TIP3   OH251458   4.273   1.850   8.190  0.5499  0.3277 -0.1646
 9088TIP3    H151459   4.241   1.904   8.263 -0.5414 -0.2064 -0.2221
 9088TIP3    H251460   4.344   1.900   8.152 -0.2107  1.5676  0.0025
 9089TIP3   OH251461   3.394   3.447   7.833  0.6318  0.3216  0.2222
 9089TIP3    H151462   3.386   3.540   7.814  1.7757  0.0826 -1.7624
 9089TIP3    H251463   3.477   3.439   7.880 -0.2039  0.4458  1.7632
 9090TIP3   OH251464   2.337   6.524   8.834  0.1022  0.2960  0.0383
 9090TIP3    H151465   2.421   6.514   8.789  0.2020 -0.8255  0.4370
 9090TIP3    H251466   2.323   6.619   8.838  1.0803  0.4780 -0.5209
 9091TIP3   OH251467   6.117   5.616   8.459  0.0207  0.6229 -0.5804
 9091TIP3    H151468   6.200   5.577   8.488 -1.2646 -2.1869 -0.3346
 9091TIP3    H251469   6.085   5.663   8.536  0.0835 -0.6791  0.2912
 9092TIP3   OH251470   6.628   5.856   6.758  0.0388 -0.0671  0.6281
 9092TIP3    H151471   6.547   5.892   6.721 -0.1792  0.0289  1.1893
 9092TIP3    H251472   6.690   5.929   6.754 -0.2464  0.2215  1.2684
 9093TIP3   OH251473   5.382   1.548   9.880 -0.4407 -0.6643 -0.5420
 9093TIP3    H151474   5.291   1.570   9.904 -0.7484  1.8399 -3.4187
 9093TIP3    H251475   5.435   1.598   9.941 -1.0351 -0.3195 -0.2935
 9094TIP3   OH251476   5.033   2.299   8.809 -0.2769  0.2189  0.2358
 9094TIP3    H151477   5.028   2.392   8.788  1.2163  0.7541  2.0103
 9094TIP3    H251478   5.115   2.289   8.857 -2.1346 -1.2578  3.4945
 9095TIP3   OH251479   0.610   5.342   8.290 -0.3866 -0.3480  0.8156
 9095TIP3    H151480   0.670   5.283   8.245  0.2691 -0.3408  1.6494
 9095TIP3    H251481   0.586   5.295   8.370  1.9807  1.3571  2.6847
 9096TIP3   OH251482   0.681   1.159   7.350 -0.2250 -0.2110  0.6143
 9096TIP3    H151483   0.597   1.187   7.385 -0.7294 -1.2483  0.2725
 9096TIP3    H251484   0.732   1.135   7.427  0.0302  1.1154  0.8714
 9097TIP3   OH251485   5.858   4.265   7.953 -0.1515 -0.2316 -0.2196
 9097TIP3    H151486   5.814   4.262   7.868  0.2339 -0.7493 -0.4032
 9097TIP3    H251487   5.798   4.315   8.009 -0.3860  0.1468 -0.8028
 9098TIP3   OH251488   0.077   5.455   8.284 -0.4540 -0.1479 -0.1783
 9098TIP3    H151489   0.141   5.480   8.350  0.8812  0.7482 -1.7483
 9098TIP3    H251490   0.022   5.389   8.327  1.8939 -1.4188  1.0432
 9099TIP3   OH251491   3.206   0.826   8.075 -0.6052  0.2061 -0.3572
 9099TIP3    H151492   3.283   0.773   8.056  0.0120 -0.2501  2.8385
 9099TIP3    H251493   3.151   0.818   7.997  2.4426  0.4372 -2.7187
 9100TIP3   OH251494   5.839   1.927   7.004 -0.0020 -0.4293 -0.1788
 9100TIP3    H151495   5.823   1.838   7.034 -0.7361 -0.0615  0.5691
 9100TIP3    H251496   5.757   1.974   7.022 -0.2706 -0.0173 -2.2127
 9101TIP3   OH251497   5.695   1.212   8.317  0.3097 -0.3377  0.3882
 9101TIP3    H151498   5.599   1.210   8.325  0.3503 -1.1310  0.7214
 9101TIP3    H251499   5.722   1.277   8.382  0.0218 -0.3368  0.5112
 9102TIP3   OH251500   2.101   1.765   7.465  0.1641  0.4600 -0.1562
 9102TIP3    H151501   2.111   1.840   7.524 -1.0704  0.4229  0.1253
 9102TIP3    H251502   2.034   1.792   7.402  1.3288  0.4271 -1.4610
 9103TIP3   OH251503   1.300   1.555   7.737 -0.2037 -0.1172  0.3042
 9103TIP3    H151504   1.357   1.564   7.661 -0.4845  1.5417  0.2494
 9103TIP3    H251505   1.324   1.628   7.794 -0.8501 -0.6142  1.2380
 9104TIP3   OH251506   5.067   2.082   7.648 -0.2332  0.0113 -0.0021
 9104TIP3    H151507   5.020   2.124   7.720  0.4829  0.6380  0.1226
 9104TIP3    H251508   5.111   2.154   7.603 -1.1568 -0.2943 -1.4640
 9105TIP3   OH251509   5.969   2.743   7.087 -0.2195  0.3215 -0.3475
 9105TIP3    H151510   5.895   2.719   7.143 -1.4226  1.3560 -1.4174
 9105TIP3    H251511   6.043   2.753   7.147 -1.0218 -0.4380  0.7971
 9106TIP3   OH251512   5.445   0.486   6.716 -0.1765  0.3060 -0.0545
 9106TIP3    H151513   5.414   0.474   6.626 -2.1828  1.6335  0.3958
 9106TIP3    H251514   5.372   0.457   6.770 -0.1536  2.2610  1.0996
 9107TIP3   OH251515   1.291   3.665   7.944 -0.6489 -0.0482 -0.4031
 9107TIP3    H151516   1.290   3.577   7.982  0.0683 -0.0182 -0.2895
 9107TIP3    H251517   1.263   3.651   7.853  0.5227 -0.5719 -0.7063
 9108TIP3   OH251518   5.435   4.269   8.109  0.1218  0.4127 -0.1494
 9108TIP3    H151519   5.443   4.178   8.080 -1.5421 -0.0019  0.5671
 9108TIP3    H251520   5.447   4.265   8.204  1.1590  1.1274 -0.2343
 9109TIP3   OH251521   0.540   3.245   7.037  0.5590 -0.4246 -0.5885
 9109TIP3    H151522   0.633   3.259   7.024  0.5593  0.1106 -0.0462
 9109TIP3    H251523   0.520   3.166   6.987  1.2890 -0.5081 -0.7507
 9110TIP3   OH251524   5.010   3.649   9.438 -0.3190  0.3543  0.7014
 9110TIP3    H151525   4.967   3.708   9.376 -0.2325 -1.0179 -0.7094
 9110TIP3    H251526   5.019   3.701   9.518 -0.1828  2.2860 -0.5043
 9111TIP3   OH251527   4.477   5.241   8.043 -0.4263 -0.4072  0.3450
 9111TIP3    H151528   4.514   5.153   8.048  0.8418  0.0069 -0.9073
 9111TIP3    H251529   4.441   5.247   7.954  0.9347  0.8384 -0.1637
 9112TIP3   OH251530   3.563   6.305   7.011  0.0956  0.1776 -0.6402
 9112TIP3    H151531   3.507   6.265   7.077 -0.0373  2.6348  0.8192
 9112TIP3    H251532   3.624   6.235   6.986 -0.4336 -1.0911  1.4038
 9113TIP3   OH251533   2.118   3.405   8.674 -0.0499  0.1086  0.0792
 9113TIP3    H151534   2.091   3.329   8.624 -1.7120  0.5990  0.1487
 9113TIP3    H251535   2.142   3.470   8.608 -0.9876  0.3183 -0.0762
 9114TIP3   OH251536   1.250   4.645   9.097  0.1743 -0.5811 -0.5591
 9114TIP3    H151537   1.289   4.653   9.184 -1.3411 -0.2302  0.1262
 9114TIP3    H251538   1.318   4.675   9.037  1.1203 -0.4790  0.5371
 9115TIP3   OH251539   4.530   2.291   7.263 -0.7224 -0.0330  0.1127
 9115TIP3    H151540   4.576   2.368   7.295 -1.0688 -0.4165  1.6226
 9115TIP3    H251541   4.487   2.255   7.341  1.4438 -3.1660  0.0008
 9116TIP3   OH251542   4.140   2.357   7.302 -0.3249  0.7063  0.4194
 9116TIP3    H151543   4.144   2.261   7.303 -1.5770  0.6411  0.0533
 9116TIP3    H251544   4.048   2.377   7.321 -1.2099  1.7212 -3.9486
 9117TIP3   OH251545   0.263   5.675   6.655 -0.4416 -0.6575  0.1043
 9117TIP3    H151546   0.175   5.653   6.622 -2.2394  3.9524  1.1384
 9117TIP3    H251547   0.253   5.678   6.750  0.9555 -0.4398  0.2646
 9118TIP3   OH251548   5.789   5.805   7.390 -0.1577 -0.1850 -0.3113
 9118TIP3    H151549   5.739   5.811   7.471 -0.0149 -1.3631 -0.1258
 9118TIP3    H251550   5.725   5.774   7.325  0.2938 -1.6086 -0.0927
 9119TIP3   OH251551   2.581   1.250   6.843 -0.6065  0.1981 -0.4468
 9119TIP3    H151552   2.576   1.343   6.863 -3.0319  0.1867 -0.7401
 9119TIP3    H251553   2.505   1.233   6.788 -0.5071 -2.0589  0.0193
 9120TIP3   OH251554   2.401   0.570   9.397  0.4212  0.4221  0.2954
 9120TIP3    H151555   2.465   0.571   9.468 -0.8590 -3.4503  1.7788
 9120TIP3    H251556   2.393   0.478   9.374 -1.9110  1.1706 -2.4060
 9121TIP3   OH251557   0.761   6.256   9.388 -0.1248 -0.0575 -0.2233
 9121TIP3    H151558   0.796   6.317   9.324  0.5153  0.5289  0.6556
 9121TIP3    H251559   0.672   6.286   9.404 -0.3964 -0.3935 -1.0431
 9122TIP3   OH251560   1.562   5.758   8.053 -0.0964  0.1851  0.2640
 9122TIP3    H151561   1.532   5.753   7.962 -0.2044 -0.3326  0.3251
 9122TIP3    H251562   1.533   5.844   8.083 -0.2684  0.2643 -0.1187
 9123TIP3   OH251563   0.776   4.239   9.929 -0.3988  0.2196  0.0012
 9123TIP3    H151564   0.870   4.252   9.914 -0.3875 -0.9577 -1.1657
 9123TIP3    H251565   0.772   4.161   9.985 -0.6525  1.1649  1.3344
 9124TIP3   OH251566   1.657   4.288   6.235  0.3173 -0.2086  0.1352
 9124TIP3    H151567   1.676   4.350   6.305  1.4503  0.6494 -0.8906
 9124TIP3    H251568   1.741   4.244   6.218  0.1447 -0.1813 -0.8803
 9125TIP3   OH251569   3.070   0.739   7.592 -0.1973 -0.0994 -0.0235
 9125TIP3    H151570   3.001   0.765   7.531  0.6305 -0.4813 -1.1708
 9125TIP3    H251571   3.134   0.811   7.588  0.1161 -0.3768 -0.0120
 9126TIP3   OH251572   6.583   2.685   9.953 -0.2043  0.4912  0.1588
 9126TIP3    H151573   6.592   2.600   9.997  1.1399  0.7576  0.4219
 9126TIP3    H251574   6.504   2.723   9.991  0.3615  0.2707  1.5956
 9127TIP3   OH251575   4.650   1.331   7.672  0.3170 -0.6056  0.1158
 9127TIP3    H151576   4.614   1.395   7.611  0.7368 -0.3043  0.1771
 9127TIP3    H251577   4.573   1.289   7.712  0.0425 -0.1229  0.0951
 9128TIP3   OH251578   5.907   0.832   7.126  0.3442  0.0856 -0.1792
 9128TIP3    H151579   5.896   0.757   7.185  0.7312  0.7886  0.8064
 9128TIP3    H251580   5.967   0.890   7.172 -0.9248  1.5886 -0.3480
 9129TIP3   OH251581   3.847   4.574   7.179  0.9876  0.2495 -0.3749
 9129TIP3    H151582   3.892   4.618   7.107 -1.3730  2.0148 -0.9033
 9129TIP3    H251583   3.779   4.521   7.135  1.0214 -0.5240  0.4756
 9130TIP3   OH251584   2.001   6.462   8.045 -0.2272  0.2231 -0.0420
 9130TIP3    H151585   2.007   6.366   8.038  0.6730  0.1638  1.2241
 9130TIP3    H251586   2.088   6.493   8.019  0.3579  0.5037  2.0849
 9131TIP3   OH251587   3.676   1.838   8.156 -0.2496 -0.1996  0.7319
 9131TIP3    H151588   3.635   1.924   8.159  0.4037  0.1418  0.1177
 9131TIP3    H251589   3.770   1.855   8.168  0.0914 -0.6356 -1.0051
 9132TIP3   OH251590   2.199   0.492   8.566  0.2765 -0.2193  0.0013
 9132TIP3    H151591   2.244   0.561   8.517 -1.0705  1.8836  1.5797
 9132TIP3    H251592   2.268   0.448   8.615  0.9472  1.3616  0.5234
 9133TIP3   OH251593   2.234   2.122  10.233 -0.1980  0.4928 -0.4346
 9133TIP3    H151594   2.275   2.198  10.191 -0.5256  1.7908  1.4686
 9133TIP3    H251595   2.261   2.047  10.179  2.9959  1.5211 -0.4270
 9134TIP3   OH251596   0.971   6.552   9.451 -0.5520  0.0554 -0.2606
 9134TIP3    H151597   1.007   6.481   9.504 -0.4177  0.2883 -0.0361
 9134TIP3    H251598   0.970   6.518   9.362 -0.9583 -0.4137 -0.0821
 9135TIP3   OH251599   4.652   5.286   8.622  0.1680 -0.2581 -0.5424
 9135TIP3    H151600   4.694   5.208   8.584  0.8739  0.0099 -0.3325
 9135TIP3    H251601   4.660   5.274   8.716 -0.0976 -0.1289 -0.5025
 9136TIP3   OH251602   4.087   3.885   7.111  0.2498  0.3056 -0.3170
 9136TIP3    H151603   4.137   3.877   7.030 -0.1434 -3.5258 -0.3503
 9136TIP3    H251604   4.006   3.836   7.094 -0.1971  0.0557  2.1520
 9137TIP3   OH251605   4.914   3.930  10.405 -0.2943  0.3186  0.4743
 9137TIP3    H151606   5.007   3.934  10.427  0.3252  1.1015 -1.9469
 9137TIP3    H251607   4.886   4.021  10.401 -0.2590  0.2920 -1.9910
 9138TIP3   OH251608   2.389   0.488   8.984  0.4065 -0.3163 -0.7879
 9138TIP3    H151609   2.319   0.436   8.945 -0.1401  0.7755 -1.2952
 9138TIP3    H251610   2.447   0.510   8.911  1.1327 -0.9494 -0.4253
 9139TIP3   OH251611   3.035   0.496   8.650 -0.0096  0.2203 -0.1284
 9139TIP3    H151612   3.120   0.539   8.641 -0.5691  1.3534 -0.1606
 9139TIP3    H251613   3.051   0.406   8.623  1.1230  0.4816 -0.3887
 9140TIP3   OH251614   6.557   4.756   7.091 -0.6542 -0.3305  0.0470
 9140TIP3    H151615   6.538   4.850   7.095  2.2057  0.4247 -1.4846
 9140TIP3    H251616   6.496   4.723   7.024  0.1609  1.0455 -1.4611
 9141TIP3   OH251617   1.594   2.519   7.497 -0.2214 -0.0098 -0.3819
 9141TIP3    H151618   1.590   2.427   7.471 -1.0887  0.1881 -0.9937
 9141TIP3    H251619   1.505   2.540   7.526 -0.0737  0.6772 -0.3961
 9142TIP3   OH251620   2.930   4.650   8.820  0.2033  0.2727 -0.2109
 9142TIP3    H151621   2.989   4.710   8.866  0.7744  0.1050 -0.7079
 9142TIP3    H251622   2.923   4.686   8.732 -2.3719  1.6473  0.4742
 9143TIP3   OH251623   6.133   0.012   9.410  0.0443 -0.1424 -0.0964
 9143TIP3    H151624   6.223   0.039   9.392  0.2043 -1.8851 -2.2702
 9143TIP3    H251625   6.133  -0.083   9.393 -2.0563 -0.2838  0.4976
 9144TIP3   OH251626   2.014   4.178   8.936  0.2999  0.1885 -0.7388
 9144TIP3    H151627   1.983   4.114   9.000  0.6077  0.9603  0.2032
 9144TIP3    H251628   2.077   4.130   8.883 -2.1253 -1.3118 -2.4518
 9145TIP3   OH251629   0.223   0.788   7.690  0.5284 -0.2215  0.8642
 9145TIP3    H151630   0.135   0.752   7.681  0.4583  0.1613 -0.1191
 9145TIP3    H251631   0.210   0.879   7.717  0.5695  0.1247 -0.2195
 9146TIP3   OH251632   6.409   0.524   6.279 -0.1213 -0.1747  0.2200
 9146TIP3    H151633   6.383   0.497   6.191 -1.1621 -0.4679  0.6087
 9146TIP3    H251634   6.370   0.458   6.337 -0.9919  1.0154  1.0315
 9147TIP3   OH251635   5.355   2.616   7.458 -0.0561  0.2983  0.1966
 9147TIP3    H151636   5.442   2.637   7.426 -0.8034  0.6431 -1.7365
 9147TIP3    H251637   5.300   2.688   7.427 -1.4677 -1.1335 -0.7669
 9148TIP3   OH251638   2.528   2.917   9.752  0.1731  0.7113  0.4899
 9148TIP3    H151639   2.603   2.891   9.805 -0.0874  0.7230  0.8690
 9148TIP3    H251640   2.454   2.914   9.812 -0.0191  1.3870  0.2976
 9149TIP3   OH251641   4.880   5.018   8.850  0.3341  0.1218  0.3095
 9149TIP3    H151642   4.921   4.932   8.844  1.0151  0.4670 -0.0561
 9149TIP3    H251643   4.786   5.000   8.844  0.4178 -0.6714  1.1201
 9150TIP3   OH251644   2.705   1.287   8.609 -0.2884 -0.4632 -0.1508
 9150TIP3    H151645   2.662   1.347   8.671 -0.7235  0.1069 -0.9908
 9150TIP3    H251646   2.753   1.345   8.550 -1.9800 -0.8036 -1.9471
 9151TIP3   OH251647   4.039   5.138   8.306 -0.5212  0.3527  0.0133
 9151TIP3    H151648   4.122   5.186   8.306  0.6592 -1.5626 -1.4684
 9151TIP3    H251649   4.023   5.118   8.398  1.4671 -0.5073  0.2272
 9152TIP3   OH251650   5.464   4.382   9.778 -0.5520  0.4311  0.3161
 9152TIP3    H151651   5.470   4.304   9.832  0.2152  0.7124  0.6553
 9152TIP3    H251652   5.405   4.358   9.707  0.9116 -0.9858 -0.4846
 9153TIP3   OH251653   4.391   4.154   7.569 -0.3297 -0.9533 -0.2763
 9153TIP3    H151654   4.470   4.102   7.580  0.7449  0.2983 -1.7273
 9153TIP3    H251655   4.382   4.165   7.475 -0.6293  1.2595 -0.0454
 9154TIP3   OH251656   0.905   1.538   9.183 -0.0768 -0.2430  0.3056
 9154TIP3    H151657   0.962   1.532   9.260 -0.1206  2.2977  0.6407
 9154TIP3    H251658   0.825   1.580   9.216 -0.4199  0.1444 -0.9691
 9155TIP3   OH251659   6.627   4.348   9.320  0.1307 -0.2718 -0.2965
 9155TIP3    H151660   6.567   4.421   9.336 -1.2123 -1.0827 -1.4018
 9155TIP3    H251661   6.692   4.384   9.260 -1.1396 -0.2145 -1.7221
 9156TIP3   OH251662   3.759   4.653   8.502  0.1543  0.2025  0.0817
 9156TIP3    H151663   3.736   4.573   8.455  1.6685 -0.0260 -0.3336
 9156TIP3    H251664   3.823   4.697   8.445 -0.2048  1.4177  0.5747
 9157TIP3   OH251665   4.469   3.614   8.727 -0.2644  0.1954 -0.2815
 9157TIP3    H151666   4.527   3.637   8.800  1.9537 -1.0801 -1.5286
 9157TIP3    H251667   4.402   3.559   8.766  1.7847 -1.8094  0.6580
 9158TIP3   OH251668   4.542   2.212   9.424  0.4048  0.5390  0.2443
 9158TIP3    H151669   4.463   2.219   9.477 -0.2486 -0.9218 -0.4652
 9158TIP3    H251670   4.571   2.121   9.436  1.5983  0.8595 -0.0357
 9159TIP3   OH251671   6.168   5.115   8.866  0.6833 -0.2851 -0.0568
 9159TIP3    H151672   6.154   5.142   8.775  0.1245 -2.5551 -0.6950
 9159TIP3    H251673   6.136   5.026   8.870  2.0290 -0.7469  2.0299
 9160TIP3   OH251674   0.128   4.782   9.124  0.1544 -0.2215  0.3352
 9160TIP3    H151675   0.207   4.735   9.096 -1.8694 -1.6656 -3.7924
 9160TIP3    H251676   0.080   4.719   9.177 -0.4383 -1.2732 -1.3694
 9161TIP3   OH251677   3.466   6.132   8.102 -0.4111  0.0766  0.2138
 9161TIP3    H151678   3.374   6.106   8.097 -0.6944  1.1717 -0.7941
 9161TIP3    H251679   3.471   6.191   8.177 -1.1395  2.1615 -1.2917
 9162TIP3   OH251680   4.597   3.584   7.096  0.0967 -0.2126 -0.5060
 9162TIP3    H151681   4.665   3.608   7.159  0.8231  0.1711 -1.4220
 9162TIP3    H251682   4.644   3.557   7.018 -0.7095 -3.3616 -0.0411
 9163TIP3   OH251683   0.913   2.709   9.534 -0.0900  0.3731 -0.6741
 9163TIP3    H151684   0.977   2.733   9.600 -0.7467 -1.1751  0.5923
 9163TIP3    H251685   0.867   2.791   9.515 -1.1325  0.5885  2.2087
 9164TIP3   OH251686   0.308   4.997   8.217  0.1829  0.9632 -0.1795
 9164TIP3    H151687   0.292   5.047   8.297  0.6243  1.7281 -0.5566
 9164TIP3    H251688   0.389   4.949   8.234 -0.5557 -0.1132  0.4045
 9165TIP3   OH251689   4.091   6.322   7.908 -0.3066 -0.2292  0.6696
 9165TIP3    H151690   4.045   6.238   7.905 -0.2656 -0.2228 -0.8599
 9165TIP3    H251691   4.152   6.313   7.982  1.8381 -2.7472 -1.1869
 9166TIP3   OH251692   6.606   5.727   7.048  0.0906 -0.1468  0.2662
 9166TIP3    H151693   6.612   5.774   7.131 -2.2120  1.4057 -0.3768
 9166TIP3    H251694   6.569   5.790   6.987  1.4016 -1.3550 -1.9013
 9167TIP3   OH251695   3.090   4.536   8.299 -0.1809 -0.1412  0.5189
 9167TIP3    H151696   3.126   4.537   8.210 -0.4223  0.3489  0.4254
 9167TIP3    H251697   3.000   4.568   8.289  0.7683  3.2014  1.3609
 9168TIP3   OH251698   0.078   4.267   7.965  0.4755 -0.7346  0.5063
 9168TIP3    H151699   0.139   4.264   7.891  0.9479  0.4902  0.8207
 9168TIP3    H251700   0.022   4.191   7.953  1.1606 -1.0902 -0.5827
 9169TIP3   OH251701   1.830   4.116   6.549  0.2722 -0.0877  0.0615
 9169TIP3    H151702   1.752   4.118   6.494 -0.3279 -2.6130  0.6798
 9169TIP3    H251703   1.829   4.199   6.596 -1.3323  0.4579 -0.8735
 9170TIP3   OH251704   5.914   2.863   7.929 -0.6995  0.2514  0.2589
 9170TIP3    H151705   5.937   2.938   7.984 -1.3314 -0.9487  2.2698
 9170TIP3    H251706   5.822   2.875   7.908 -0.3623  0.9044 -0.8935
 9171TIP3   OH251707   3.679   6.056   7.461  0.1881 -0.5244 -0.0163
 9171TIP3    H151708   3.708   6.015   7.542 -1.3845  0.6984  1.2205
 9171TIP3    H251709   3.724   6.007   7.392 -0.3546 -3.2020  1.4292
 9172TIP3   OH251710   5.290   5.657   7.497  0.6612 -0.6366  0.1781
 9172TIP3    H151711   5.208   5.639   7.452  0.1742 -1.5203  1.3633
 9172TIP3    H251712   5.350   5.684   7.428 -0.9809  1.3669 -0.5655
 9173TIP3   OH251713   0.948   2.020  10.271 -0.3851 -0.3182 -0.2598
 9173TIP3    H151714   0.864   1.976  10.258 -0.5427 -0.3735  0.8141
 9173TIP3    H251715   0.928   2.113  10.258  0.0577 -0.5467 -3.0445
 9174TIP3   OH251716   5.063   3.993   8.564 -0.1055  0.0171  0.4344
 9174TIP3    H151717   4.983   4.012   8.516 -0.6114 -1.2169  0.7503
 9174TIP3    H251718   5.059   4.049   8.641 -1.1109 -0.6827  0.9009
 9175TIP3   OH251719   4.048   2.700   8.688 -0.0329 -0.1390  0.2454
 9175TIP3    H151720   4.116   2.748   8.736  1.2275  0.0843 -1.6304
 9175TIP3    H251721   3.972   2.757   8.690  0.2023  0.1615  1.3662
 9176TIP3   OH251722   1.630   1.601   9.293  0.3440  0.5100  0.6886
 9176TIP3    H151723   1.598   1.664   9.358 -0.0562  0.5209  0.4856
 9176TIP3    H251724   1.554   1.546   9.273  0.4772  0.4748  0.2657
 9177TIP3   OH251725   4.448   5.047   6.616 -0.3791  0.0097 -0.6008
 9177TIP3    H151726   4.399   5.085   6.688  1.6609  0.0028  0.9002
 9177TIP3    H251727   4.401   5.073   6.537 -2.0357  1.0020  0.6663
 9178TIP3   OH251728   2.850   0.485   8.866  0.5443 -0.9308  0.6664
 9178TIP3    H151729   2.898   0.559   8.829 -1.4962 -0.9705 -2.5006
 9178TIP3    H251730   2.911   0.444   8.927  2.3641  2.3017  1.2262
 9179TIP3   OH251731   5.123   2.765   8.772 -0.3124 -0.3916  0.3501
 9179TIP3    H151732   5.215   2.774   8.799 -0.2223 -0.1833 -0.0094
 9179TIP3    H251733   5.124   2.785   8.678 -0.8835  0.7048  0.5620
 9180TIP3   OH251734   2.189   4.901   8.730  0.6119 -0.4184 -0.1764
 9180TIP3    H151735   2.259   4.841   8.703  0.4939 -0.9542  0.6646
 9180TIP3    H251736   2.163   4.945   8.650 -1.1650 -3.4183 -1.4239
 9181TIP3   OH251737   0.730   4.003   8.864 -0.5263  0.5566  0.2056
 9181TIP3    H151738   0.707   3.913   8.841  1.1117  0.0165  0.4929
 9181TIP3    H251739   0.816   4.017   8.823 -0.7073  1.9635  0.2470
 9182TIP3   OH251740   0.014   3.586   9.386  0.1664 -0.1191  0.2476
 9182TIP3    H151741   0.077   3.659   9.381 -1.0081  0.8684 -0.9931
 9182TIP3    H251742  -0.010   3.582   9.479  0.0975  1.2306  0.3116
 9183TIP3   OH251743   0.952   0.823   9.050  0.3331 -0.0858  0.2721
 9183TIP3    H151744   0.998   0.742   9.027  1.7567  0.7476  0.0320
 9183TIP3    H251745   0.867   0.794   9.083  0.1119 -1.5971 -1.4368
 9184TIP3   OH251746   0.632   2.686   7.463  0.5578  0.0697  0.2785
 9184TIP3    H151747   0.577   2.699   7.540 -0.4914  0.1189 -0.4509
 9184TIP3    H251748   0.647   2.775   7.430 -0.4475 -0.0283 -0.5255
 9185TIP3   OH251749   3.737   2.272   9.185 -0.1567 -0.2110 -0.3567
 9185TIP3    H151750   3.655   2.293   9.229  0.0716  0.5668 -0.2744
 9185TIP3    H251751   3.750   2.344   9.123  1.6730  1.1037  1.3562
 9186TIP3   OH251752   1.822   0.663   6.770  0.1229  0.2640  0.5978
 9186TIP3    H151753   1.879   0.599   6.727 -1.4650 -0.6218 -0.2511
 9186TIP3    H251754   1.829   0.741   6.715 -0.9937 -0.4937 -0.6727
 9187TIP3   OH251755   4.413   0.361   8.265 -0.2071 -0.0571 -0.1450
 9187TIP3    H151756   4.336   0.318   8.228  0.0493 -1.4128  0.8500
 9187TIP3    H251757   4.419   0.444   8.217 -3.2469  0.8834  0.8592
 9188TIP3   OH251758   2.867   5.370   7.262 -0.5634  0.7406 -0.1384
 9188TIP3    H151759   2.788   5.423   7.274 -1.0761 -0.2990  1.2367
 9188TIP3    H251760   2.842   5.304   7.197 -0.8085  0.4740  0.2207
 9189TIP3   OH251761   3.220   4.181   8.270  0.0301  0.7032 -0.0353
 9189TIP3    H151762   3.289   4.115   8.277  1.0704  1.6935 -0.5524
 9189TIP3    H251763   3.163   4.164   8.344  0.8344 -0.1418  0.4138
 9190TIP3   OH251764   0.240   0.374   8.847  0.2805  0.1709 -0.3289
 9190TIP3    H151765   0.174   0.423   8.798  1.3362  1.1686 -0.8151
 9190TIP3    H251766   0.232   0.284   8.816 -0.6795  0.3188 -0.5462
 9191TIP3   OH251767   6.683   2.761   6.740 -0.0989  0.2930  0.5293
 9191TIP3    H151768   6.648   2.679   6.776 -1.0844  0.3229 -0.3181
 9191TIP3    H251769   6.704   2.813   6.817 -2.1047  0.3246  1.1099
 9192TIP3   OH251770   3.915   2.467   8.735 -0.4094  0.6080  0.6987
 9192TIP3    H151771   3.821   2.475   8.719 -0.1445  0.6687 -1.0756
 9192TIP3    H251772   3.949   2.555   8.720 -0.1488  0.7465  2.0439
 9193TIP3   OH251773   3.726   0.236   7.960 -0.2651  0.4219 -0.1349
 9193TIP3    H151774   3.707   0.188   7.879  0.0479  0.8066 -0.4343
 9193TIP3    H251775   3.820   0.224   7.974 -0.3097  0.3940  0.1492
 9194TIP3   OH251776   6.644   5.015   6.605  0.1260  0.7380  0.1112
 9194TIP3    H151777   6.568   5.037   6.659  0.8490  1.4427  0.8788
 9194TIP3    H251778   6.615   5.032   6.515 -0.3816  1.8064  0.4504
 9195TIP3   OH251779   5.611   3.778   6.776 -0.1097 -0.6701  0.0751
 9195TIP3    H151780   5.557   3.721   6.721  2.3030 -1.2797 -1.8433
 9195TIP3    H251781   5.673   3.718   6.818  0.0486  0.1570  1.0485
 9196TIP3   OH251782   5.892   5.552   7.738  0.0470  0.1490  0.5170
 9196TIP3    H151783   5.846   5.529   7.657 -0.4622 -1.0816  1.1159
 9196TIP3    H251784   5.878   5.476   7.795  0.5392  0.9145  1.6964
 9197TIP3   OH251785   2.661   0.047   9.679  0.1265 -0.5502  1.0428
 9197TIP3    H151786   2.727   0.036   9.610 -1.2305  0.8884 -0.5451
 9197TIP3    H251787   2.712   0.068   9.758  1.6140 -0.4522  0.0857
 9198TIP3   OH251788   1.149   0.425   8.528 -1.1074  0.3137 -0.0947
 9198TIP3    H151789   1.203   0.488   8.576 -0.2847  0.0876 -0.7006
 9198TIP3    H251790   1.114   0.475   8.455  0.2696 -0.1198 -1.0895
 9199TIP3   OH251791   1.115   4.635   7.746  0.2165 -0.2402 -0.1504
 9199TIP3    H151792   1.210   4.630   7.743  0.1426 -2.3717 -0.0846
 9199TIP3    H251793   1.085   4.561   7.694 -1.3890 -0.3067  0.8038
 9200TIP3   OH251794   1.876   5.848   8.104 -0.4839  0.0183 -0.1816
 9200TIP3    H151795   1.839   5.904   8.035  0.5431  1.3349  0.3039
 9200TIP3    H251796   1.808   5.782   8.120 -0.9726  0.0135 -2.0541
 9201TIP3   OH251797   2.243   0.122   9.101 -0.4808 -0.4868 -0.2379
 9201TIP3    H151798   2.228   0.206   9.145  1.6927  0.3917 -1.0414
 9201TIP3    H251799   2.178   0.063   9.140 -1.5069  1.3323  0.9681
 9202TIP3   OH251800   2.918   1.895   8.175 -0.4219 -0.9964  0.2999
 9202TIP3    H151801   2.953   1.806   8.184  0.0030 -0.7102  1.9450
 9202TIP3    H251802   2.996   1.951   8.168 -0.6961 -0.7830 -1.4556
 9203TIP3   OH251803   5.809   3.713   7.037 -0.5621  0.2265  0.0335
 9203TIP3    H151804   5.839   3.779   6.975  0.2443 -1.3513 -1.3086
 9203TIP3    H251805   5.825   3.752   7.123  1.4592  1.1191 -0.6922
 9204TIP3   OH251806   1.515   1.960   8.732 -0.4535 -0.3147 -0.5542
 9204TIP3    H151807   1.522   2.050   8.702 -1.2321  0.5729  1.7176
 9204TIP3    H251808   1.471   1.914   8.661  1.1064  0.7620 -2.2964
 9205TIP3   OH251809   2.948   5.188   7.835 -0.6198  0.3698 -0.4814
 9205TIP3    H151810   2.935   5.169   7.928 -1.4390 -1.9513 -0.9963
 9205TIP3    H251811   2.860   5.192   7.799 -0.2910  0.6872 -1.2627
 9206TIP3   OH251812   6.301   4.608   8.644 -0.0904 -0.0878  0.1856
 9206TIP3    H151813   6.353   4.536   8.607  0.7385  0.4059  0.3686
 9206TIP3    H251814   6.235   4.627   8.577  1.0051  0.3823 -0.8007
 9207TIP3   OH251815   1.143   3.280   7.582  0.3071 -0.1489 -0.0787
 9207TIP3    H151816   1.121   3.201   7.532  0.0763 -0.2118  0.1240
 9207TIP3    H251817   1.063   3.331   7.583 -0.1307 -0.8089  1.4661
 9208TIP3   OH251818   4.778   4.409   7.479  0.1546  0.0003  0.3925
 9208TIP3    H151819   4.777   4.329   7.531  1.3037 -0.1637  0.1941
 9208TIP3    H251820   4.711   4.396   7.412  0.8387 -1.1417 -0.1102
 9209TIP3   OH251821   0.935   0.340   7.006  0.4175 -0.3903  0.3120
 9209TIP3    H151822   0.904   0.276   7.070  1.4565 -0.0315  1.2077
 9209TIP3    H251823   1.018   0.305   6.975  0.9440  0.4618  0.7309
 9210TIP3   OH251824   6.382   1.843   9.908  0.0166 -0.0322 -0.8150
 9210TIP3    H151825   6.425   1.899   9.973  0.9151  0.1270 -1.5076
 9210TIP3    H251826   6.320   1.790   9.957 -0.0991  0.8446  0.0088
 9211TIP3   OH251827   5.771   6.549   5.972 -0.2532 -0.2167 -0.1300
 9211TIP3    H151828   5.697   6.521   5.918 -0.8177  1.5586 -0.3602
 9211TIP3    H251829   5.848   6.529   5.919 -0.8241  2.0781 -1.9996
 9212TIP3   OH251830   3.188   2.650   6.613 -0.1961 -0.4055  0.6286
 9212TIP3    H151831   3.128   2.576   6.610 -1.1320  0.3676 -0.9559
 9212TIP3    H251832   3.142   2.721   6.568  1.2215  0.7422  0.8791
 9213TIP3   OH251833   6.160   6.452   7.437 -0.4048 -0.1729 -0.3051
 9213TIP3    H151834   6.247   6.484   7.414  0.0093 -0.5094  0.7615
 9213TIP3    H251835   6.124   6.422   7.353 -0.4332  2.0815 -1.1853
 9214TIP3   OH251836   3.529   0.975   6.906  0.5803  0.4715  0.0161
 9214TIP3    H151837   3.550   0.927   6.987 -0.7807 -0.4395 -0.1339
 9214TIP3    H251838   3.496   1.059   6.937  2.3692  1.1131  0.3037
 9215TIP3   OH251839   0.502   4.285   9.662  0.3591 -0.7873 -0.2836
 9215TIP3    H151840   0.431   4.244   9.613 -0.6102 -0.0294  0.4290
 9215TIP3    H251841   0.506   4.235   9.744  0.9001 -1.0492 -0.4626
 9216TIP3   OH251842   2.676   6.601   6.668 -1.2244 -0.0659  0.2522
 9216TIP3    H151843   2.752   6.647   6.632  0.0804 -1.9212  0.4923
 9216TIP3    H251844   2.601   6.654   6.640  0.1340  2.0550  0.3307
 9217TIP3   OH251845   5.181   5.314   7.719  0.2744 -0.2803 -0.3332
 9217TIP3    H151846   5.266   5.326   7.676 -0.4055 -0.1566 -1.6985
 9217TIP3    H251847   5.184   5.225   7.753  1.4759  0.1887  0.8882
 9218TIP3   OH251848   1.046   3.555   6.692  0.1816  0.0519  0.4085
 9218TIP3    H151849   1.062   3.461   6.683 -0.9424 -0.2464  1.3703
 9218TIP3    H251850   0.968   3.571   6.640  0.1314  0.3773  0.5857
 9219TIP3   OH251851   4.434   1.692   6.617 -0.1586 -0.2970  0.3143
 9219TIP3    H151852   4.494   1.621   6.597  1.2327  0.5203  1.4160
 9219TIP3    H251853   4.469   1.767   6.569 -0.7712  0.0163  0.3422
 9220TIP3   OH251854   1.227   0.244   8.831  0.3637 -0.3158 -0.5294
 9220TIP3    H151855   1.277   0.307   8.882  0.1207 -0.0510 -0.6173
 9220TIP3    H251856   1.250   0.159   8.868 -0.0252 -0.1044  0.2019
 9221TIP3   OH251857   5.158   3.636   9.718 -0.3601 -0.2122  0.1249
 9221TIP3    H151858   5.192   3.659   9.804  0.0840  1.0155 -0.3663
 9221TIP3    H251859   5.063   3.648   9.725 -0.3641 -0.4891  0.5467
 9222TIP3   OH251860   5.279   4.011   9.816 -0.2319 -0.0581  0.5022
 9222TIP3    H151861   5.350   4.052   9.767  1.4559 -1.6562  1.5002
 9222TIP3    H251862   5.208   4.075   9.813 -0.0889  0.1771 -3.5335
 9223TIP3   OH251863   0.623   6.185   6.271 -0.7406  0.1586  0.3001
 9223TIP3    H151864   0.604   6.093   6.254  0.3316  0.0317 -0.3678
 9223TIP3    H251865   0.598   6.199   6.362  1.7628 -1.5934  1.3831
 9224TIP3   OH251866   0.248   2.685   9.790 -0.1264  0.5126 -0.5824
 9224TIP3    H151867   0.236   2.636   9.872  0.6047 -0.0512 -0.7954
 9224TIP3    H251868   0.185   2.757   9.795 -1.4026 -0.5818 -0.3605
 9225TIP3   OH251869   4.435   4.215   7.846  0.2911  0.3473  0.3267
 9225TIP3    H151870   4.516   4.165   7.836  0.1886  0.2909 -0.2962
 9225TIP3    H251871   4.392   4.207   7.760  0.2662  1.4899  0.2235
 9226TIP3   OH251872   3.485   4.792   6.729 -0.0415  0.3414  0.6056
 9226TIP3    H151873   3.423   4.753   6.668 -0.7344 -0.2408  1.6644
 9226TIP3    H251874   3.435   4.861   6.773  0.0431 -0.1681  1.5069
 9227TIP3   OH251875   5.484   5.971   8.530  0.4894 -0.3036  0.1194
 9227TIP3    H151876   5.475   5.926   8.614  0.4581  0.0569  0.3123
 9227TIP3    H251877   5.437   5.916   8.468 -1.2650  0.4488  0.7120
 9228TIP3   OH251878   6.594   0.825   6.737 -0.6169  0.8643  0.1034
 9228TIP3    H151879   6.514   0.822   6.684  0.0342 -0.8693 -0.8860
 9228TIP3    H251880   6.588   0.748   6.794  2.2652 -2.1662 -3.1621
 9229TIP3   OH251881   1.433   4.256   8.786  0.1775  0.3933  0.6009
 9229TIP3    H151882   1.472   4.335   8.824  0.3830  0.4084  0.3630
 9229TIP3    H251883   1.462   4.186   8.844  0.3868  0.4323  0.5445
 9230TIP3   OH251884   5.678   3.781  10.060  0.3789 -0.1620 -0.2489
 9230TIP3    H151885   5.633   3.824  10.132  0.8816 -0.4487  0.2495
 9230TIP3    H251886   5.652   3.829   9.982 -0.7343 -0.2890  0.0322
 9231TIP3   OH251887   1.366   0.671   8.298 -0.0164 -0.2675  0.3609
 9231TIP3    H151888   1.339   0.762   8.282  0.5795  0.0014  0.8583
 9231TIP3    H251889   1.300   0.636   8.358 -0.4208 -0.2643 -0.0748
 9232TIP3   OH251890   1.356   3.609   6.330 -0.2578  0.1351  0.3038
 9232TIP3    H151891   1.443   3.577   6.353 -0.4645 -0.6570  0.0246
 9232TIP3    H251892   1.372   3.681   6.269  0.2050  0.1527  0.4426
 9233TIP3   OH251893   0.224   1.062   6.997 -0.5800  0.1529 -0.2055
 9233TIP3    H151894   0.206   1.142   6.948 -1.5934 -0.7300 -1.3830
 9233TIP3    H251895   0.189   0.992   6.941  1.2709 -1.2168  0.2532
 9234TIP3   OH251896   3.136   6.242   7.158  0.5902 -0.5150  0.1502
 9234TIP3    H151897   3.222   6.244   7.200  0.1642  1.6191  1.0075
 9234TIP3    H251898   3.155   6.252   7.065  1.2457  1.9540  0.4825
 9235TIP3   OH251899   2.785   2.147   8.665  0.7399 -0.1286  0.2793
 9235TIP3    H151900   2.697   2.141   8.629  0.8325  2.0871 -0.4983
 9235TIP3    H251901   2.773   2.137   8.760 -0.6977  2.0929  0.4248
 9236TIP3   OH251902   1.750   5.266   6.899 -0.2102 -0.1166  0.1287
 9236TIP3    H151903   1.756   5.192   6.959 -1.2191  0.4173  0.9199
 9236TIP3    H251904   1.764   5.343   6.954 -0.0002  0.3187 -0.5295
 9237TIP3   OH251905   3.257   0.952   9.714 -0.1392 -0.5853 -0.1088
 9237TIP3    H151906   3.312   0.912   9.781  0.0992 -3.2385 -1.7261
 9237TIP3    H251907   3.303   1.032   9.689  0.2238 -0.0176  2.1654
 9238TIP3   OH251908   1.609   1.095   7.365  0.6693 -0.0425  0.0386
 9238TIP3    H151909   1.603   1.124   7.456 -0.8288  0.5700 -0.2392
 9238TIP3    H251910   1.588   1.002   7.367 -1.1879  0.3591  0.1112
 9239TIP3   OH251911   0.525   3.476   7.189  0.2174 -0.1647 -0.3263
 9239TIP3    H151912   0.532   3.383   7.167  0.3289  0.1079 -1.5520
 9239TIP3    H251913   0.440   3.484   7.233  0.8655 -1.0733  1.1888
 9240TIP3   OH251914   3.397   1.966   8.686 -0.3834 -0.1743  0.0658
 9240TIP3    H151915   3.461   1.995   8.622 -0.1993  0.0460  0.3489
 9240TIP3    H251916   3.406   1.870   8.687 -0.4974 -0.1890 -0.3497
 9241TIP3   OH251917   6.049   5.877   7.272 -1.0798 -0.0512  0.1405
 9241TIP3    H151918   6.061   5.815   7.344 -1.3516  1.0758  1.1933
 9241TIP3    H251919   5.965   5.919   7.291  0.4399  2.7578  1.1699
 9242TIP3   OH251920   5.993   2.813   8.595 -0.4361 -0.3020 -0.5322
 9242TIP3    H151921   5.994   2.864   8.514 -0.6618 -0.6774 -0.7735
 9242TIP3    H251922   6.084   2.784   8.606 -0.5404 -0.8231 -1.0191
 9243TIP3   OH251923   6.402   4.415   9.109  0.5270  0.0532 -0.1907
 9243TIP3    H151924   6.432   4.409   9.018 -1.2305  1.0481 -0.8786
 9243TIP3    H251925   6.473   4.460   9.155  0.6634  1.2575 -1.5021
 9244TIP3   OH251926   5.990   0.876   6.848  0.2437  0.3084 -0.3206
 9244TIP3    H151927   5.970   0.867   6.941 -0.5529  1.1032 -0.4123
 9244TIP3    H251928   5.925   0.820   6.804 -1.4356  2.3628 -0.5751
 9245TIP3   OH251929   4.012   2.935   7.062  0.3736 -0.0257 -0.5145
 9245TIP3    H151930   3.983   2.994   6.993  0.5280  0.1039 -0.4715
 9245TIP3    H251931   4.087   2.888   7.025  0.7546  0.3812 -0.2848
 9246TIP3   OH251932   0.087   6.054   6.712  0.0571 -0.5474  1.3725
 9246TIP3    H151933   0.150   6.021   6.775  1.1564 -3.0524 -0.8276
 9246TIP3    H251934   0.138   6.111   6.654 -0.8265  1.3270  2.3514
 9247TIP3   OH251935   5.603   2.958   6.584  0.5263 -0.7708 -0.8195
 9247TIP3    H151936   5.638   2.878   6.546 -0.3178 -1.4591 -0.1651
 9247TIP3    H251937   5.621   2.951   6.678 -1.0815 -1.0167 -0.4974
 9248TIP3   OH251938   4.103   5.399   8.646  0.1201 -0.1428  0.3153
 9248TIP3    H151939   4.023   5.396   8.594 -1.2647 -0.5105  2.3681
 9248TIP3    H251940   4.136   5.309   8.645  0.5013 -0.0027 -0.4806
 9249TIP3   OH251941   0.609   4.416  10.130  0.6994  0.9276 -0.1060
 9249TIP3    H151942   0.661   4.388  10.055 -0.6770  1.4705 -1.3329
 9249TIP3    H251943   0.519   4.392  10.107  0.0681  2.2804  0.7717
 9250TIP3   OH251944   2.495   4.415   9.349 -0.1335  0.4234  0.5288
 9250TIP3    H151945   2.515   4.324   9.369  0.0975  0.3248 -0.1392
 9250TIP3    H251946   2.524   4.463   9.427 -0.7436 -0.1220  1.1038
 9251TIP3   OH251947   2.218   6.184   7.536  0.1406 -0.1675  0.0933
 9251TIP3    H151948   2.128   6.180   7.568 -0.1755  0.2669 -0.7077
 9251TIP3    H251949   2.214   6.148   7.448  0.9751 -1.2266  0.4672
 9252TIP3   OH251950   0.127   4.737   8.108  0.3768 -0.4728 -0.2036
 9252TIP3    H151951   0.061   4.746   8.177  1.2114  2.2385  0.3617
 9252TIP3    H251952   0.203   4.784   8.141  0.9541  0.5960 -2.8183
 9253TIP3   OH251953   3.042   0.183   8.044  0.3661  0.4136 -0.1454
 9253TIP3    H151954   3.102   0.139   8.104 -0.4910  0.9704  1.1563
 9253TIP3    H251955   2.962   0.131   8.046  0.4376  0.2477 -1.0842
 9254TIP3   OH251956   4.897   3.156   7.743 -0.0787 -0.1741 -0.1560
 9254TIP3    H151957   4.985   3.154   7.705  0.2621 -1.7026  0.6301
 9254TIP3    H251958   4.895   3.080   7.802 -0.8945  1.5005  2.1343
 9255TIP3   OH251959   0.025   1.505   9.559  0.1191 -0.3079  0.2939
 9255TIP3    H151960   0.008   1.528   9.651  1.9792  0.5951  0.4471
 9255TIP3    H251961   0.028   1.410   9.558  1.5070 -0.3090  1.4870
 9256TIP3   OH251962   3.030   3.911   8.006 -0.4177  0.3036 -0.3885
 9256TIP3    H151963   3.032   3.818   7.984 -1.1608 -0.0429  0.9104
 9256TIP3    H251964   3.052   3.914   8.099  3.0515  1.7341 -1.0743
 9257TIP3   OH251965   1.767   3.042   8.771  0.2579  0.3462  0.3495
 9257TIP3    H151966   1.768   3.129   8.732  0.1909  0.7033  1.1186
 9257TIP3    H251967   1.858   3.029   8.800  0.8147 -0.7892 -1.7791
 9258TIP3   OH251968   1.545   5.312   7.712  0.3760 -0.8511  0.0097
 9258TIP3    H151969   1.511   5.285   7.627 -0.4324  0.5252 -0.1400
 9258TIP3    H251970   1.469   5.308   7.770  0.0479  1.4705 -0.1386
 9259TIP3   OH251971   0.572   3.752   7.473  0.1604 -0.1153  0.3228
 9259TIP3    H151972   0.488   3.707   7.461  0.5779 -0.7061 -0.5397
 9259TIP3    H251973   0.623   3.727   7.395  2.4084 -2.5548  2.4006
 9260TIP3   OH251974   5.054   0.350   8.675 -0.3238 -0.0826  0.8656
 9260TIP3    H151975   5.022   0.266   8.642 -0.7186 -0.2618  1.6794
 9260TIP3    H251976   5.140   0.330   8.712 -0.7409 -0.2940  1.7467
 9261TIP3   OH251977   3.105   3.032   8.546 -0.4103  0.0996  0.1781
 9261TIP3    H151978   3.134   3.123   8.550 -3.7833  1.3539 -0.2590
 9261TIP3    H251979   3.015   3.034   8.580 -0.1104 -3.3859  1.6173
 9262TIP3   OH251980   2.579   4.429   9.096 -0.0292 -0.0189  0.0625
 9262TIP3    H151981   2.660   4.477   9.077 -1.7665  3.2146  0.0559
 9262TIP3    H251982   2.564   4.443   9.190 -0.9469  0.0775 -0.0881
 9263TIP3   OH251983   4.451   4.265   6.899  0.3046 -0.0614 -0.5165
 9263TIP3    H151984   4.537   4.271   6.941 -0.2214 -0.8185  0.7438
 9263TIP3    H251985   4.428   4.172   6.906 -0.5884  0.1229 -0.9091
 9264TIP3   OH251986   2.788   3.713   7.736  0.1829  0.3151 -0.1259
 9264TIP3    H151987   2.758   3.628   7.704  1.1378  0.1605 -0.6539
 9264TIP3    H251988   2.770   3.711   7.830  2.6117 -1.5989  0.4039
 9265TIP3   OH251989   5.830   2.810   6.489 -0.2844 -0.0786  0.2415
 9265TIP3    H151990   5.873   2.728   6.514  1.5595  0.2362 -1.6430
 9265TIP3    H251991   5.895   2.878   6.505 -1.0581  0.7707 -0.1341
 9266TIP3   OH251992   2.552   5.957   9.005  0.2309  0.0760 -0.1436
 9266TIP3    H151993   2.585   5.968   8.915  0.6453  1.1371  0.1203
 9266TIP3    H251994   2.565   6.043   9.046 -0.1234 -0.3424  0.8799
 9267TIP3   OH251995   4.430   5.738   7.642 -0.1497  0.4640  0.1048
 9267TIP3    H151996   4.507   5.686   7.619 -1.2457 -0.9223 -0.5841
 9267TIP3    H251997   4.408   5.710   7.731  1.2877  2.3673  1.1484
 9268TIP3   OH251998   0.053   3.363   9.838 -0.0107 -0.6764 -0.0092
 9268TIP3    H151999   0.078   3.286   9.786  0.9437 -0.1416 -0.3606
 9268TIP3    H252000   0.122   3.370   9.903 -0.4815 -0.5277  0.4805
 9269TIP3   OH252001   1.943   1.364   7.844  0.3932  0.1228  0.1303
 9269TIP3    H152002   1.969   1.421   7.771  2.2283 -1.5700 -0.6005
 9269TIP3    H252003   2.013   1.373   7.908  0.0700 -0.3609  0.5565
 9270TIP3   OH252004   3.428   3.159   7.071 -0.5935 -0.5362 -0.0005
 9270TIP3    H152005   3.339   3.131   7.092 -1.8563  1.4470 -2.2076
 9270TIP3    H252006   3.450   3.112   6.991  0.3687 -1.0005  0.5201
 9271TIP3   OH252007   5.714   4.218   7.135  0.1408 -0.2627 -0.3067
 9271TIP3    H152008   5.673   4.132   7.135  0.4037 -0.3877 -0.8548
 9271TIP3    H252009   5.774   4.217   7.061 -0.4473  0.6685 -0.8222
 9272TIP3   OH252010   0.374   5.602   8.076 -0.4549  0.0107 -0.3105
 9272TIP3    H152011   0.370   5.618   8.171  0.0595 -1.0707 -0.0964
 9272TIP3    H252012   0.344   5.512   8.066  1.1324 -0.4714 -0.9891
 9273TIP3   OH252013   5.728   1.802   6.632 -0.4192 -0.5386  0.3438
 9273TIP3    H152014   5.800   1.824   6.574  0.4997 -1.8382  0.9233
 9273TIP3    H252015   5.707   1.883   6.678  1.3246 -0.3352  0.8407
 9274TIP3   OH252016   4.780   0.908   7.589 -0.2735  0.0277  0.0299
 9274TIP3    H152017   4.719   0.919   7.662 -1.3100  1.7977 -1.0489
 9274TIP3    H252018   4.756   0.975   7.526  2.3309  0.3158 -0.7977
 9275TIP3   OH252019   5.308   0.622   9.382 -0.1179 -0.4967 -0.0470
 9275TIP3    H152020   5.262   0.538   9.378 -1.5781  0.2972 -1.5812
 9275TIP3    H252021   5.295   0.653   9.471 -2.8853 -0.2114 -0.4536
 9276TIP3   OH252022   3.693   2.213   6.529  0.3465 -0.1224 -0.4597
 9276TIP3    H152023   3.690   2.239   6.621  0.8868  1.4331 -0.8397
 9276TIP3    H252024   3.787   2.213   6.507  0.3191 -1.7538 -0.6905
 9277TIP3   OH252025   6.107   2.083   8.666  0.0912  0.1289  0.5333
 9277TIP3    H152026   6.189   2.128   8.685  0.2238  0.3710 -0.5484
 9277TIP3    H252027   6.086   2.108   8.576 -0.3716 -1.1416  0.2632
 9278TIP3   OH252028   1.409   2.155   7.984  0.1320  0.2301  0.0586
 9278TIP3    H152029   1.367   2.241   7.987 -0.0721  0.3001 -2.6260
 9278TIP3    H252030   1.344   2.095   8.019 -0.5527  0.9051 -0.0422
 9279TIP3   OH252031   4.687   4.557   8.922  0.2519  0.1476 -0.2920
 9279TIP3    H152032   4.626   4.627   8.945  0.9310  0.4581  0.6010
 9279TIP3    H252033   4.663   4.484   8.978  1.4941  0.6930  1.0139
 9280TIP3   OH252034   3.730   4.096   8.372  0.1841 -0.1772 -0.3025
 9280TIP3    H152035   3.752   4.024   8.312  1.5516  0.3340 -0.4476
 9280TIP3    H252036   3.714   4.053   8.456  2.2248 -0.6058 -0.0732
 9281TIP3   OH252037   2.035   5.540   7.483  0.4836  0.4078 -0.5942
 9281TIP3    H152038   2.070   5.512   7.567  0.5321  1.2236 -0.3349
 9281TIP3    H252039   2.101   5.514   7.419  1.5058  1.7475 -0.1348
 9282TIP3   OH252040   0.117   5.579   7.935 -0.5919  0.1293 -0.4355
 9282TIP3    H152041   0.125   5.486   7.914 -0.7392 -0.1396  0.6840
 9282TIP3    H252042   0.023   5.593   7.945 -0.4864  0.0801  0.7584
 9283TIP3   OH252043   5.632   3.503   7.168 -0.0906 -0.0717  0.1987
 9283TIP3    H152044   5.653   3.422   7.122  0.0589  0.0970 -0.0292
 9283TIP3    H252045   5.663   3.573   7.110 -0.4435  0.1549  0.2816
 9284TIP3   OH252046   5.123   4.643   6.939 -0.4091  0.1595 -0.0409
 9284TIP3    H152047   5.179   4.576   6.978  0.6546 -0.5721 -2.6128
 9284TIP3    H252048   5.071   4.597   6.874  0.3737  1.7506 -1.9173
 9285TIP3   OH252049   6.332   2.373   7.432 -0.2998 -0.0225 -0.6415
 9285TIP3    H152050   6.375   2.341   7.512 -0.6821  2.5409  0.7040
 9285TIP3    H252051   6.402   2.415   7.383 -0.6273  1.2859 -0.0253
 9286TIP3   OH252052   1.756   5.824   8.559  0.4101  0.4781  0.1117
 9286TIP3    H152053   1.706   5.789   8.486 -1.3607  5.4681 -1.4259
 9286TIP3    H252054   1.834   5.863   8.519  0.1592  2.0104  1.0467
 9287TIP3   OH252055   5.359   5.385   9.752  0.2135  0.4139 -0.1234
 9287TIP3    H152056   5.280   5.435   9.773  1.4228  1.7129  1.5780
 9287TIP3    H252057   5.363   5.386   9.657 -0.7389  2.0639 -0.1792
 9288TIP3   OH252058   0.272   2.240   7.906  0.0469 -0.2159  0.2152
 9288TIP3    H152059   0.299   2.189   7.830  0.4582 -0.0319  0.2329
 9288TIP3    H252060   0.177   2.240   7.903  0.0206 -1.4728  0.5349
 9289TIP3   OH252061   2.519   0.721   6.431 -0.0415  0.4184 -0.1681
 9289TIP3    H152062   2.559   0.648   6.479  0.5954  0.4427 -0.6458
 9289TIP3    H252063   2.489   0.682   6.349 -1.8201  0.2156  0.5406
 9290TIP3   OH252064   2.785   2.925   8.464  0.3374  0.3905  0.0416
 9290TIP3    H152065   2.810   2.845   8.511 -1.8155 -0.4526 -0.1386
 9290TIP3    H252066   2.783   2.992   8.532 -2.1878 -0.6978  1.1413
 9291TIP3   OH252067   3.815   0.708   8.094 -0.4790 -0.4719  0.0023
 9291TIP3    H152068   3.769   0.625   8.105 -1.0250 -0.3462 -1.1264
 9291TIP3    H252069   3.842   0.732   8.182 -0.1618 -1.9235  0.3321
 9292TIP3   OH252070   3.884   0.337   7.336  0.2167 -0.5821 -0.5674
 9292TIP3    H152071   3.801   0.297   7.364 -0.0074 -1.4695 -2.3079
 9292TIP3    H252072   3.888   0.318   7.242  2.7266 -1.1426 -0.4099
 9293TIP3   OH252073   2.394   4.134   7.434  0.3676 -0.4774  0.6927
 9293TIP3    H152074   2.360   4.175   7.355  0.3985 -2.0100 -0.1570
 9293TIP3    H252075   2.415   4.045   7.407  0.7764 -0.9045  2.3330
 9294TIP3   OH252076   0.611   0.281   7.566 -0.3584 -0.7950  0.8448
 9294TIP3    H152077   0.626   0.338   7.490  5.4480 -0.9128  1.4534
 9294TIP3    H252078   0.594   0.341   7.638  0.8640 -0.1073  0.5923
 9295TIP3   OH252079   2.135   4.153   8.216  0.1981 -0.3977 -0.2282
 9295TIP3    H152080   2.229   4.163   8.203 -0.2088  0.1827 -3.4588
 9295TIP3    H252081   2.118   4.060   8.198 -0.0104 -0.2159 -0.9822
 9296TIP3   OH252082   4.098   5.508   9.700 -0.1648  0.0237  0.5501
 9296TIP3    H152083   4.181   5.539   9.663 -0.8010  1.4357  0.2588
 9296TIP3    H252084   4.037   5.510   9.626 -0.7963  0.3145  1.0757
 9297TIP3   OH252085   0.460   1.113   8.774 -0.4573 -0.3203 -0.3561
 9297TIP3    H152086   0.537   1.104   8.830  0.5777 -0.4330 -1.7203
 9297TIP3    H252087   0.483   1.185   8.715 -0.5667 -1.5904 -2.0331
 9298TIP3   OH252088   0.404   1.095   7.732  0.2573  0.5626 -0.5348
 9298TIP3    H152089   0.338   1.128   7.671  0.8997  0.1990 -1.4396
 9298TIP3    H252090   0.367   1.114   7.819 -1.0341  0.3726 -1.0101
 9299TIP3   OH252091   0.014   6.242   7.418  0.2372 -0.0933 -0.4403
 9299TIP3    H152092  -0.018   6.293   7.343 -1.1284  0.4879  0.5033
 9299TIP3    H252093   0.094   6.287   7.445 -0.6792  1.2799  0.0700
 9300TIP3   OH252094   0.962   5.705   8.573  0.0098  0.4666 -0.1359
 9300TIP3    H152095   0.922   5.772   8.627 -0.9126  1.0998 -1.5474
 9300TIP3    H252096   0.989   5.751   8.493  0.5324 -0.5940 -0.5964
 9301TIP3   OH252097   2.830   4.617   6.565 -0.5208 -0.7057  0.5321
 9301TIP3    H152098   2.776   4.625   6.644 -0.5269 -0.8510  0.5414
 9301TIP3    H252099   2.809   4.531   6.529 -1.6299 -0.0485 -0.4545
 9302TIP3   OH252100   0.316   3.367   7.614 -0.4748 -0.5032  0.0189
 9302TIP3    H152101   0.346   3.285   7.653 -0.7728 -0.7358 -0.2429
 9302TIP3    H252102   0.304   3.425   7.689  0.1015 -0.5744  0.1749
 9303TIP3   OH252103   5.566   4.557   8.441  0.1648  0.2144  0.1982
 9303TIP3    H152104   5.615   4.637   8.460  0.2828 -0.2643  2.1447
 9303TIP3    H252105   5.493   4.585   8.386  1.9948  1.1132 -1.9255
 9304TIP3   OH252106   3.102   2.797   8.930 -0.5838 -0.3037  0.4929
 9304TIP3    H152107   3.091   2.721   8.874 -0.6430  0.4799 -0.5927
 9304TIP3    H252108   3.013   2.817   8.960 -1.2250  1.5870 -2.3169
 9305TIP3   OH252109   3.672   5.577   8.945 -0.9439  0.1431  0.6162
 9305TIP3    H152110   3.609   5.589   8.873  0.6306  0.8063 -0.6999
 9305TIP3    H252111   3.667   5.658   8.995 -1.4328  0.0146  0.7879
 9306TIP3   OH252112   5.901   4.979   9.464  0.0699 -0.7861  0.1763
 9306TIP3    H152113   5.865   4.923   9.395 -0.8046  0.3438 -0.3168
 9306TIP3    H252114   5.840   4.970   9.537  0.3567 -1.0696  0.3844
 9307TIP3   OH252115   3.413   2.271   7.803 -0.3180  0.6982 -0.5283
 9307TIP3    H152116   3.452   2.300   7.886  0.2238 -0.0493 -0.5060
 9307TIP3    H252117   3.462   2.318   7.736 -0.2783  0.7743 -0.4464
 9308TIP3   OH252118   5.794   5.800   8.994 -0.5895 -0.2870  0.5467
 9308TIP3    H152119   5.860   5.865   9.020 -0.5602 -0.2422  0.3653
 9308TIP3    H252120   5.741   5.846   8.928 -2.1260  0.4183  2.1736
 9309TIP3   OH252121   4.960   4.502   7.903  0.0003  0.1532  0.1215
 9309TIP3    H152122   4.898   4.430   7.917 -0.2941  0.7781  2.4384
 9309TIP3    H252123   4.928   4.544   7.823  0.8010 -2.8174 -1.9549
 9310TIP3   OH252124   1.840   4.900   7.845 -0.0760  0.0624  0.7205
 9310TIP3    H152125   1.895   4.914   7.922  0.7477 -1.2327  0.3920
 9310TIP3    H252126   1.813   4.808   7.851  0.3790 -0.1866 -0.7728
 9311TIP3   OH252127   3.964   1.562   7.694  0.1153 -0.4828  0.0068
 9311TIP3    H152128   4.033   1.629   7.701  0.9600 -1.3692  0.4295
 9311TIP3    H252129   3.920   1.564   7.779 -0.5920  0.2870 -0.3647
 9312TIP3   OH252130   1.059   4.460   9.626  0.0529 -0.0779  0.5771
 9312TIP3    H152131   1.039   4.385   9.682  1.8856  0.9686  2.7836
 9312TIP3    H252132   1.103   4.523   9.684 -0.0959  2.1094 -1.5116
 9313TIP3   OH252133   4.846   6.473   8.242 -0.4878  0.4180  0.5191
 9313TIP3    H152134   4.933   6.434   8.231  0.5814  2.2413  1.9776
 9313TIP3    H252135   4.800   6.414   8.302 -0.1811 -0.4082 -0.0393
 9314TIP3   OH252136   5.091   4.465   7.293  0.1444 -0.6733  0.4250
 9314TIP3    H152137   5.046   4.393   7.338 -0.5750 -0.5422 -0.0694
 9314TIP3    H252138   5.119   4.523   7.363  0.0175 -1.0303  0.7770
 9315TIP3   OH252139   1.668   3.884   9.962 -0.7701  0.0594 -0.2729
 9315TIP3    H152140   1.657   3.803  10.011 -0.9189 -0.5044 -1.2022
 9315TIP3    H252141   1.583   3.927   9.966 -0.3111  0.8696  1.3921
 9316TIP3   OH252142   5.340   4.569   8.286 -0.2344 -0.1165 -0.3239
 9316TIP3    H152143   5.322   4.661   8.302 -0.2945 -0.0779 -0.5998
 9316TIP3    H252144   5.253   4.529   8.277 -0.2213 -0.3074  0.3692
 9317TIP3   OH252145   3.032   3.741   9.834  0.3488  0.2284 -0.2322
 9317TIP3    H152146   3.089   3.684   9.782 -2.9318 -1.0470 -2.8195
 9317TIP3    H252147   3.061   3.729   9.924  2.8914 -1.7786 -1.2002
 9318TIP3   OH252148   5.371   3.971   8.975  0.5982 -0.3136 -0.0312
 9318TIP3    H152149   5.365   3.993   9.068  1.0122  0.4410 -0.1762
 9318TIP3    H252150   5.465   3.962   8.958  0.5183 -0.6132 -0.3403
 9319TIP3   OH252151   5.725   0.683   6.845 -0.2272  0.6559 -0.4740
 9319TIP3    H152152   5.691   0.605   6.803  0.3972  0.8254 -1.3430
 9319TIP3    H252153   5.775   0.651   6.919  0.3629  0.1894 -1.0602
 9320TIP3   OH252154   3.401   1.420   7.270 -0.0478  0.2912 -0.3522
 9320TIP3    H152155   3.453   1.462   7.338  1.0069 -1.1984 -0.1918
 9320TIP3    H252156   3.373   1.492   7.213  2.2089  1.1572 -0.4691
 9321TIP3   OH252157   1.754   1.248   7.209 -0.4765 -0.7730 -0.3919
 9321TIP3    H152158   1.674   1.213   7.249 -1.1161  1.4043  0.3793
 9321TIP3    H252159   1.825   1.212   7.260 -1.1264 -0.7200  0.5720
 9322TIP3   OH252160   3.025   0.433   7.318 -0.1432  0.4695 -0.5867
 9322TIP3    H152161   3.107   0.392   7.291 -0.1624  0.2751 -0.3564
 9322TIP3    H252162   3.032   0.441   7.413 -1.3713 -1.8057 -0.2082
 9323TIP3   OH252163   3.444   3.245   8.679  0.1820  0.0762 -0.0384
 9323TIP3    H152164   3.420   3.316   8.738 -0.1323  0.3702 -0.5112
 9323TIP3    H252165   3.385   3.173   8.701 -0.2379  0.3410 -0.3020
 9324TIP3   OH252166   5.412   2.045   6.691 -0.3694 -0.3892 -0.4261
 9324TIP3    H152167   5.505   2.058   6.673  0.2569 -1.7835  1.4643
 9324TIP3    H252168   5.407   1.956   6.727 -1.9074  0.7904  2.5713
 9325TIP3   OH252169   5.115   5.872   9.057 -0.4592 -0.1114  0.1186
 9325TIP3    H152170   5.184   5.937   9.040 -0.2947  0.1012  1.4639
 9325TIP3    H252171   5.038   5.924   9.079 -0.3524 -0.3500  1.1098
 9326TIP3   OH252172   1.364   0.397   9.144 -0.0368 -0.5134  0.1686
 9326TIP3    H152173   1.405   0.429   9.064 -3.1460  0.0717 -1.3546
 9326TIP3    H252174   1.389   0.460   9.211 -0.1652  1.0279 -1.1732
 9327TIP3   OH252175   5.067   2.496   6.830  0.1245 -0.2261 -0.3576
 9327TIP3    H152176   5.050   2.590   6.844  0.1852 -0.4314  1.3094
 9327TIP3    H252177   5.136   2.494   6.764 -0.6533  0.8581 -1.2515
 9328TIP3   OH252178   5.105   2.912  10.846 -0.4576 -0.1589  0.5292
 9328TIP3    H152179   5.080   2.991  10.798 -0.2214  0.6820  1.7307
 9328TIP3    H252180   5.145   2.855  10.780  0.6666  1.3058 -0.1097
 9329TIP3   OH252181   3.020   0.430   6.551  0.0246 -0.6962 -0.0399
 9329TIP3    H152182   3.061   0.395   6.472 -1.5717  0.5374 -1.4993
 9329TIP3    H252183   2.961   0.498   6.519  0.8216  1.2726  2.4104
 9330TIP3   OH252184   0.903   1.551   8.747  0.4702 -0.3833 -0.3913
 9330TIP3    H152185   0.987   1.504   8.749  1.3859  1.1593 -0.9082
 9330TIP3    H252186   0.896   1.583   8.658 -2.2640 -3.1111 -1.3277
 9331TIP3   OH252187   0.989   3.037  10.065  0.1177 -0.0540  0.3308
 9331TIP3    H152188   0.945   3.030  10.150  1.5369 -0.5926  1.0600
 9331TIP3    H252189   1.028   2.950  10.051 -1.4469 -0.5076 -1.6771
 9332TIP3   OH252190   2.013   1.188   7.299  0.2646 -0.1614  0.0990
 9332TIP3    H152191   2.056   1.115   7.344  0.5855 -0.1896 -0.2498
 9332TIP3    H252192   2.053   1.189   7.212  0.8080  0.9005  0.3480
 9333TIP3   OH252193   6.293   6.647   9.804  0.2308 -0.1395  0.1073
 9333TIP3    H152194   6.267   6.739   9.792 -0.4154 -0.0805  1.7210
 9333TIP3    H252195   6.362   6.651   9.871  1.9297 -0.6446 -1.5341
 9334TIP3   OH252196   2.870   2.244   8.106 -0.2606 -0.6120  0.9468
 9334TIP3    H152197   2.851   2.182   8.036  1.0546 -0.1305  0.1521
 9334TIP3    H252198   2.796   2.233   8.167 -0.7607 -1.9553  0.1514
 9335TIP3   OH252199   3.458   6.541   8.695  0.3791 -0.7512  0.2076
 9335TIP3    H152200   3.513   6.571   8.767  0.0290  1.5191 -0.3783
 9335TIP3    H252201   3.513   6.547   8.617 -0.1294 -0.2047 -0.1245
 9336TIP3   OH252202   4.100   5.454   7.422 -0.2275 -0.0027 -0.2674
 9336TIP3    H152203   4.159   5.528   7.408  1.7906 -1.4434  0.1270
 9336TIP3    H252204   4.120   5.393   7.351  0.1535 -1.3415  0.9394
 9337TIP3   OH252205   3.181   3.116  10.701  0.2658  0.2689 -0.4613
 9337TIP3    H152206   3.193   3.028  10.665  2.2696  0.1679  0.3519
 9337TIP3    H252207   3.203   3.175  10.628 -1.2275  0.1505 -1.0537
 9338TIP3   OH252208   4.321   2.765   7.050 -0.0101  0.3453  0.0720
 9338TIP3    H152209   4.413   2.778   7.070  0.1587  2.5699 -1.8549
 9338TIP3    H252210   4.275   2.793   7.130  0.9293 -0.7798  1.0426
 9339TIP3   OH252211   4.268   1.122   7.523 -0.0325 -0.3776  0.0681
 9339TIP3    H152212   4.228   1.035   7.513 -1.5965  0.4825 -1.7578
 9339TIP3    H252213   4.212   1.180   7.471  2.4920  1.2982 -0.9308
 9340TIP3   OH252214   0.340   0.224   7.251  0.3319 -0.0306 -0.1903
 9340TIP3    H152215   0.337   0.317   7.273  0.0741  0.4387 -2.0154
 9340TIP3    H252216   0.434   0.206   7.240  0.3591  0.1055 -0.1885
 9341TIP3   OH252217   6.388   5.360   7.870 -0.0218  0.4705 -0.3613
 9341TIP3    H152218   6.437   5.303   7.811 -1.4390 -0.5389 -0.6422
 9341TIP3    H252219   6.298   5.326   7.866 -0.1519  0.2357  2.5139
 9342TIP3   OH252220   5.348   4.991   6.767  0.4478 -0.0064 -0.4916
 9342TIP3    H152221   5.412   5.060   6.748 -0.6950  0.5940 -2.5031
 9342TIP3    H252222   5.338   4.945   6.683 -2.6540  0.7377 -0.6397
 9343TIP3   OH252223   1.817   6.515   9.058  0.1714 -0.0063 -0.2785
 9343TIP3    H152224   1.832   6.439   9.002 -0.1403 -0.3543  0.1036
 9343TIP3    H252225   1.762   6.482   9.129  0.0294  0.5801 -0.1114
 9344TIP3   OH252226   5.301   0.012   6.881  0.3314 -0.4318 -0.0600
 9344TIP3    H152227   5.292   0.041   6.790  0.7652  1.0019  0.3435
 9344TIP3    H252228   5.226   0.049   6.926  0.8171 -0.0366  0.4346
 9345TIP3   OH252229   3.634   5.412   8.017 -0.3932 -0.1131  0.2874
 9345TIP3    H152230   3.596   5.382   7.934  0.4995 -2.2424  0.5701
 9345TIP3    H252231   3.652   5.331   8.065 -0.9132  1.0733  2.6005
 9346TIP3   OH252232   3.145   3.975   7.744 -0.0985  0.0602  0.0386
 9346TIP3    H152233   3.090   3.953   7.820  0.6084  1.0214  0.8519
 9346TIP3    H252234   3.220   4.022   7.781  0.2303  0.6105 -1.2630
 9347TIP3   OH252235   2.552   2.341   7.483 -0.0993  0.0343  0.5275
 9347TIP3    H152236   2.493   2.388   7.543 -0.5389  0.0805  0.0708
 9347TIP3    H252237   2.527   2.373   7.396 -0.9761 -1.6413  0.1304
 9348TIP3   OH252238   1.206   5.120   7.329  0.5742  0.8765 -0.1311
 9348TIP3    H152239   1.271   5.177   7.286  0.2901  1.0927 -0.2784
 9348TIP3    H252240   1.140   5.180   7.362 -0.0056  0.5958 -0.7583
 9349TIP3   OH252241   3.344   2.714   9.044  0.1294 -0.3677  0.0229
 9349TIP3    H152242   3.254   2.740   9.022  1.0837  0.0641 -4.2455
 9349TIP3    H252243   3.387   2.796   9.068  0.3180  0.2601 -2.1847
 9350TIP3   OH252244   1.680   2.230   9.306  0.3120  0.2190 -0.6894
 9350TIP3    H152245   1.689   2.293   9.234  2.4265 -0.2999 -0.9438
 9350TIP3    H252246   1.641   2.153   9.265 -3.5519  1.6280 -0.1263
 9351TIP3   OH252247   0.303   5.774   8.367  0.6108  0.2499  0.3240
 9351TIP3    H152248   0.274   5.702   8.423  0.0905 -0.3145 -0.6449
 9351TIP3    H252249   0.324   5.845   8.428  0.8930 -0.6328  1.2778
 9352TIP3   OH252250   1.571   2.224   8.671 -0.6199 -0.5030  0.1373
 9352TIP3    H152251   1.564   2.307   8.624 -0.1435 -1.0883 -1.0249
 9352TIP3    H252252   1.525   2.239   8.754 -0.7724  0.8248 -0.1624
 9353TIP3   OH252253   3.793   3.553   8.795  0.0565  0.1232 -0.1741
 9353TIP3    H152254   3.784   3.566   8.889 -1.2799 -0.1305 -0.2529
 9353TIP3    H252255   3.887   3.562   8.778  0.0235  3.4055  0.7044
 9354TIP3   OH252256   6.604   0.986   7.601  0.0629 -0.1295 -0.4712
 9354TIP3    H152257   6.626   0.897   7.630 -0.7471 -0.7439 -1.6508
 9354TIP3    H252258   6.550   1.021   7.672 -0.8365 -1.1381 -0.6244
 9355TIP3   OH252259   5.646   3.439   6.812 -0.3130  0.7696  0.2295
 9355TIP3    H152260   5.572   3.441   6.752 -0.1326  0.9093  0.0125
 9355TIP3    H252261   5.639   3.354   6.856 -0.3193  0.5767 -0.1462
 9356TIP3   OH252262   5.908   6.177   6.659  0.0176 -0.4058 -0.3235
 9356TIP3    H152263   5.928   6.255   6.711 -1.1379  0.9691 -1.8264
 9356TIP3    H252264   5.987   6.163   6.606 -0.4586  0.9826 -1.4662
 9357TIP3   OH252265   4.970   5.219   6.949 -0.2939  0.0866  0.5878
 9357TIP3    H152266   4.876   5.203   6.956 -0.3032  0.2131  0.7678
 9357TIP3    H252267   5.009   5.161   7.014 -0.1573 -0.7977 -0.2667
 9358TIP3   OH252268   4.982   5.244   9.327  0.1283  0.0926 -0.5740
 9358TIP3    H152269   4.890   5.269   9.318  0.2654  0.4322 -1.0718
 9358TIP3    H252270   5.000   5.252   9.421 -0.2366  0.4221 -0.5301
 9359TIP3   OH252271   2.355   4.293   8.648  0.5219  0.2927  0.1083
 9359TIP3    H152272   2.333   4.340   8.728  1.8688  1.2635 -0.0732
 9359TIP3    H252273   2.411   4.353   8.598  0.5811 -0.7011 -1.0822
 9360TIP3   OH252274   6.597   3.542   8.979  0.2546 -0.3417 -0.5095
 9360TIP3    H152275   6.565   3.508   8.895 -1.0231  0.9070 -0.5706
 9360TIP3    H252276   6.519   3.546   9.034  0.7265  0.5812  0.1202
 9361TIP3   OH252277   3.536   5.573   7.018 -0.4016  0.1700 -0.0779
 9361TIP3    H152278   3.540   5.642   7.084 -0.8110  0.1620 -0.0444
 9361TIP3    H252279   3.602   5.510   7.046 -0.2008  0.4259  0.0285
 9362TIP3   OH252280   2.534   0.401   8.767 -0.2288 -0.1984  0.1411
 9362TIP3    H152281   2.547   0.308   8.749 -1.3536 -0.2768 -0.3432
 9362TIP3    H252282   2.613   0.443   8.732  0.4033 -0.9787  0.5771
 9363TIP3   OH252283   2.436   0.325   7.905  0.0717  0.5326  0.3287
 9363TIP3    H152284   2.529   0.310   7.919  0.0849  0.2361 -0.0543
 9363TIP3    H252285   2.429   0.350   7.812 -0.1708  1.0625  0.4853
 9364TIP3   OH252286   3.639   1.809   7.713 -0.8512 -0.5284  0.1687
 9364TIP3    H152287   3.580   1.872   7.753 -0.2934 -0.5593  1.0817
 9364TIP3    H252288   3.623   1.816   7.619 -0.1465  1.6492  0.1533
 9365TIP3   OH252289   3.173   3.256   8.415  0.2001  0.0957 -0.1835
 9365TIP3    H152290   3.122   3.294   8.344  1.6338  0.2692 -1.1707
 9365TIP3    H252291   3.225   3.187   8.374  0.5536 -0.2636  0.8303
 9366TIP3   OH252292   1.211   2.667   6.638 -0.0438 -0.3716 -0.0886
 9366TIP3    H152293   1.132   2.720   6.640  0.0791 -0.2032  1.7829
 9366TIP3    H252294   1.205   2.611   6.716  0.7907 -1.6908 -0.9256
 9367TIP3   OH252295   4.166   3.890   8.772 -0.2721 -0.1110  0.2251
 9367TIP3    H152296   4.122   3.955   8.718 -1.0097 -0.0384  0.8836
 9367TIP3    H252297   4.220   3.941   8.832  0.1897 -0.1700 -0.1375
 9368TIP3   OH252298   1.078   0.520   6.572  0.2267  0.8373 -0.2714
 9368TIP3    H152299   1.144   0.521   6.503 -0.2616  1.3193 -0.7350
 9368TIP3    H252300   1.094   0.437   6.618 -0.2264 -0.1134 -1.7358
 9369TIP3   OH252301   1.079   3.531   6.970 -0.1703 -0.4189 -0.2264
 9369TIP3    H152302   1.082   3.535   6.875 -1.9378 -2.7830 -0.4845
 9369TIP3    H252303   1.022   3.604   6.996 -0.3105 -0.2313 -1.0451
 9370TIP3   OH252304   1.247   4.753   8.714  0.0294  0.4750 -0.1582
 9370TIP3    H152305   1.177   4.818   8.705 -1.3914 -0.7987  1.0263
 9370TIP3    H252306   1.264   4.723   8.625 -0.2997  1.4400 -0.5566
 9371TIP3   OH252307   2.672   1.012   6.633 -0.3432  0.1350  0.4810
 9371TIP3    H152308   2.669   0.942   6.698  1.2165  0.1890  0.6435
 9371TIP3    H252309   2.684   0.967   6.549  0.1270  0.1825  0.5226
 9372TIP3   OH252310   1.504   3.331   7.133 -0.5902 -0.1214 -0.0728
 9372TIP3    H152311   1.489   3.241   7.164  0.3468 -1.1236 -2.3009
 9372TIP3    H252312   1.420   3.357   7.095 -1.0869  0.2695  1.2443
 9373TIP3   OH252313   0.383   4.309   9.212 -0.1357  0.1965 -0.0094
 9373TIP3    H152314   0.333   4.346   9.286 -0.5518  1.2843 -0.8018
 9373TIP3    H252315   0.406   4.221   9.241 -0.0944  0.6666  1.5132
 9374TIP3   OH252316   0.065   5.990   7.286 -0.1629  0.0671  0.1878
 9374TIP3    H152317   0.048   6.075   7.327 -1.7459  0.0183 -0.3082
 9374TIP3    H252318  -0.018   5.944   7.290  0.3992 -1.0523 -0.5102
 9375TIP3   OH252319   4.096   4.133   8.646  0.2501 -0.3339 -0.2483
 9375TIP3    H152320   4.087   4.216   8.692  2.3979 -0.9778  1.4871
 9375TIP3    H252321   4.058   4.149   8.559 -1.9092  1.5719  0.9640
 9376TIP3   OH252322   0.718   4.626   8.081  0.0867 -0.0204  0.5690
 9376TIP3    H152323   0.636   4.673   8.093  0.3991  0.4249  1.0160
 9376TIP3    H252324   0.717   4.558   8.149  0.4673  0.5397  1.1548
 9377TIP3   OH252325   1.547   4.961   6.854  0.2490  0.0464  0.3127
 9377TIP3    H152326   1.458   4.950   6.888  0.7370 -0.3396  1.5347
 9377TIP3    H252327   1.550   4.908   6.775 -0.2238 -1.0555  1.0055
 9378TIP3   OH252328   6.220   1.733   8.993 -0.5247 -0.7684 -0.6474
 9378TIP3    H152329   6.249   1.657   8.943 -0.2151 -0.2595 -1.2493
 9378TIP3    H252330   6.203   1.800   8.927 -3.2413 -1.0638 -0.3642
 9379TIP3   OH252331   1.230   2.336   8.050  0.1783  0.9729 -0.2676
 9379TIP3    H152332   1.214   2.428   8.030 -0.3773  0.7518 -0.8923
 9379TIP3    H252333   1.145   2.303   8.078  0.8133  1.1380  2.0269
 9380TIP3   OH252334   3.850   4.805   9.940  0.1281 -0.2582  0.1526
 9380TIP3    H152335   3.879   4.890   9.906 -0.1465 -0.2803 -0.1408
 9380TIP3    H252336   3.785   4.827  10.006  0.5781 -0.2190  0.5874
 9381TIP3   OH252337   3.289   5.702   7.449 -0.0960  0.4024  0.0427
 9381TIP3    H152338   3.273   5.721   7.542 -1.8379  1.0250 -0.3332
 9381TIP3    H252339   3.231   5.628   7.429 -2.5361  2.4934 -1.3115
 9382TIP3   OH252340   6.308   3.190   9.806  0.3806  0.1970  0.2148
 9382TIP3    H152341   6.400   3.162   9.808  0.0749 -1.0109 -1.2452
 9382TIP3    H252342   6.289   3.202   9.713 -0.2434  2.9516  0.6075
 9383TIP3   OH252343   4.378   3.861   7.384  0.2334  0.3766 -0.4794
 9383TIP3    H152344   4.330   3.792   7.429 -0.9821  0.7964 -1.1095
 9383TIP3    H252345   4.314   3.932   7.371  1.1654  1.1936 -0.7973
 9384TIP3   OH252346   5.601   2.732   7.669  0.4410 -0.3553  0.1702
 9384TIP3    H152347   5.653   2.651   7.673 -0.1387 -0.7253  0.2747
 9384TIP3    H252348   5.585   2.745   7.576  1.0905  0.0007  0.1040
 9385TIP3   OH252349   0.178   4.120   7.120  0.5041  0.3291 -0.2278
 9385TIP3    H152350   0.172   4.183   7.192 -0.4906 -0.2363  0.1996
 9385TIP3    H252351   0.149   4.038   7.158 -2.0786  0.4255 -1.7755
 9386TIP3   OH252352   6.229   4.352  10.495 -0.0374  0.5941 -0.2518
 9386TIP3    H152353   6.295   4.398  10.547  0.2942  0.6523 -0.7192
 9386TIP3    H252354   6.269   4.267  10.475 -0.1359  0.5974 -0.4659
 9387TIP3   OH252355   4.653   2.599   6.797 -0.4479 -0.5325 -0.1303
 9387TIP3    H152356   4.667   2.689   6.828 -1.3830 -0.3158 -0.3212
 9387TIP3    H252357   4.609   2.556   6.871 -1.3560 -0.4150 -0.5910
 9388TIP3   OH252358   1.447   1.022   7.137  0.0363  0.2050 -0.2066
 9388TIP3    H152359   1.450   1.044   7.230  0.3874  0.1128 -0.1973
 9388TIP3    H252360   1.537   1.029   7.107 -0.3954  2.9166 -1.1741
 9389TIP3   OH252361   2.632   6.563   8.821 -0.6062  0.3044  0.3541
 9389TIP3    H152362   2.632   6.656   8.801 -0.8549 -0.1914 -2.2364
 9389TIP3    H252363   2.724   6.538   8.826 -0.5222  0.8196  2.0108
 9390TIP3   OH252364   4.935   0.476   7.580 -0.0346  0.3224  0.3259
 9390TIP3    H152365   4.857   0.422   7.596  0.9635 -0.7247  1.9276
 9390TIP3    H252366   5.007   0.414   7.577  0.9054  1.3955  0.0798
 9391TIP3   OH252367   1.770   3.468   7.208  0.3241  0.2683  0.6608
 9391TIP3    H152368   1.774   3.488   7.302  0.4593 -2.7489  1.3994
 9391TIP3    H252369   1.695   3.409   7.199 -1.2003  2.3674 -1.6195
 9392TIP3   OH252370   6.505   3.867   6.937  0.0523  0.6303 -0.3224
 9392TIP3    H152371   6.461   3.898   6.858 -0.0612  0.1024 -0.4702
 9392TIP3    H252372   6.592   3.906   6.933 -0.1176  1.0002 -0.4564
 9393TIP3   OH252373   2.245   0.793   8.581  0.3634 -0.1580 -0.2391
 9393TIP3    H152374   2.281   0.847   8.510  0.4732  0.1926  0.0821
 9393TIP3    H252375   2.160   0.763   8.547  0.8681 -0.8490 -0.9330
 9394TIP3   OH252376   0.479   5.156   8.486 -0.0320  0.4541  0.0968
 9394TIP3    H152377   0.461   5.068   8.518  0.7204  0.2790  0.0697
 9394TIP3    H252378   0.393   5.193   8.465 -0.2509 -0.8383 -1.4278
 9395TIP3   OH252379   4.929   0.293   9.032  0.1604  0.2342 -0.3746
 9395TIP3    H152380   5.015   0.267   9.066 -0.1301 -2.7414 -1.6187
 9395TIP3    H252381   4.883   0.330   9.108  1.7320 -0.2139  0.8507
 9396TIP3   OH252382   1.155   2.493   8.704  0.8388 -0.0080 -0.5966
 9396TIP3    H152383   1.124   2.463   8.790  0.9295  0.0006 -0.5613
 9396TIP3    H252384   1.240   2.532   8.721  0.7011  0.3113 -0.6360
 9397TIP3   OH252385   4.382   6.119   9.140  0.3614 -0.0917 -0.3811
 9397TIP3    H152386   4.307   6.109   9.199 -0.2630 -2.1649 -1.4408
 9397TIP3    H252387   4.427   6.198   9.172 -1.1662  0.1043  1.4773
 9398TIP3   OH252388   2.049   6.576   7.206  0.0160  0.4494 -0.6239
 9398TIP3    H152389   1.981   6.531   7.157 -3.0032  1.4914  2.2077
 9398TIP3    H252390   2.055   6.528   7.288  2.1753  0.8885 -0.4713
 9399TIP3   OH252391   0.243   4.524   8.616  0.0371  0.3847 -0.0820
 9399TIP3    H152392   0.284   4.481   8.541 -2.3420  0.0841 -1.2969
 9399TIP3    H252393   0.230   4.615   8.587  0.5391  0.6793  0.5918
 9400TIP3   OH252394   6.249   0.643   7.953  0.1115  0.1701 -0.4619
 9400TIP3    H152395   6.323   0.627   8.011  0.3642  0.2962 -0.7505
 9400TIP3    H252396   6.178   0.589   7.989  0.5667 -0.5504 -0.6332
 9401TIP3   OH252397   1.456   5.770   6.649  0.5320  0.7094  0.0675
 9401TIP3    H152398   1.394   5.828   6.694 -1.3749  0.2794 -1.7954
 9401TIP3    H252399   1.402   5.697   6.619  2.2771 -0.4771 -0.3160
 9402TIP3   OH252400   4.022   4.165   8.383  0.0427  0.2749 -0.6166
 9402TIP3    H152401   3.926   4.159   8.386  0.1354 -1.5771  0.9243
 9402TIP3    H252402   4.046   4.116   8.305 -0.2793  2.1496 -1.9607
 9403TIP3   OH252403   5.694   2.333   9.995 -0.1908 -0.0346  0.2283
 9403TIP3    H152404   5.619   2.392   9.998  0.2945  0.5976  0.1736
 9403TIP3    H252405   5.707   2.306  10.086 -0.0699  0.3964  0.3436
 9404TIP3   OH252406   6.524   4.952   8.394  0.2425 -0.3214  0.4456
 9404TIP3    H152407   6.574   4.964   8.313  2.0327  0.3497  1.5816
 9404TIP3    H252408   6.452   5.015   8.388  0.0331 -0.6452 -0.8250
 9405TIP3   OH252409   1.541   1.806   8.345  0.3947 -0.1450 -0.4146
 9405TIP3    H152410   1.538   1.789   8.250 -0.9255  0.9450 -0.6071
 9405TIP3    H252411   1.618   1.862   8.357  0.2594  0.1713 -0.9514
 9406TIP3   OH252412   3.395   0.751   8.862  0.0632 -0.1786  0.1848
 9406TIP3    H152413   3.374   0.843   8.882 -0.9296 -0.9595  3.2460
 9406TIP3    H252414   3.388   0.745   8.766  1.3925  3.1878 -0.2540
 9407TIP3   OH252415   1.974   6.385   8.569 -0.2915  0.1860  0.1789
 9407TIP3    H152416   2.026   6.304   8.566  1.5957  1.1358  3.0415
 9407TIP3    H252417   2.006   6.436   8.494 -1.2083 -1.4721 -1.4150
 9408TIP3   OH252418   3.609   6.618   6.408 -0.0612  0.2797 -0.0340
 9408TIP3    H152419   3.684   6.604   6.351 -0.8572  0.8841 -1.2829
 9408TIP3    H252420   3.646   6.654   6.489  0.9401  1.1531 -0.8558
 9409TIP3   OH252421   3.366   3.641  10.014 -0.0280  0.0744  0.2906
 9409TIP3    H152422   3.377   3.592  10.096  0.5804  1.2893  0.9678
 9409TIP3    H252423   3.296   3.703  10.033  1.4398  1.7115  0.5882
 9410TIP3   OH252424   3.831   6.465   7.590  0.5475  0.2612 -0.4676
 9410TIP3    H152425   3.877   6.518   7.525  0.1260  0.3627 -0.6872
 9410TIP3    H252426   3.805   6.526   7.658 -2.1081  0.8692 -1.8699
 9411TIP3   OH252427   0.056   2.285   7.298 -0.1654 -0.1287 -0.5148
 9411TIP3    H152428   0.030   2.376   7.304  0.3565 -0.0109  0.0173
 9411TIP3    H252429  -0.019   2.236   7.332  0.7294  0.2659  2.2552
 9412TIP3   OH252430   2.325   6.700   8.228 -0.5939 -0.0264  0.3219
 9412TIP3    H152431   2.381   6.777   8.218  1.7657 -1.5034  1.1819
 9412TIP3    H252432   2.264   6.724   8.298 -0.3617  1.2678  0.1176
 9413TIP3   OH252433   4.732   0.475   8.107 -0.0318  0.1340  0.5011
 9413TIP3    H152434   4.662   0.412   8.088  0.5796 -0.5247  0.3743
 9413TIP3    H252435   4.693   0.537   8.169 -0.4770 -0.7068  1.0819
 9414TIP3   OH252436   5.091   1.251   8.692 -0.3924 -0.0271 -0.1342
 9414TIP3    H152437   5.038   1.300   8.755  0.3748 -0.4526  0.8733
 9414TIP3    H252438   5.181   1.277   8.713 -0.0610 -0.9690 -0.3670
 9415TIP3   OH252439   1.712   1.274   8.283  0.2146 -0.1327  0.2126
 9415TIP3    H152440   1.780   1.319   8.331  0.6599 -0.7940  0.2159
 9415TIP3    H252441   1.719   1.307   8.194  0.4262 -0.0656  0.2538
 9416TIP3   OH252442   0.250   3.110   8.682 -0.0573  0.2553  0.0844
 9416TIP3    H152443   0.338   3.082   8.708  0.2431  0.4244 -0.7250
 9416TIP3    H252444   0.210   3.141   8.763  0.0846 -1.2213  0.7414
 9417TIP3   OH252445   3.251   0.738   6.695 -0.3613 -0.0678  0.3306
 9417TIP3    H152446   3.279   0.801   6.628 -1.6113 -0.8247 -0.9589
 9417TIP3    H252447   3.290   0.655   6.669  1.9049  0.2241  2.4453
 9418TIP3   OH252448   3.654   5.480   9.601  0.2641 -0.3508  0.1075
 9418TIP3    H152449   3.564   5.447   9.602 -0.0422  0.4297 -0.2151
 9418TIP3    H252450   3.705   5.416   9.650 -0.4400 -0.8920  0.1390
 9419TIP3   OH252451   3.968   3.047   9.783  0.6999 -0.7627  0.4829
 9419TIP3    H152452   3.904   3.057   9.853 -2.0762 -1.2925 -1.7747
 9419TIP3    H252453   3.967   2.953   9.764 -0.4923 -0.3767 -1.7586
 9420TIP3   OH252454   4.454   3.015   8.815  0.4152 -0.0079  0.4252
 9420TIP3    H152455   4.368   2.974   8.809  0.4060  0.1086 -0.3457
 9420TIP3    H252456   4.515   2.949   8.783  0.2768  0.9335 -1.9374
 9421TIP3   OH252457   3.827   3.638   7.667 -0.2196  0.1770 -0.5187
 9421TIP3    H152458   3.779   3.662   7.588 -1.0783  1.3070  0.3093
 9421TIP3    H252459   3.920   3.646   7.643 -0.4416  2.9232 -0.7717
 9422TIP3   OH252460   0.411   6.467   7.814 -0.1504  0.5061  0.4485
 9422TIP3    H152461   0.472   6.527   7.857  0.7541 -0.6802  0.8855
 9422TIP3    H252462   0.399   6.503   7.726  1.2807  0.7142  0.3207
 9423TIP3   OH252463   3.875   0.346   8.318 -0.3709  1.2162 -0.6110
 9423TIP3    H152464   3.900   0.385   8.234 -0.0736  0.9963 -0.6247
 9423TIP3    H252465   3.957   0.315   8.356 -0.7735 -0.9787 -1.3931
 9424TIP3   OH252466   6.066   3.537   8.010  0.0180  0.1717 -0.4542
 9424TIP3    H152467   6.079   3.483   8.088 -0.5808 -0.4462 -0.7724
 9424TIP3    H252468   6.133   3.506   7.949 -0.4166 -0.3263 -0.6893
 9425TIP3   OH252469   1.803   0.609   8.973  0.1520  0.2887 -0.3778
 9425TIP3    H152470   1.797   0.671   9.046  2.3047  1.1707 -0.8568
 9425TIP3    H252471   1.873   0.549   8.998  0.5371  0.2662 -1.4647
 9426TIP3   OH252472   5.884   3.668   8.223  0.1556  0.0986  0.5499
 9426TIP3    H152473   5.863   3.681   8.130 -0.1486  1.9994  0.8391
 9426TIP3    H252474   5.952   3.601   8.223  1.1397  1.0279 -1.1509
 9427TIP3   OH252475   5.391   1.181   7.960 -0.3427  0.6291 -0.4144
 9427TIP3    H152476   5.371   1.103   7.907 -1.4244  0.6996 -0.1484
 9427TIP3    H252477   5.481   1.202   7.939 -0.5896  0.3579 -1.8651
 9428TIP3   OH252478   6.332   4.011   7.580  0.3061 -0.3066 -0.6039
 9428TIP3    H152479   6.259   4.045   7.630  1.6046  1.8556 -0.0487
 9428TIP3    H252480   6.296   3.937   7.532 -1.1550 -2.1687  3.0221
 9429TIP3   OH252481   5.965   0.870   8.877 -0.1334  0.2349 -0.4201
 9429TIP3    H152482   5.953   0.912   8.962 -0.8309 -0.1635 -0.3150
 9429TIP3    H252483   6.033   0.922   8.834  0.0919  0.5560  0.3012
 9430TIP3   OH252484   6.264   4.862  10.535  0.1831 -0.2670  0.0275
 9430TIP3    H152485   6.301   4.812  10.462 -1.0883 -0.2102 -0.6809
 9430TIP3    H252486   6.218   4.796  10.588 -1.1601  0.0622 -0.6922
 9431TIP3   OH252487   0.603   4.764   7.147  0.3719  0.2988 -0.0937
 9431TIP3    H152488   0.565   4.747   7.060 -2.2195  2.0909  0.5754
 9431TIP3    H252489   0.594   4.681   7.194  2.5452 -0.9461 -1.6866
 9432TIP3   OH252490   6.219   6.036   8.420  0.2146  0.6792  0.0627
 9432TIP3    H152491   6.149   5.978   8.389 -0.1290  0.7992  0.5904
 9432TIP3    H252492   6.299   5.998   8.385 -0.1544  0.8174 -0.9772
 9433TIP3   OH252493   5.802   0.812   9.285 -0.0876  0.0533  0.2066
 9433TIP3    H152494   5.853   0.732   9.269 -0.1204  0.2096 -0.7289
 9433TIP3    H252495   5.818   0.832   9.377  1.1420 -0.1833  0.0685
 9434TIP3   OH252496   3.215   6.110   9.105 -0.4121 -0.2590  0.0180
 9434TIP3    H152497   3.273   6.087   9.178  1.9342  1.2310 -1.2971
 9434TIP3    H252498   3.200   6.027   9.060  0.6428 -0.6775  0.4067
 9435TIP3   OH252499   3.662   4.434   8.404  0.1423 -0.1708  0.1398
 9435TIP3    H152500   3.599   4.427   8.475 -0.9865 -1.1993 -0.9157
 9435TIP3    H252501   3.700   4.346   8.397 -0.1268 -0.2234 -0.8327
 9436TIP3   OH252502   6.656   3.336   9.218 -0.4639  0.2845 -0.0534
 9436TIP3    H152503   6.669   3.431   9.230 -0.6961  0.3564 -0.3609
 9436TIP3    H252504   6.723   3.296   9.273 -1.6210  0.5855  1.6597
 9437TIP3   OH252505   4.012   0.017   9.516  0.4467 -0.0628  0.1015
 9437TIP3    H152506   4.046  -0.062   9.473  1.7161 -0.9043  2.4599
 9437TIP3    H252507   3.928  -0.010   9.553 -0.7121  0.6997 -1.8221
 9438TIP3   OH252508   5.167   2.280   9.569  0.2734 -0.7080 -0.8284
 9438TIP3    H152509   5.102   2.331   9.617  0.2443 -1.2632 -0.2737
 9438TIP3    H252510   5.197   2.214   9.631  2.6935  0.6463 -0.4773
 9439TIP3   OH252511   4.625   6.715   7.412  0.2264 -0.2291 -0.0045
 9439TIP3    H152512   4.620   6.793   7.356  1.7849  0.1025  0.2440
 9439TIP3    H252513   4.556   6.657   7.380 -1.2963  1.4369  0.1038
 9440TIP3   OH252514   0.589   1.305   8.632 -0.3745 -0.5456 -0.1941
 9440TIP3    H152515   0.609   1.339   8.545  0.6893 -2.1535 -0.6146
 9440TIP3    H252516   0.674   1.288   8.671 -0.8530 -0.5645  0.8687
 9441TIP3   OH252517   5.372   3.077   8.399 -0.4691 -0.1523 -0.5999
 9441TIP3    H152518   5.307   3.135   8.439 -1.9604 -0.6497 -2.1794
 9441TIP3    H252519   5.330   3.047   8.318  0.8811 -2.1855 -0.6057
 9442TIP3   OH252520   5.830   5.097   8.145  0.8498 -0.3598 -0.3254
 9442TIP3    H152521   5.811   5.094   8.239 -1.3336  1.6912 -0.6090
 9442TIP3    H252522   5.810   5.009   8.114  0.7984 -0.8432  0.9951
 9443TIP3   OH252523   3.149   3.916   7.265  0.2633 -0.2101 -0.2309
 9443TIP3    H152524   3.236   3.955   7.259 -0.0570  0.4210 -1.1433
 9443TIP3    H252525   3.156   3.834   7.216 -0.2097  0.9430 -2.3409
 9444TIP3   OH252526   0.556   6.148   8.637  0.3179 -0.0611 -0.0276
 9444TIP3    H152527   0.634   6.112   8.596 -0.0216 -0.6231 -0.1925
 9444TIP3    H252528   0.589   6.201   8.709  0.8026 -1.6713  0.9834
 9445TIP3   OH252529   5.378   4.944   9.462 -0.1037  0.5399 -0.5788
 9445TIP3    H152530   5.375   5.013   9.395 -0.2785 -0.2049 -1.3455
 9445TIP3    H252531   5.406   4.990   9.541 -2.0264  1.8863 -0.5871
 9446TIP3   OH252532   1.282   2.782  10.053 -0.4738 -0.2982  0.0536
 9446TIP3    H152533   1.292   2.858   9.996  0.5554 -0.5059 -0.0657
 9446TIP3    H252534   1.210   2.805  10.111 -1.4026  0.0052 -1.1812
 9447TIP3   OH252535   5.287   3.022   9.975 -0.0019  0.2596  0.1578
 9447TIP3    H152536   5.264   3.064  10.059  0.3083 -1.6318  1.2316
 9447TIP3    H252537   5.382   3.032   9.970 -0.1161  1.1964 -0.4665
 9448TIP3   OH252538   4.411   5.593   6.647  0.0040  0.1948 -0.5372
 9448TIP3    H152539   4.442   5.657   6.583  1.1766  0.6698  0.4628
 9448TIP3    H252540   4.491   5.560   6.688 -0.6909 -0.6264  0.1838
 9449TIP3   OH252541   0.421   5.944   8.549  0.1901 -0.3160 -0.1162
 9449TIP3    H152542   0.401   5.877   8.614  0.2133 -0.5551 -0.3544
 9449TIP3    H252543   0.454   6.018   8.601  0.7255 -0.6986  0.1001
 9450TIP3   OH252544   3.463   0.023   7.410  0.2959  0.5681  0.4355
 9450TIP3    H152545   3.379  -0.017   7.388  1.3181 -1.0365 -0.7814
 9450TIP3    H252546   3.455   0.047   7.503 -1.5526  0.6256  0.2882
 9451TIP3   OH252547   1.584   2.212   6.888  0.4703  0.2873 -0.2118
 9451TIP3    H152548   1.669   2.201   6.846  0.4610 -1.7579  0.2073
 9451TIP3    H252549   1.544   2.125   6.885 -1.7487  1.2575 -0.6587
 9452TIP3   OH252550   0.651   4.565   8.388 -0.2906  0.2523  0.1276
 9452TIP3    H152551   0.726   4.512   8.415 -0.2304  0.1274 -0.2924
 9452TIP3    H252552   0.689   4.650   8.367 -0.3932  0.4854  0.8461
 9453TIP3   OH252553   3.626   5.702   9.425 -0.0958  0.2165 -0.0907
 9453TIP3    H152554   3.581   5.782   9.453 -1.3884  0.0227 -1.4684
 9453TIP3    H252555   3.625   5.645   9.501  1.3057  1.6639  1.0891
 9454TIP3   OH252556   3.534   3.683   9.284  0.2988  0.1411 -0.0523
 9454TIP3    H152557   3.608   3.625   9.273 -0.8159 -1.3322 -0.0549
 9454TIP3    H252558   3.569   3.759   9.331  2.0753  0.1336 -1.2659
 9455TIP3   OH252559   6.464   2.018   8.554 -0.4190  0.3720  0.1330
 9455TIP3    H152560   6.544   2.067   8.537 -1.5925  2.2186 -0.2971
 9455TIP3    H252561   6.493   1.940   8.602  1.5828  1.1157  0.1981
 9456TIP3   OH252562   2.374   5.565   8.207  0.3186  0.1646 -0.8079
 9456TIP3    H152563   2.451   5.612   8.174  0.0999  2.1334  1.2796
 9456TIP3    H252564   2.300   5.619   8.179 -0.2778 -1.1030 -1.7855
 9457TIP3   OH252565   5.947   3.914   6.895  0.5607 -0.0700  0.6142
 9457TIP3    H152566   6.026   3.871   6.929  1.9544  1.2399 -0.7875
 9457TIP3    H252567   5.956   3.908   6.799 -1.0536  0.1467  0.4173
 9458TIP3   OH252568   6.662   0.711   7.761 -0.5592  0.3348  0.1029
 9458TIP3    H152569   6.698   0.745   7.842  0.8603 -0.5223 -0.1354
 9458TIP3    H252570   6.643   0.619   7.779 -1.7530  0.5235 -0.0758
 9459TIP3   OH252571   3.912   5.462   8.953 -0.1392 -0.5957  0.0595
 9459TIP3    H152572   3.949   5.474   8.866 -0.8738 -2.3247 -0.5401
 9459TIP3    H252573   3.830   5.511   8.952 -0.0986 -0.5343 -0.1804
 9460TIP3   OH252574   2.263   2.410   9.527  0.8841 -0.1031 -0.7308
 9460TIP3    H152575   2.300   2.489   9.565  0.4190 -0.0128 -0.4715
 9460TIP3    H252576   2.169   2.426   9.523  0.6802 -1.0042  0.1754
 9461TIP3   OH252577   4.122   5.006   9.469 -0.1183 -0.3023 -0.1668
 9461TIP3    H152578   4.051   4.945   9.448  0.0484 -0.7481  0.5282
 9461TIP3    H252579   4.094   5.047   9.551  1.6385 -2.4946  1.6522
 9462TIP3   OH252580   3.125   2.952   6.864  0.1496  0.3680  1.0270
 9462TIP3    H152581   3.048   2.901   6.840  0.7845 -0.9333  1.6427
 9462TIP3    H252582   3.135   3.016   6.793 -0.2804 -0.8108 -0.1345
 9463TIP3   OH252583   5.529   4.556   7.542  0.5061 -0.2696 -0.0072
 9463TIP3    H152584   5.447   4.587   7.504  0.8863  0.0536 -0.5708
 9463TIP3    H252585   5.572   4.509   7.471  1.9872  1.7484 -0.5150
 9464TIP3   OH252586   6.584   4.715   8.591  0.0564 -0.9078  0.0107
 9464TIP3    H152587   6.586   4.764   8.674  2.5077  0.5798 -0.8167
 9464TIP3    H252588   6.503   4.743   8.549 -0.2932 -0.2353  1.0825
 9465TIP3   OH252589   6.418   5.205   7.656 -0.1194  0.6786 -0.0938
 9465TIP3    H152590   6.418   5.112   7.636 -1.2092  0.7230 -0.3873
 9465TIP3    H252591   6.335   5.237   7.619  0.4064  1.8277 -0.3151
 9466TIP3   OH252592   5.619   1.391   8.128  0.2559 -0.1409 -0.3076
 9466TIP3    H152593   5.679   1.386   8.054 -0.4090  1.1567 -0.9642
 9466TIP3    H252594   5.656   1.332   8.193  1.2584 -0.7372 -1.3864
 9467TIP3   OH252595   5.769   5.402   7.506 -0.0770  0.4121 -0.0891
 9467TIP3    H152596   5.710   5.349   7.560  1.0352 -1.1080 -0.3007
 9467TIP3    H252597   5.735   5.391   7.417 -1.6232  2.5353  0.1440
 9468TIP3   OH252598   6.165   2.466   6.843 -0.2563  0.0884 -0.1983
 9468TIP3    H152599   6.230   2.402   6.814  0.9392 -0.3654  3.0842
 9468TIP3    H252600   6.215   2.547   6.856 -0.7547  0.3222  0.3014
 9469TIP3   OH252601   3.466   0.251   7.625 -0.0855  0.1717 -0.1290
 9469TIP3    H152602   3.436   0.321   7.566 -0.4842  1.8501  1.9651
 9469TIP3    H252603   3.467   0.291   7.711  1.3464 -1.9611  0.9169
 9470TIP3   OH252604   0.732   1.088   8.317 -0.3114  0.4409  0.1930
 9470TIP3    H152605   0.793   1.159   8.334 -0.2189  0.4043  0.0102
 9470TIP3    H252606   0.710   1.055   8.404  0.5225 -0.0461  0.2304
 9471TIP3   OH252607   1.185   2.276   9.340 -0.7273 -0.0384  0.3710
 9471TIP3    H152608   1.165   2.215   9.270  0.8553  0.0019 -0.1725
 9471TIP3    H252609   1.112   2.338   9.340 -2.2859 -1.7888  0.8410
 9472TIP3   OH252610   3.440   1.789   6.794  0.3420 -0.4259 -0.2265
 9472TIP3    H152611   3.346   1.781   6.778  0.3840 -1.2025 -0.1484
 9472TIP3    H252612   3.447   1.854   6.864 -0.1922 -0.9259  0.3056
 9473TIP3   OH252613   5.604   1.154   9.097  0.1403  0.1003 -0.2682
 9473TIP3    H152614   5.628   1.193   9.013  0.5344 -1.2400 -0.8050
 9473TIP3    H252615   5.544   1.217   9.137 -0.8729  0.2882 -2.0110
 9474TIP3   OH252616   5.990   1.338   7.349  0.6417  0.2712  0.7772
 9474TIP3    H152617   5.936   1.341   7.269  0.6666 -0.6619  0.7203
 9474TIP3    H252618   5.928   1.318   7.419  0.9612 -1.3247  0.6399
 9475TIP3   OH252619   3.886   5.348   7.788 -0.5317 -0.0663 -0.7759
 9475TIP3    H152620   3.885   5.440   7.760 -0.8183  0.3540  0.5221
 9475TIP3    H252621   3.793   5.323   7.788 -0.5381 -0.0547 -0.2348
 9476TIP3   OH252622   4.183   0.656   8.662  0.0389 -0.3992 -0.5010
 9476TIP3    H152623   4.103   0.662   8.611  0.6241 -0.7522 -1.4949
 9476TIP3    H252624   4.169   0.582   8.721 -0.9105  0.4438  0.3839
 9477TIP3   OH252625   1.475   3.487   9.057 -0.0209 -0.2101  0.7192
 9477TIP3    H152626   1.482   3.410   9.001  0.4001 -0.0020  0.4781
 9477TIP3    H252627   1.564   3.501   9.090  0.0996  0.6922  0.0503
 9478TIP3   OH252628   5.481   2.898   9.747 -0.0751 -0.2357  0.1973
 9478TIP3    H152629   5.512   2.808   9.755  0.7075  0.1272  1.4734
 9478TIP3    H252630   5.394   2.890   9.708  0.0988 -1.5159  0.0234
 9479TIP3   OH252631   1.842   0.652   8.705  0.0897  0.1949 -0.5526
 9479TIP3    H152632   1.928   0.612   8.693  0.8397  1.9159 -1.2245
 9479TIP3    H252633   1.822   0.638   8.798  2.1313  1.6390  0.1902
 9480TIP3   OH252634   4.101   4.579   9.008 -0.3389  0.0845 -0.5201
 9480TIP3    H152635   4.014   4.538   9.015 -0.2044 -0.3683 -1.3730
 9480TIP3    H252636   4.087   4.669   9.039 -1.6073  0.6535 -2.4957
 9481TIP3   OH252637   2.016   6.225   7.731 -0.1397 -0.0833  0.4007
 9481TIP3    H152638   2.094   6.279   7.746 -0.0385  0.4040 -1.6107
 9481TIP3    H252639   2.032   6.145   7.783  1.3549  0.3123  0.5955
 9482TIP3   OH252640   2.698   6.120   7.192 -0.4166 -0.5487 -0.3212
 9482TIP3    H152641   2.675   6.168   7.272 -0.1621  0.7493 -0.9953
 9482TIP3    H252642   2.711   6.030   7.221  0.9171  0.1221  1.3438
 9483TIP3   OH252643   4.332   2.068   8.564 -0.7515 -0.0113 -0.0306
 9483TIP3    H152644   4.270   2.091   8.633 -1.7777 -0.5405 -0.7512
 9483TIP3    H252645   4.278   2.032   8.494  0.4163 -0.8896 -0.5168
 9484TIP3   OH252646   3.751   1.510   8.733  0.4687 -0.2580  0.0843
 9484TIP3    H152647   3.801   1.462   8.667 -0.3587  0.0907 -0.8113
 9484TIP3    H252648   3.689   1.445   8.768 -0.6488  0.1328 -1.1249
 9485TIP3   OH252649   5.554   3.831   9.813  0.1308  0.1970  0.6731
 9485TIP3    H152650   5.459   3.841   9.821 -0.2735 -1.5616 -1.1332
 9485TIP3    H252651   5.572   3.849   9.721  1.1516 -1.8553  0.4191
 9486TIP3   OH252652   4.015   0.443   8.081 -0.0188  0.0898 -0.6640
 9486TIP3    H152653   4.010   0.530   8.120 -0.6308  0.2362 -1.0521
 9486TIP3    H252654   3.996   0.458   7.988 -1.9641 -0.6744 -0.4452
 9487TIP3   OH252655   0.666   1.488   7.836 -0.0046 -0.2164  0.7386
 9487TIP3    H152656   0.638   1.415   7.781 -0.4207  0.7625 -0.4127
 9487TIP3    H252657   0.695   1.555   7.773 -1.6789  1.4376  1.6391
 9488TIP3   OH252658   1.365   5.681   7.352 -0.2394  0.1018  0.7080
 9488TIP3    H152659   1.455   5.683   7.384  0.3127  1.0554 -0.7870
 9488TIP3    H252660   1.327   5.603   7.393  1.1311 -0.0969  1.6848
 9489TIP3   OH252661   5.323   3.526   8.502  0.3009 -0.0076 -0.2012
 9489TIP3    H152662   5.305   3.619   8.484  1.4846  0.1410 -0.6945
 9489TIP3    H252663   5.412   3.512   8.469  1.3960 -0.5309  2.7083
 9490TIP3   OH252664   2.235   3.713   9.087 -0.4704 -0.1481  0.2036
 9490TIP3    H152665   2.239   3.638   9.147 -0.6859  0.9509  1.6555
 9490TIP3    H252666   2.299   3.775   9.122 -0.8060  0.6328 -0.5398
 9491TIP3   OH252667   0.379   2.728   6.582 -0.1452 -0.4867 -0.0818
 9491TIP3    H152668   0.327   2.805   6.605  2.0599  0.8190  0.7814
 9491TIP3    H252669   0.362   2.665   6.652 -0.4960 -0.0641  0.2132
 9492TIP3   OH252670   1.738   5.097   8.128  0.2351  0.6144  0.3687
 9492TIP3    H152671   1.720   5.131   8.040 -0.1655 -2.1054 -0.6748
 9492TIP3    H252672   1.816   5.042   8.118 -0.7669 -1.0527  1.3457
 9493TIP3   OH252673   0.030   1.301   8.514 -0.2132  0.6322  0.2676
 9493TIP3    H152674  -0.065   1.294   8.507 -0.1284 -0.0901 -0.2933
 9493TIP3    H252675   0.049   1.393   8.498 -0.6836  0.4681 -1.4229
 9494TIP3   OH252676   0.662   4.460   9.529  0.2943 -0.0736  0.4737
 9494TIP3    H152677   0.613   4.394   9.578  0.4535 -1.2809 -0.9206
 9494TIP3    H252678   0.594   4.514   9.488  0.1135 -0.8029 -0.2186
 9495TIP3   OH252679   2.970   3.109   9.474 -0.1613  0.3243  0.0656
 9495TIP3    H152680   3.046   3.157   9.508  0.6822  0.5291 -1.9696
 9495TIP3    H252681   2.894   3.158   9.507  0.5437  0.2035  2.0047
 9496TIP3   OH252682   5.698   2.189   8.909  0.4888  0.6305 -0.2167
 9496TIP3    H152683   5.694   2.276   8.949  3.0278  0.1951  1.1738
 9496TIP3    H252684   5.667   2.129   8.976  0.7245  0.2832 -0.4102
 9497TIP3   OH252685   5.848   3.612  10.196 -0.6196 -0.0818 -0.2730
 9497TIP3    H152686   5.786   3.676  10.163  0.4530  1.8344  1.2449
 9497TIP3    H252687   5.929   3.628  10.147  0.4145  1.5238  1.8046
 9498TIP3   OH252688   2.436   4.441   7.789 -0.1154  0.0948 -0.4065
 9498TIP3    H152689   2.374   4.382   7.746 -0.8256  1.3250 -1.1627
 9498TIP3    H252690   2.381   4.512   7.824  0.8634  1.5020 -1.5698
 9499TIP3   OH252691   1.770   5.983   7.898 -0.4766 -0.0374 -0.0461
 9499TIP3    H152692   1.729   6.066   7.876 -0.5038  0.3406  1.3665
 9499TIP3    H252693   1.763   5.931   7.817 -0.4876  1.2925 -0.9340
 9500TIP3   OH252694   6.508   0.044   8.641 -0.2233  0.5920  0.4369
 9500TIP3    H152695   6.581   0.023   8.582 -0.1855  0.6705  0.4558
 9500TIP3    H252696   6.430   0.034   8.587 -0.3659 -1.4701  0.9126
 9501TIP3   OH252697   6.146   5.043  10.363  0.0207 -0.3844  0.1452
 9501TIP3    H152698   6.057   5.041  10.400  0.1966 -0.9338  0.5538
 9501TIP3    H252699   6.200   5.000  10.429  0.7388  0.6789  0.2630
 9502TIP3   OH252700   5.807   1.208   9.278  0.1317 -0.4718  0.0884
 9502TIP3    H152701   5.736   1.169   9.228  0.5650 -0.8186 -0.2750
 9502TIP3    H252702   5.826   1.291   9.233  0.3500 -0.6626 -0.1789
 9503TIP3   OH252703   5.228   6.170   8.570 -0.3241  0.2246 -0.1525
 9503TIP3    H152704   5.319   6.196   8.561 -0.6855  1.5438 -0.2947
 9503TIP3    H252705   5.227   6.105   8.640  0.8410 -0.5368 -0.8141
 9504TIP3   OH252706   1.162   1.583   8.374  0.6015 -0.0835  0.2763
 9504TIP3    H152707   1.190   1.494   8.350  0.8862 -0.2727  1.2701
 9504TIP3    H252708   1.127   1.619   8.293 -2.7038 -2.3105  0.5130
 9505TIP3   OH252709   2.905   2.561   6.787  0.3540 -0.1257  0.5444
 9505TIP3    H152710   2.964   2.492   6.817  1.3852 -0.2983 -1.6545
 9505TIP3    H252711   2.878   2.533   6.700 -1.3917  0.9570  0.6971
 9506TIP3   OH252712   5.964   1.945   7.713  0.3398 -0.1922 -0.6686
 9506TIP3    H152713   5.904   1.875   7.688  0.3824 -0.0346 -1.2373
 9506TIP3    H252714   5.930   2.023   7.669  1.4274 -0.2696 -1.6953
 9507TIP3   OH252715   3.606   5.615   7.481  0.0298  0.0974  0.0842
 9507TIP3    H152716   3.595   5.650   7.393 -2.8259 -1.8491 -0.4567
 9507TIP3    H252717   3.557   5.675   7.537  0.8018  0.6344  0.2080
 9508TIP3   OH252718   0.467   4.027   9.297 -0.2614 -0.1165  0.0129
 9508TIP3    H152719   0.544   4.031   9.239 -1.2438 -1.2666 -1.4523
 9508TIP3    H252720   0.497   3.976   9.373  0.3605 -0.8356 -0.6865
 9509TIP3   OH252721   3.206   4.289   7.742 -0.3725  0.2210 -0.0159
 9509TIP3    H152722   3.240   4.230   7.675  0.5833  3.2038 -2.3906
 9509TIP3    H252723   3.111   4.277   7.738 -0.2487 -0.6093 -0.9712
 9510TIP3   OH252724   4.628   5.486   8.073  0.1219 -0.0443 -0.0248
 9510TIP3    H152725   4.640   5.530   8.157 -1.3440 -0.3457  0.3568
 9510TIP3    H252726   4.575   5.409   8.093  0.1794 -0.3988 -1.1559
 9511TIP3   OH252727   1.480   4.115   6.131  0.2364  0.2919  0.3060
 9511TIP3    H152728   1.547   4.150   6.189  0.6122 -0.0350  0.0764
 9511TIP3    H252729   1.493   4.162   6.048 -0.9321  1.4740  0.7577
 9512TIP3   OH252730   1.046   0.716   6.770 -0.5343  0.1929  0.8029
 9512TIP3    H152731   1.051   0.662   6.692  0.3682  1.2989  0.0762
 9512TIP3    H252732   0.961   0.694   6.809 -1.0577 -0.2595 -0.5558
 9513TIP3   OH252733   1.569   2.307   9.582 -0.1418 -0.1967  0.4571
 9513TIP3    H152734   1.604   2.327   9.495  0.8419 -0.9886  0.6547
 9513TIP3    H252735   1.537   2.217   9.575  1.0954 -0.7241  1.2407
 9514TIP3   OH252736   6.673   1.738   7.037  0.3412 -0.3357 -0.5066
 9514TIP3    H152737   6.764   1.720   7.013  0.4913  1.2519 -1.2373
 9514TIP3    H252738   6.658   1.829   7.012 -0.5281  0.4418  2.4127
 9515TIP3   OH252739   3.519   4.364   8.621  0.2022  0.5226 -0.4686
 9515TIP3    H152740   3.590   4.305   8.649 -0.7600 -0.4256  0.0366
 9515TIP3    H252741   3.445   4.341   8.678 -0.8349  0.7759 -1.6798
 9516TIP3   OH252742   3.995   6.335   6.294 -0.1026  0.7006  0.0932
 9516TIP3    H152743   3.988   6.260   6.354 -0.7705  0.7251  0.0509
 9516TIP3    H252744   4.086   6.331   6.263 -0.1425 -0.1363  0.0388
 9517TIP3   OH252745   2.547   4.019  10.027  0.1544 -0.6647 -0.1032
 9517TIP3    H152746   2.514   4.090   9.972 -2.2011 -0.2436  1.7156
 9517TIP3    H252747   2.607   4.063  10.089  0.2248 -0.5967 -0.2188
 9518TIP3   OH252748   3.144   5.411   8.525 -1.1423  0.8028  0.0598
 9518TIP3    H152749   3.217   5.468   8.550  0.4630 -0.4387 -1.5019
 9518TIP3    H252750   3.133   5.352   8.599  2.3645 -1.7103 -1.1517
 9519TIP3   OH252751   0.649   6.480   7.380 -0.3477 -0.3572 -0.3433
 9519TIP3    H152752   0.649   6.409   7.316 -1.3852  0.4817 -1.3061
 9519TIP3    H252753   0.563   6.474   7.422 -0.0239 -0.3313  0.3273
 9520TIP3   OH252754   5.171   3.721   7.916  0.0831  0.1329  0.2631
 9520TIP3    H152755   5.176   3.816   7.908 -1.8446  0.2382 -0.2449
 9520TIP3    H252756   5.077   3.702   7.921  0.3532 -1.8431 -0.8858
 9521TIP3   OH252757   6.505   4.131   6.658 -0.7546 -0.5088 -0.1311
 9521TIP3    H152758   6.486   4.047   6.617 -0.0030 -0.2868 -0.9453
 9521TIP3    H252759   6.591   4.156   6.624 -1.5414  1.2218 -0.9582
 9522TIP3   OH252760   3.030   0.957   8.973 -0.6274 -0.0828 -0.7479
 9522TIP3    H152761   2.979   1.026   8.930  0.5786  1.0482 -0.4409
 9522TIP3    H252762   3.117   0.996   8.985 -0.3292 -1.1417  0.7701
 9523TIP3   OH252763   3.608   0.968   8.824  0.0685 -0.0409  0.0812
 9523TIP3    H152764   3.579   0.972   8.915 -0.5445 -1.1027 -0.0522
 9523TIP3    H252765   3.703   0.963   8.828  0.0001 -4.1158  0.8904
 9524TIP3   OH252766   3.458   2.064   6.469  0.1401  0.0178  0.7894
 9524TIP3    H152767   3.532   2.119   6.445 -0.5997  0.7221  0.0703
 9524TIP3    H252768   3.400   2.122   6.518 -0.9379  0.0633 -0.4946
 9525TIP3   OH252769   1.840   0.919   6.661  0.5554  0.2683 -0.1156
 9525TIP3    H152770   1.891   0.990   6.622  1.1776  0.4374  0.9678
 9525TIP3    H252771   1.755   0.924   6.617  1.4407 -0.0021 -1.9266
 9526TIP3   OH252772   0.429   0.529   6.848  0.1712  0.1365  0.5327
 9526TIP3    H152773   0.392   0.591   6.785 -1.3807 -1.5456 -0.3153
 9526TIP3    H252774   0.522   0.526   6.827  0.3126  2.2115  0.6802
 9527TIP3   OH252775   0.700   1.776   9.732 -0.3867 -0.2267  0.4184
 9527TIP3    H152776   0.694   1.738   9.644  0.3280 -0.5640  0.5086
 9527TIP3    H252777   0.718   1.869   9.716  1.3048 -0.5557  0.1816
 9528TIP3   OH252778   3.764   2.565   7.231  0.3855  0.2889  0.1480
 9528TIP3    H152779   3.827   2.541   7.163 -0.2121  0.2770 -0.4105
 9528TIP3    H252780   3.703   2.624   7.188  1.2698  2.0907  1.2564
 9529TIP3   OH252781   6.216   3.480   8.439  0.2692 -0.5329 -0.0927
 9529TIP3    H152782   6.122   3.482   8.456  0.1720 -2.3693 -0.2626
 9529TIP3    H252783   6.256   3.507   8.522 -0.3968 -0.8013  0.3201
 9530TIP3   OH252784   4.626   3.618   6.741 -0.1925  0.2854 -0.0742
 9530TIP3    H152785   4.678   3.548   6.780  0.9419  0.7866 -0.6096
 9530TIP3    H252786   4.596   3.582   6.657 -1.5711 -0.3498  0.6685
 9531TIP3   OH252787   6.584   2.137   7.458  0.0509  0.1408  0.0977
 9531TIP3    H152788   6.543   2.183   7.531  0.5299 -1.4774  1.4383
 9531TIP3    H252789   6.658   2.091   7.497  0.6827 -0.2848 -1.5292
 9532TIP3   OH252790   2.669   1.998   8.075  0.4856  0.0726 -0.5074
 9532TIP3    H152791   2.613   1.936   8.122 -0.0842  2.3711  2.0880
 9532TIP3    H252792   2.755   1.989   8.116  0.5828  0.4981 -0.6132
 9533TIP3   OH252793   5.601   1.108   7.505  0.1320  0.0486  0.2187
 9533TIP3    H152794   5.559   1.025   7.485 -1.0988  0.8091 -0.4524
 9533TIP3    H252795   5.691   1.084   7.528 -0.1040 -1.4298 -0.2805
 9534TIP3   OH252796   5.561   5.101   6.487 -0.2228 -0.2159 -0.1622
 9534TIP3    H152797   5.495   5.033   6.504 -0.6218  0.6546  2.0597
 9534TIP3    H252798   5.643   5.062   6.517 -0.2269 -0.2208 -0.1573
 9535TIP3   OH252799   1.058   3.689  10.135 -0.3766 -0.0550  0.1226
 9535TIP3    H152800   1.127   3.722  10.077 -0.5681 -1.0140 -0.6850
 9535TIP3    H252801   0.992   3.653  10.075 -0.0164 -2.2279  0.9265
 9536TIP3   OH252802   5.779   6.229   9.123 -0.0818 -0.3575 -0.1957
 9536TIP3    H152803   5.684   6.217   9.115  0.0639 -0.7060 -1.9010
 9536TIP3    H252804   5.797   6.311   9.076  0.4414 -0.2134  0.2498
 9537TIP3   OH252805   1.715   1.851   9.848  0.6612 -0.0757  0.6108
 9537TIP3    H152806   1.777   1.910   9.806 -0.6016 -0.3289 -1.7315
 9537TIP3    H252807   1.767   1.805   9.914  3.3491 -1.2362 -2.1184
 9538TIP3   OH252808   1.083   6.264   9.070  0.4085 -0.4025  0.3181
 9538TIP3    H152809   1.022   6.229   9.134 -0.1746  0.7997  0.4598
 9538TIP3    H252810   1.029   6.284   8.993  0.4775  1.1864  0.6415
 9539TIP3   OH252811   3.513   0.045   9.511 -0.4629 -0.9518  0.0624
 9539TIP3    H152812   3.473   0.082   9.433 -0.0236 -0.6859 -0.0382
 9539TIP3    H252813   3.448  -0.017   9.544 -1.1243 -0.2507  0.1180
 9540TIP3   OH252814   5.527   1.091   6.534 -0.4672 -0.3160  0.2749
 9540TIP3    H152815   5.585   1.166   6.519 -1.0978  0.2653  0.6370
 9540TIP3    H252816   5.585   1.019   6.557  0.1176  0.2119  0.4789
 9541TIP3   OH252817   0.757   2.599   8.936  0.1852  0.3658 -0.3005
 9541TIP3    H152818   0.811   2.650   8.876  0.8555  1.4029  1.1253
 9541TIP3    H252819   0.749   2.654   9.014 -0.3343 -1.0846  0.7178
 9542TIP3   OH252820   1.432   3.231   7.517  0.5581  0.2707  0.4045
 9542TIP3    H152821   1.356   3.287   7.533  1.5908  2.1332 -0.7504
 9542TIP3    H252822   1.400   3.165   7.456 -0.7777 -0.6814  2.0458
 9543TIP3   OH252823   5.684   6.665   8.090 -0.6288 -0.5516 -0.0188
 9543TIP3    H152824   5.620   6.736   8.087  0.1735  0.2275  0.8515
 9543TIP3    H252825   5.734   6.681   8.170 -0.2692 -1.9598  0.0634
 9544TIP3   OH252826   5.041   3.150   8.040  0.1941  0.7403  1.0671
 9544TIP3    H152827   5.062   3.138   7.947  0.6017  2.6726  0.8572
 9544TIP3    H252828   5.027   3.245   8.049 -2.3482  0.3111  2.4915
 9545TIP3   OH252829   3.470   6.638   8.423 -0.4594 -0.1386 -0.4706
 9545TIP3    H152830   3.422   6.707   8.376  0.8311  1.1192 -0.0086
 9545TIP3    H252831   3.555   6.635   8.380 -0.3761 -1.2383 -0.2527
 9546TIP3   OH252832   3.455   3.502  10.223  0.3968 -0.1906  0.1923
 9546TIP3    H152833   3.485   3.493  10.314  2.1878 -1.2239 -0.4498
 9546TIP3    H252834   3.457   3.413  10.188 -1.4533  0.0158 -0.5532
 9547TIP3   OH252835   6.663   1.630   6.747 -0.0105 -0.4443  0.1738
 9547TIP3    H152836   6.641   1.651   6.838 -0.0133 -2.3485  0.6428
 9547TIP3    H252837   6.582   1.597   6.709  0.2131 -0.4958 -0.2757
 9548TIP3   OH252838   4.573   2.678   7.955  0.3804 -1.0315 -0.4187
 9548TIP3    H152839   4.527   2.682   8.038 -1.5675  1.0381 -1.5009
 9548TIP3    H252840   4.570   2.586   7.930  0.3280 -1.5598  1.3967
 9549TIP3   OH252841   2.121   2.781   8.680 -0.0661  0.6104 -0.4480
 9549TIP3    H152842   2.168   2.719   8.734  0.1968  1.2415  0.0584
 9549TIP3    H252843   2.120   2.741   8.593  0.1916 -0.0423 -0.1561
 9550TIP3   OH252844   3.174   0.960   7.479 -0.8762  0.1915  0.4068
 9550TIP3    H152845   3.141   0.966   7.390  0.5187  0.5615 -0.1203
 9550TIP3    H252846   3.164   1.049   7.514  1.4380  0.8948 -0.5061
 9551TIP3   OH252847   5.609   6.581   8.612 -0.2576 -0.1859 -0.3497
 9551TIP3    H152848   5.616   6.675   8.630 -0.6751 -0.0886 -0.6820
 9551TIP3    H252849   5.700   6.550   8.612 -0.2288 -0.3408  2.5729
 9552TIP3   OH252850   5.782   2.262   8.331 -0.0023  0.5941  0.0479
 9552TIP3    H152851   5.869   2.263   8.370 -0.1444  2.2640  0.3960
 9552TIP3    H252852   5.798   2.268   8.237  0.2778 -0.1059  0.0489
 9553TIP3   OH252853   3.211   6.593   7.046 -0.0593 -0.1853  0.8141
 9553TIP3    H152854   3.191   6.681   7.013  2.3028 -0.4475 -1.6407
 9553TIP3    H252855   3.139   6.538   7.015  0.1721  0.2989 -0.6298
 9554TIP3   OH252856   3.714   2.347   6.785 -0.1603  0.6627 -0.0248
 9554TIP3    H152857   3.740   2.333   6.877  1.2773 -0.7124 -0.5894
 9554TIP3    H252858   3.794   2.378   6.742 -0.0465 -1.2785 -1.3208
 9555TIP3   OH252859   6.436   6.480   7.126 -0.3813  0.3419  0.4099
 9555TIP3    H152860   6.408   6.389   7.109 -1.8306  0.6436  1.0307
 9555TIP3    H252861   6.395   6.530   7.056 -1.1353  0.7572  1.1402
 9556TIP3   OH252862   2.601   6.672   8.507 -0.4762  0.0732 -0.1084
 9556TIP3    H152863   2.590   6.730   8.582 -0.8291 -0.5137  0.3027
 9556TIP3    H252864   2.675   6.709   8.458  0.0171  0.2332  0.7486
 9557TIP3   OH252865   1.549   1.978   6.738  0.1277  0.4240  0.2854
 9557TIP3    H152866   1.530   1.976   6.644 -0.5593 -0.8184  0.4254
 9557TIP3    H252867   1.560   1.886   6.762  0.3076  0.7272  1.4218
 9558TIP3   OH252868   6.164   6.131   7.794  0.0601  0.3080  0.1747
 9558TIP3    H152869   6.144   6.193   7.724  1.1044 -0.4500 -0.8439
 9558TIP3    H252870   6.205   6.184   7.862  1.2449  0.7233 -0.8140
 9559TIP3   OH252871   1.007   5.434   7.099 -0.3916 -0.2913 -0.8622
 9559TIP3    H152872   1.024   5.494   7.026 -1.8479 -0.3963 -1.3243
 9559TIP3    H252873   1.080   5.449   7.159  0.3864  0.4296 -1.9261
 9560TIP3   OH252874   3.874   4.113   7.214 -0.3089  0.3675 -0.3426
 9560TIP3    H152875   3.891   4.140   7.124 -1.3623  0.7648 -0.4397
 9560TIP3    H252876   3.896   4.019   7.216  0.3690  0.5114 -0.8230
 9561TIP3   OH252877   3.175   3.451   9.330  0.2070 -0.7761  0.4815
 9561TIP3    H152878   3.130   3.535   9.345  0.3941 -0.7186  0.7228
 9561TIP3    H252879   3.166   3.405   9.413 -0.5427 -1.3062  0.1185
 9562TIP3   OH252880   3.119   0.060   9.230  0.5728 -0.2289 -0.1084
 9562TIP3    H152881   3.077   0.051   9.144  0.5342  0.9135 -0.2213
 9562TIP3    H252882   3.097  -0.022   9.275  0.0407 -0.5685 -0.9468
 9563TIP3   OH252883   3.965   6.245   7.681 -0.2161 -0.1875 -0.0750
 9563TIP3    H152884   3.916   6.209   7.755 -2.3796 -0.3648 -1.5007
 9563TIP3    H252885   3.916   6.322   7.654  0.8817  0.2426 -0.9464
 9564TIP3   OH252886   1.544   6.004   7.216  0.0702  0.1656 -0.3973
 9564TIP3    H152887   1.581   6.074   7.163  2.1927 -0.0109  0.7489
 9564TIP3    H252888   1.537   6.041   7.304 -1.4948 -0.1818 -0.3437
 9565TIP3   OH252889   5.908   0.816   8.596 -0.4880  0.6742 -0.8790
 9565TIP3    H152890   5.832   0.875   8.591  0.0318  1.3329 -1.1611
 9565TIP3    H252891   5.943   0.830   8.683  0.3062  1.6553 -1.3302
 9566TIP3   OH252892   6.253   5.812   8.741  0.6018  0.0607 -0.1075
 9566TIP3    H152893   6.157   5.809   8.735  0.4458  1.4946  1.0292
 9566TIP3    H252894   6.276   5.899   8.709  1.5385 -0.3054 -0.4520
 9567TIP3   OH252895   5.253   4.896   9.997  0.6529 -0.6237  0.1685
 9567TIP3    H152896   5.198   4.860  10.067 -0.3118 -1.1354 -0.8234
 9567TIP3    H252897   5.320   4.946  10.043 -1.4128  1.1821  1.4078
 9568TIP3   OH252898   1.103   0.835   6.330 -0.8352  0.2434 -0.0114
 9568TIP3    H152899   1.068   0.784   6.258  1.0319 -2.1105  0.6329
 9568TIP3    H252900   1.031   0.838   6.394 -2.3919  2.0822 -1.6811
 9569TIP3   OH252901   1.074   2.449   8.962 -0.6522  0.1779  0.1449
 9569TIP3    H152902   1.005   2.418   9.021 -0.6354  0.1338  0.1417
 9569TIP3    H252903   1.056   2.542   8.950 -0.8897  0.1028 -0.0981
 9570TIP3   OH252904   2.179   4.261   7.137  0.2551  0.0849  0.3904
 9570TIP3    H152905   2.146   4.220   7.217  0.2092 -0.4951  0.0720
 9570TIP3    H252906   2.157   4.354   7.148 -0.5466 -0.1306  0.6499
 9571TIP3   OH252907   2.586   1.644   9.010  0.0506  0.1781  0.1929
 9571TIP3    H152908   2.534   1.719   9.037 -0.4807 -0.5979  1.3917
 9571TIP3    H252909   2.665   1.649   9.063 -0.3329 -0.5263  0.8442
 9572TIP3   OH252910   6.467   2.036   7.831  0.1397  0.0841  0.3940
 9572TIP3    H152911   6.488   1.947   7.802 -0.8867  0.0889 -0.4388
 9572TIP3    H252912   6.371   2.039   7.830  0.1225  0.7397  1.8636
 9573TIP3   OH252913   1.011   2.276   7.672 -0.3357  0.3230  0.0428
 9573TIP3    H152914   1.036   2.226   7.595  0.5662  1.4935 -0.4560
 9573TIP3    H252915   1.009   2.367   7.643 -0.5939  0.7296  1.2459
 9574TIP3   OH252916   4.399   5.008   9.534  0.1120 -0.5175  0.0423
 9574TIP3    H152917   4.431   5.097   9.519  0.5255 -0.6180  0.3120
 9574TIP3    H252918   4.312   5.007   9.494  0.5284 -0.3058 -0.8994
 9575TIP3   OH252919   5.569   5.156   7.991 -0.0639 -0.6400  0.1644
 9575TIP3    H152920   5.513   5.120   7.922 -1.5725 -0.5388  1.2839
 9575TIP3    H252921   5.647   5.100   7.990 -0.9122 -1.8657 -0.3357
 9576TIP3   OH252922   1.988   2.888   7.086 -0.0835 -0.5835  0.2330
 9576TIP3    H152923   1.980   2.820   7.153 -1.5464  0.2953  1.0034
 9576TIP3    H252924   1.911   2.944   7.099 -0.2677 -0.2238 -2.0183
 9577TIP3   OH252925   5.533   4.798   7.783 -0.4915 -0.1175 -0.1501
 9577TIP3    H152926   5.513   4.732   7.717 -1.3842 -1.7912  1.7032
 9577TIP3    H252927   5.476   4.872   7.762 -1.5424 -1.0422 -0.6270
 9578TIP3   OH252928   0.409   4.463   8.402 -0.6138 -0.0963  0.1267
 9578TIP3    H152929   0.370   4.453   8.316 -1.1676  0.3689  0.3156
 9578TIP3    H252930   0.492   4.507   8.387 -0.5116 -0.4057 -0.2079
 9579TIP3   OH252931   6.356   2.671  11.452  0.4410  0.0077  0.0148
 9579TIP3    H152932   6.320   2.723  11.380 -2.9631 -0.6842  1.0311
 9579TIP3    H252933   6.392   2.593  11.409 -0.8092 -0.0218 -1.0458
 9580TIP3   OH252934   2.459   3.605   7.383 -0.7597 -0.0735 -0.0760
 9580TIP3    H152935   2.530   3.541   7.385  0.4911  1.2538 -0.9720
 9580TIP3    H252936   2.476   3.659   7.306 -2.3772  0.7068  0.0613
 9581TIP3   OH252937   2.939   1.716   7.160 -0.0245 -0.0336 -0.2533
 9581TIP3    H152938   2.855   1.739   7.200 -0.3713 -1.4296 -0.1243
 9581TIP3    H252939   2.992   1.684   7.232 -0.0936 -1.0411 -0.6324
 9582TIP3   OH252940   0.927   2.622   8.250 -0.0147  0.0210  0.0787
 9582TIP3    H152941   0.841   2.662   8.265  0.7034  1.4769  0.4460
 9582TIP3    H252942   0.974   2.633   8.332  1.7714  2.5279 -1.1431
 9583TIP3   OH252943   5.562   4.714   8.061 -0.4606  0.2657  0.1373
 9583TIP3    H152944   5.572   4.796   8.110  1.6972  1.4343 -2.0155
 9583TIP3    H252945   5.535   4.743   7.973  1.1873 -1.2336 -0.9155
 9584TIP3   OH252946   6.673   1.353   9.306 -0.4536  0.1017  0.3137
 9584TIP3    H152947   6.673   1.370   9.400 -0.7518 -0.6531  0.4544
 9584TIP3    H252948   6.733   1.279   9.294  0.3760  0.8326 -0.2232
 9585TIP3   OH252949   5.982   3.325  10.876 -0.1198 -0.3200 -0.5436
 9585TIP3    H152950   5.916   3.393  10.885  0.5564  0.3334 -0.4230
 9585TIP3    H252951   6.061   3.372  10.848  0.8869 -0.7699  1.3856
 9586TIP3   OH252952   0.364   2.972   9.573 -0.5388  0.2345 -0.6329
 9586TIP3    H152953   0.361   3.008   9.661 -0.0252  0.0632 -0.5456
 9586TIP3    H252954   0.329   2.883   9.583 -0.2727  0.1385 -0.5652
 9587TIP3   OH252955   2.573   5.100   6.967  0.0372 -0.5957 -0.3555
 9587TIP3    H152956   2.595   5.027   7.025  1.5841  0.3640  0.3196
 9587TIP3    H252957   2.591   5.067   6.879  3.1109 -0.3531  0.0635
 9588TIP3   OH252958   0.978   5.203   8.402  0.8295 -0.9651 -0.5940
 9588TIP3    H152959   0.888   5.203   8.436  0.3031 -2.7530 -1.8347
 9588TIP3    H252960   1.027   5.257   8.464 -1.5699  2.3601 -1.3195
 9589TIP3   OH252961   3.955   6.104   9.390  0.3042  0.3624 -0.2741
 9589TIP3    H152962   3.930   6.142   9.306  1.7990  0.3400 -0.7563
 9589TIP3    H252963   3.923   6.166   9.456 -0.4458  0.6190 -0.8631
 9590TIP3   OH252964   4.228   1.609   8.356  0.2882  0.5679 -0.1269
 9590TIP3    H152965   4.222   1.703   8.339 -1.4606  0.3919 -0.6800
 9590TIP3    H252966   4.289   1.577   8.290  2.9707  1.6109  1.6401
 9591TIP3   OH252967   6.637   2.308   9.568  0.5655 -0.2921 -0.2203
 9591TIP3    H152968   6.698   2.248   9.523  0.7040 -0.1597 -0.2099
 9591TIP3    H252969   6.585   2.250   9.624  0.5671 -0.4271 -0.3559
 9592TIP3   OH252970   3.737   5.247   7.274  0.2120  0.1720 -0.1051
 9592TIP3    H152971   3.676   5.179   7.301 -0.5365  1.5166  1.8816
 9592TIP3    H252972   3.774   5.280   7.356  0.6079  2.0647 -0.9764
 9593TIP3   OH252973   5.629   6.397   8.303  0.8413  0.5208  0.3687
 9593TIP3    H152974   5.607   6.426   8.215  0.5692 -0.4894  0.0943
 9593TIP3    H252975   5.715   6.435   8.320  0.6266  1.2193 -0.0921
 9594TIP3   OH252976   2.777   2.900   9.858 -0.0714  0.0759  0.5694
 9594TIP3    H152977   2.833   2.828   9.826 -0.6448 -0.3933  0.6149
 9594TIP3    H252978   2.815   2.923   9.943  0.1124 -0.1746  0.5586
 9595TIP3   OH252979   5.928   0.133   6.615  0.3539  0.0625  0.5373
 9595TIP3    H152980   5.940   0.226   6.599  0.0176  0.1746  0.8954
 9595TIP3    H252981   5.922   0.126   6.711  0.5604 -0.3500  0.5236
 9596TIP3   OH252982   6.155   2.927   8.845  0.1330  0.2584 -0.5858
 9596TIP3    H152983   6.087   2.886   8.792 -0.0619  0.0679 -0.1974
 9596TIP3    H252984   6.185   2.856   8.903  1.0668  0.1794 -1.1437
 9597TIP3   OH252985   0.913   5.374   7.633  0.1659  0.2333 -0.2480
 9597TIP3    H152986   0.877   5.286   7.646 -1.4040  0.8062 -0.4290
 9597TIP3    H252987   0.844   5.432   7.665  1.5724  1.3918  0.7828
 9598TIP3   OH252988   4.304   5.660   7.392  0.4291 -0.3306 -0.1633
 9598TIP3    H152989   4.365   5.590   7.368  0.6259  0.0374 -0.7616
 9598TIP3    H252990   4.321   5.675   7.485  1.8498  0.3087 -0.4899
 9599TIP3   OH252991   5.218   1.411   7.725  0.2517 -0.1962  0.5238
 9599TIP3    H152992   5.309   1.386   7.742  0.8558 -0.6987 -2.7450
 9599TIP3    H252993   5.173   1.327   7.715 -0.0825  0.0334  0.0819
 9600TIP3   OH252994   5.985   2.606   7.834 -0.2787 -0.7148 -0.0669
 9600TIP3    H152995   5.967   2.692   7.873  0.1598 -0.8700  0.4714
 9600TIP3    H252996   5.964   2.618   7.741  2.0271  0.6694 -0.4882
 9601TIP3   OH252997   0.305   4.974   7.500 -0.1142 -0.1708 -0.4353
 9601TIP3    H152998   0.291   4.893   7.451  1.0745 -1.6364  1.4562
 9601TIP3    H252999   0.341   4.944   7.584  1.3837  2.3917 -0.0627
 9602TIP3   OH253000   1.323   5.814   9.169 -0.0320  0.3259  0.2455
 9602TIP3    H153001   1.244   5.766   9.143 -0.0185 -1.4703  3.0290
 9602TIP3    H253002   1.303   5.845   9.257  2.2407  0.0198  0.9385
 9603TIP3   OH253003   5.291   3.152   9.215 -0.1051 -0.5471 -0.7719
 9603TIP3    H153004   5.196   3.143   9.226  0.0514 -1.7437 -0.3081
 9603TIP3    H253005   5.320   3.201   9.291 -0.2760 -0.7144 -0.5976
 9604TIP3   OH253006   1.954   3.943   6.904 -0.4475  0.8591  0.1259
 9604TIP3    H153007   1.944   3.980   6.992  0.6023  2.8995 -0.5453
 9604TIP3    H253008   2.003   4.009   6.856 -2.0904  0.3701 -2.3864
 9605TIP3   OH253009   5.212   0.582   7.794 -0.2378  0.5555  0.4983
 9605TIP3    H153010   5.189   0.660   7.743 -0.1863 -0.0607 -0.4809
 9605TIP3    H253011   5.261   0.617   7.868  0.7649  1.3915 -0.5143
 9606TIP3   OH253012   0.779   5.245   8.025  0.2502 -0.8539 -0.1605
 9606TIP3    H153013   0.720   5.317   8.004  1.0937  0.9355  2.9283
 9606TIP3    H253014   0.721   5.173   8.051 -0.6652  0.3776  1.3666
 9607TIP3   OH253015   5.055   5.116   8.524  0.0115  0.6409 -0.4104
 9607TIP3    H153016   5.061   5.067   8.606  0.5598  1.1472 -0.1431
 9607TIP3    H253017   4.968   5.156   8.527  0.5587  1.8035  0.5926
 9608TIP3   OH253018   5.025   2.421   8.316  0.3024  0.4491 -0.2500
 9608TIP3    H153019   5.038   2.369   8.396 -0.1989  1.6293  0.6287
 9608TIP3    H253020   5.111   2.426   8.277  0.7451  0.6028  0.7055
 9609TIP3   OH253021   5.574   1.714   9.066  0.3761  0.1583  0.4468
 9609TIP3    H153022   5.533   1.796   9.095 -1.5621 -1.2494  1.9133
 9609TIP3    H253023   5.571   1.657   9.143  1.3759 -1.4266 -0.6225
 9610TIP3   OH253024   3.744   6.623   7.012  0.6808 -0.3337 -0.0258
 9610TIP3    H153025   3.756   6.665   7.097 -0.5299  1.8037 -0.8263
 9610TIP3    H253026   3.649   6.609   7.005  0.7865 -0.7102 -0.9123
 9611TIP3   OH253027   0.981   4.512   8.369 -0.1689 -0.0267  0.6994
 9611TIP3    H153028   0.938   4.460   8.301  0.7652  0.0835 -0.0018
 9611TIP3    H253029   0.990   4.453   8.443  0.6354 -0.7970  0.0034
 9612TIP3   OH253030   6.555   3.130   8.606 -0.0431 -0.0898  0.0354
 9612TIP3    H153031   6.631   3.077   8.581  1.0382  2.0070 -1.4227
 9612TIP3    H253032   6.592   3.216   8.625 -2.1045  1.1322 -1.1661
 9613TIP3   OH253033   6.036   3.164   7.970  0.0755  0.2355 -0.2685
 9613TIP3    H153034   6.063   3.208   8.051  1.0028 -0.1242 -0.3670
 9613TIP3    H253035   6.116   3.160   7.917 -0.2888 -0.4417 -0.7847
 9614TIP3   OH253036   6.292   0.361   8.786  0.5268 -0.0879  0.2382
 9614TIP3    H153037   6.298   0.266   8.799 -0.0609 -0.4492 -1.7806
 9614TIP3    H253038   6.301   0.373   8.691 -0.2825  1.7977  0.3522
 9615TIP3   OH253039   0.542   3.360   8.211  0.2982 -0.0985  0.0521
 9615TIP3    H153040   0.498   3.416   8.275  0.1833 -0.6571  0.4682
 9615TIP3    H253041   0.580   3.289   8.263  1.4659  0.2252 -0.3344
 9616TIP3   OH253042   4.714   1.524   8.190 -0.4081  0.1570 -0.2459
 9616TIP3    H153043   4.737   1.511   8.282 -0.4632  0.6679 -0.1545
 9616TIP3    H253044   4.774   1.592   8.160 -0.3907 -0.0082 -0.5891
 9617TIP3   OH253045   0.477   3.560   8.869  0.6500  0.0645  0.5905
 9617TIP3    H153046   0.513   3.640   8.908  0.9210 -0.4639  1.4353
 9617TIP3    H253047   0.443   3.589   8.784  0.8710  1.0506  0.8214
 9618TIP3   OH253048   5.128   4.895   9.317 -0.0944  0.1208  0.6602
 9618TIP3    H153049   5.150   4.975   9.268  1.2803 -0.4426  0.3282
 9618TIP3    H253050   5.206   4.877   9.370 -0.2257 -1.2288  0.4156
 9619TIP3   OH253051   0.347   1.409   8.364  0.1288  0.0556  0.5112
 9619TIP3    H153052   0.434   1.417   8.326 -0.1442  1.4982  0.1173
 9619TIP3    H253053   0.316   1.323   8.338  1.4699 -0.5085  0.7366
 9620TIP3   OH253054   3.713   0.815   7.410  0.2781  0.3725  0.1423
 9620TIP3    H153055   3.787   0.874   7.420 -0.1691  0.9826 -0.0593
 9620TIP3    H253056   3.637   0.868   7.434 -0.0102 -0.5290  1.3245
 9621TIP3   OH253057   1.144   1.723   6.968  0.3089 -0.2316  0.3648
 9621TIP3    H153058   1.097   1.766   6.897 -0.7938 -1.7414  0.1370
 9621TIP3    H253059   1.214   1.674   6.924  0.6798  0.1828  0.4885
 9622TIP3   OH253060   3.141   0.026   8.269  0.1524 -0.4932  0.6507
 9622TIP3    H153061   3.161  -0.037   8.338 -0.5148  1.5234  2.8363
 9622TIP3    H253062   3.210   0.093   8.278 -1.0889  0.8244  0.7765
 9623TIP3   OH253063   5.043   5.259   9.616  0.7568 -0.0422 -0.2553
 9623TIP3    H153064   5.115   5.228   9.669 -1.0747 -1.9493  1.3119
 9623TIP3    H253065   5.011   5.338   9.660  0.4651 -0.5101  0.3786
 9624TIP3   OH253066   3.434   5.124   7.383 -0.2239 -0.0591 -1.0736
 9624TIP3    H153067   3.445   5.213   7.348  0.5347  0.5650  0.6343
 9624TIP3    H253068   3.397   5.074   7.310 -0.6352  1.6431 -2.0941
 9625TIP3   OH253069   4.210   3.985   9.537  0.2666  0.1680 -0.5857
 9625TIP3    H153070   4.165   3.970   9.620  0.1356  0.1676 -0.6568
 9625TIP3    H253071   4.195   3.905   9.487  0.7498 -0.0249 -0.4277
 9626TIP3   OH253072   4.546   3.650   9.230  0.2414 -0.3306  0.0912
 9626TIP3    H153073   4.457   3.668   9.202  0.4506 -0.7526 -0.8847
 9626TIP3    H253074   4.592   3.625   9.150  1.8262  2.1144  0.1104
 9627TIP3   OH253075   2.914   1.604   8.588 -0.0893  0.5161  0.6675
 9627TIP3    H153076   2.902   1.584   8.680  0.9465 -0.1447  0.6729
 9627TIP3    H253077   3.006   1.628   8.580  0.7045 -2.4573 -0.6729
 9628TIP3   OH253078   4.255   1.498   9.435  0.2281  0.1531  0.1793
 9628TIP3    H153079   4.289   1.524   9.521  0.9744 -0.6420  0.1424
 9628TIP3    H253080   4.324   1.526   9.373  0.8339 -1.4347  0.0949
 9629TIP3   OH253081   2.073   2.256   7.988  0.0862  0.4125  0.1609
 9629TIP3    H153082   2.107   2.187   8.045 -0.2812 -0.5362 -0.7576
 9629TIP3    H253083   1.984   2.271   8.019  0.1545  0.4513  0.3390
 9630TIP3   OH253084   1.991   2.202   9.479 -0.1412  0.2444 -0.1470
 9630TIP3    H153085   1.966   2.230   9.567  0.1748  0.9416 -0.2761
 9630TIP3    H253086   1.915   2.153   9.448 -0.5566  0.6340  0.2272
 9631TIP3   OH253087   2.641   0.767   8.676 -0.2010  0.0978 -0.2533
 9631TIP3    H153088   2.571   0.818   8.717 -0.0550  0.6322 -0.6637
 9631TIP3    H253089   2.680   0.826   8.612  1.7021  0.3930  1.0746
 9632TIP3   OH253090   1.944   5.146   7.716 -0.2901  0.0454 -0.4278
 9632TIP3    H153091   1.927   5.053   7.727 -0.4821 -0.2365 -2.7366
 9632TIP3    H253092   2.032   5.159   7.751 -0.4220 -0.9017  0.3005
 9633TIP3   OH253093   5.210   5.165   9.830  0.4643  0.0276 -0.4374
 9633TIP3    H153094   5.232   5.081   9.868 -1.2127 -0.4150 -0.3685
 9633TIP3    H253095   5.251   5.230   9.888 -0.4604 -0.6780  1.0432
 9634TIP3   OH253096   4.161   5.929   8.975 -0.4538  0.4125  0.2294
 9634TIP3    H153097   4.205   5.994   9.029  0.9262  0.9681 -1.4667
 9634TIP3    H253098   4.133   5.978   8.897 -0.6904 -0.7161 -0.4157
 9635TIP3   OH253099   5.541   1.470   7.229 -0.8321 -0.1014  0.5397
 9635TIP3    H153100   5.455   1.511   7.238 -0.1963  1.0756  1.4666
 9635TIP3    H253101   5.595   1.536   7.184 -0.6922 -1.2659 -1.0944
 9636TIP3   OH253102   6.446   5.529   6.930  0.1667 -0.5918 -0.0845
 9636TIP3    H153103   6.380   5.592   6.901  0.5789  1.5343  3.0386
 9636TIP3    H253104   6.525   5.582   6.941  1.5489 -2.4430 -0.7647
 9637TIP3   OH253105   5.583   5.992   7.755 -0.1673  0.1307  0.3344
 9637TIP3    H153106   5.667   6.038   7.764 -0.0596 -0.0717  0.3769
 9637TIP3    H253107   5.605   5.913   7.706 -0.4206  0.3184 -0.0854
 9638TIP3   OH253108   3.615   2.892   9.231 -0.2615 -0.1927  0.2216
 9638TIP3    H153109   3.526   2.924   9.212 -0.0996  0.8436  1.0707
 9638TIP3    H253110   3.667   2.921   9.156 -0.8108 -1.7510 -0.8188
 9639TIP3   OH253111   5.924   3.768   8.941 -0.6274  0.0866  0.0893
 9639TIP3    H153112   6.018   3.760   8.922 -0.8456 -0.4168 -0.8119
 9639TIP3    H253113   5.921   3.795   9.033  0.3828 -1.1960  0.5318
 9640TIP3   OH253114   3.845   3.900   8.944 -0.4754  0.3041  0.4493
 9640TIP3    H153115   3.810   3.931   9.027 -1.7082  1.3909 -0.4340
 9640TIP3    H253116   3.850   3.978   8.889 -0.0981 -0.4632 -0.6489
 9641TIP3   OH253117   1.365   5.708   8.523  0.1002 -0.1146  0.0979
 9641TIP3    H153118   1.354   5.802   8.512 -0.8961 -0.2152  0.1253
 9641TIP3    H253119   1.346   5.671   8.436  0.6211 -0.2923  0.0508
 9642TIP3   OH253120   3.705   0.149   8.534 -0.5105  0.2412 -0.2402
 9642TIP3    H153121   3.714   0.132   8.440  0.7746  0.9360 -0.2747
 9642TIP3    H253122   3.611   0.150   8.549 -0.7189 -2.0496 -1.0828
 9643TIP3   OH253123   1.030   0.281   8.249  0.0880  0.1192  0.0809
 9643TIP3    H153124   1.030   0.364   8.298 -0.6765  1.4796 -2.0661
 9643TIP3    H253125   1.080   0.300   8.170  0.1600 -1.5926 -0.3143
 9644TIP3   OH253126   1.531   4.834   8.644 -0.1739  0.1607  0.4900
 9644TIP3    H153127   1.608   4.847   8.700  0.6906 -0.9468 -0.3804
 9644TIP3    H253128   1.472   4.781   8.697 -0.2548  0.8493  1.0952
 9645TIP3   OH253129   5.999   6.620   7.609  0.0545 -0.4061 -1.1124
 9645TIP3    H153130   5.944   6.612   7.531  0.7046  0.6091 -1.7023
 9645TIP3    H253131   6.088   6.609   7.576  0.3264 -0.1488 -0.4742
 9646TIP3   OH253132   1.160   0.150   6.928  0.3322 -0.3471  0.3441
 9646TIP3    H153133   1.237   0.100   6.955  0.6050  0.2625  0.7133
 9646TIP3    H253134   1.087   0.090   6.938  1.0102 -1.8355 -2.4699
 9647TIP3   OH253135   3.679   3.707   8.411  0.0735  0.3129 -0.5474
 9647TIP3    H153136   3.697   3.761   8.489 -1.9893  0.2181  0.0462
 9647TIP3    H253137   3.667   3.619   8.445  1.5967 -0.2047 -1.3019
 9648TIP3   OH253138   4.626   3.839   7.514 -0.0148  0.4904  0.5214
 9648TIP3    H153139   4.643   3.750   7.546 -1.1956  0.1033  0.1353
 9648TIP3    H253140   4.540   3.833   7.473  0.9076  1.2316 -1.6612
 9649TIP3   OH253141   3.809   3.667   7.361  0.2040  0.1443 -0.0311
 9649TIP3    H153142   3.787   3.579   7.334 -0.3223  0.8962 -2.2170
 9649TIP3    H253143   3.866   3.701   7.292 -0.6765  1.9559  0.0637
 9650TIP3   OH253144   1.535   3.510   6.738 -0.1132 -0.2367 -0.1445
 9650TIP3    H153145   1.607   3.453   6.766 -0.0799 -0.1376 -0.0278
 9650TIP3    H253146   1.572   3.598   6.738  0.5279 -0.4224 -2.5492
 9651TIP3   OH253147   1.104   3.479   8.162 -0.5998  0.3710  0.0932
 9651TIP3    H153148   1.198   3.482   8.142 -0.1979 -1.0609  1.5268
 9651TIP3    H253149   1.072   3.565   8.137  0.7631  0.3662 -1.9322
 9652TIP3   OH253150   0.038   2.355   9.267 -0.5750 -0.3267 -0.6103
 9652TIP3    H153151   0.124   2.345   9.307 -1.7753 -0.5006  2.1212
 9652TIP3    H253152   0.033   2.447   9.241 -0.4570  0.3356  1.5525
 9653TIP3   OH253153   3.230   5.808   6.746  0.1843  0.2800 -0.2613
 9653TIP3    H153154   3.177   5.779   6.671  4.3696  0.1002 -3.5365
 9653TIP3    H253155   3.203   5.751   6.818 -0.8106 -3.0141 -2.9600
 9654TIP3   OH253156   2.723   0.996   8.537 -0.7588  0.3677  0.1881
 9654TIP3    H153157   2.683   1.042   8.463 -2.3190  1.2811  1.5395
 9654TIP3    H253158   2.800   0.953   8.500 -1.3492  1.0145 -1.8988
 9655TIP3   OH253159   0.249   4.585   6.710  0.0711  0.0198  0.0717
 9655TIP3    H153160   0.333   4.545   6.689 -0.0034  0.3689 -0.9516
 9655TIP3    H253161   0.259   4.677   6.683 -0.7430 -0.0175 -0.3905
 9656TIP3   OH253162   6.352   1.550   8.825 -0.0073  0.1166  0.2044
 9656TIP3    H153163   6.313   1.539   8.739  0.2192 -0.9974  0.2218
 9656TIP3    H253164   6.435   1.502   8.820  0.5085  0.9346  0.7119
 9657TIP3   OH253165   0.823   4.904   7.910 -0.2632 -0.2201  0.4580
 9657TIP3    H153166   0.765   4.841   7.866 -0.0465  0.5410 -0.9684
 9657TIP3    H253167   0.765   4.950   7.971 -1.2536  0.6432 -1.0668
 9658TIP3   OH253168   6.185   0.664   8.240  0.2435 -0.1827 -0.0729
 9658TIP3    H153169   6.145   0.737   8.288 -0.5210 -0.7243  0.1346
 9658TIP3    H253170   6.116   0.633   8.181  0.2887 -1.2289  0.3977
 9659TIP3   OH253171   2.815   4.548   8.301  0.3798 -0.1492 -0.0258
 9659TIP3    H153172   2.807   4.517   8.211 -1.4784  1.0534 -0.3470
 9659TIP3    H253173   2.777   4.479   8.354 -0.6698  0.1102 -0.4140
 9660TIP3   OH253174   1.357   2.069   6.998 -0.1196  0.1233 -0.0652
 9660TIP3    H153175   1.432   2.011   6.988  0.2480  0.9462 -2.5561
 9660TIP3    H253176   1.319   2.075   6.911 -1.0139  2.4738  0.4221
 9661TIP3   OH253177   1.275   2.718   9.426  0.0253  0.1506  0.2422
 9661TIP3    H153178   1.320   2.639   9.455  0.8766  0.7626  0.6137
 9661TIP3    H253179   1.219   2.742   9.500 -0.0745  0.0128  0.2115
 9662TIP3   OH253180   4.476   0.740   7.254 -0.0296 -0.7722  0.9037
 9662TIP3    H153181   4.566   0.742   7.221 -0.2533 -0.8097  0.2839
 9662TIP3    H253182   4.485   0.722   7.348  0.6645  0.4443  1.0934
 9663TIP3   OH253183   6.307   4.139   8.869 -0.6407  0.2755 -0.0039
 9663TIP3    H153184   6.234   4.099   8.821  0.3389  0.1799 -1.4776
 9663TIP3    H253185   6.299   4.233   8.852 -0.5749  0.2945  0.0658
 9664TIP3   OH253186   0.926   6.250   8.277 -0.1932  0.0317  0.1382
 9664TIP3    H153187   0.961   6.232   8.364  1.0289 -0.5854 -0.4706
 9664TIP3    H253188   0.978   6.323   8.245 -2.0239  1.6986  0.7165
 9665TIP3   OH253189   0.879   1.885   8.886  0.3665 -0.1071 -0.2805
 9665TIP3    H153190   0.798   1.840   8.863  0.1390  0.4515 -0.6001
 9665TIP3    H253191   0.919   1.906   8.801 -1.1055  3.1225 -0.3423
 9666TIP3   OH253192   1.322   6.337   8.822  0.1569  0.1565 -0.5713
 9666TIP3    H153193   1.373   6.256   8.827 -0.9606 -0.5301  0.2600
 9666TIP3    H253194   1.346   6.385   8.901 -1.3886 -0.7638  0.5135
 9667TIP3   OH253195   4.719   6.040   6.737 -0.3218 -0.3661 -0.6124
 9667TIP3    H153196   4.685   6.127   6.758  1.0625  0.3022 -1.0721
 9667TIP3    H253197   4.641   5.989   6.714 -1.0450  1.0355 -1.3561
 9668TIP3   OH253198   5.870   3.526   9.303  0.1659 -0.4144  0.2072
 9668TIP3    H153199   5.824   3.467   9.363  1.6759 -0.8580  0.9997
 9668TIP3    H253200   5.933   3.469   9.257  0.2857  0.2438 -0.4653
 9669TIP3   OH253201   5.826   0.215   7.497 -0.0274 -0.1167 -0.0286
 9669TIP3    H153202   5.732   0.208   7.518 -0.4476 -1.4175 -2.1038
 9669TIP3    H253203   5.870   0.189   7.578 -1.4973 -0.8067  0.5931
 9670TIP3   OH253204   1.353   5.985   8.510 -0.3198  0.3209 -0.6252
 9670TIP3    H153205   1.320   6.075   8.509  0.7863  0.7645 -0.2071
 9670TIP3    H253206   1.449   5.996   8.510 -0.1275 -0.8961 -2.8610
 9671TIP3   OH253207   1.640   0.285   6.486 -0.2122 -0.0741  0.3312
 9671TIP3    H153208   1.682   0.368   6.463  0.3047 -0.0290  1.3837
 9671TIP3    H253209   1.663   0.226   6.415 -0.7229  0.7114 -0.5228
 9672TIP3   OH253210   4.351   2.528   6.660  0.2275  0.2688 -0.1675
 9672TIP3    H153211   4.361   2.577   6.579  1.7830 -0.7457 -0.6488
 9672TIP3    H253212   4.436   2.536   6.704  0.3281 -1.4361  0.0282
 9673TIP3   OH253213   0.747   3.883   7.625  0.6161  0.3907  0.1197
 9673TIP3    H153214   0.682   3.848   7.564  1.6035  0.4380 -1.0149
 9673TIP3    H253215   0.750   3.977   7.606  2.2541  0.1339 -1.1353
 9674TIP3   OH253216   5.755   1.611   6.391 -0.0862  0.3536 -0.1985
 9674TIP3    H153217   5.846   1.634   6.410 -0.2418  1.2311 -0.4809
 9674TIP3    H253218   5.703   1.663   6.453 -0.3560 -0.9922  0.7311
 9675TIP3   OH253219   1.952   1.943   7.809 -0.1194  0.0706 -0.0429
 9675TIP3    H153220   1.972   2.000   7.883 -0.7741  1.8229 -1.1366
 9675TIP3    H253221   1.875   1.894   7.837 -0.2143  0.5360  0.5412
 9676TIP3   OH253222   3.956   3.716   9.508  0.0953 -0.0359  0.0067
 9676TIP3    H153223   3.954   3.652   9.580 -1.2059 -1.6068 -1.3464
 9676TIP3    H253224   4.048   3.718   9.481  0.1551 -1.5115 -0.0167
 9677TIP3   OH253225   2.739   5.307   7.024  0.3603 -0.4799  0.7288
 9677TIP3    H153226   2.814   5.260   6.989  0.9750  1.3510 -0.5081
 9677TIP3    H253227   2.664   5.250   7.005  1.0620 -0.9344 -0.7865
 9678TIP3   OH253228   6.060   5.274   9.119 -0.3694 -0.1529 -0.2751
 9678TIP3    H153229   6.110   5.320   9.051 -2.4813  2.3322 -0.2817
 9678TIP3    H253230   6.116   5.200   9.142  2.6911  1.6540 -1.2078
 9679TIP3   OH253231   4.142   2.981   7.934  0.4432  0.1474  0.1712
 9679TIP3    H153232   4.189   3.064   7.936 -0.7988  0.8911 -0.3541
 9679TIP3    H253233   4.209   2.915   7.948  1.5730  1.1887 -0.1767
 9680TIP3   OH253234   2.631   1.760   7.901 -0.0019  0.6868 -0.2256
 9680TIP3    H153235   2.647   1.837   7.956  0.6820  0.1186  0.3957
 9680TIP3    H253236   2.602   1.796   7.817  0.8758  1.6435 -0.1372
 9681TIP3   OH253237   0.729   2.245   6.645  0.1903  0.4411 -0.2044
 9681TIP3    H153238   0.646   2.269   6.686  0.7679  0.0769  1.2399
 9681TIP3    H253239   0.735   2.150   6.657 -0.2927  0.0711 -2.4700
 9682TIP3   OH253240   1.271   4.218   7.598 -0.4292 -0.0265  0.2116
 9682TIP3    H153241   1.270   4.295   7.542 -3.1516  1.3336  1.8721
 9682TIP3    H253242   1.197   4.165   7.568 -0.7270 -0.2309  1.2512
 9683TIP3   OH253243   2.101   2.373   8.865  0.0217  0.1769  0.1499
 9683TIP3    H153244   2.181   2.332   8.833  0.8877 -0.2248  2.5786
 9683TIP3    H253245   2.041   2.300   8.881 -0.5214  0.3984 -0.8232
 9684TIP3   OH253246   3.356   5.358   6.783  0.3752 -0.0061 -0.1679
 9684TIP3    H153247   3.276   5.409   6.795  1.0168  0.7689  1.0812
 9684TIP3    H253248   3.326   5.267   6.780 -0.5235  0.2374  0.7840
 9685TIP3   OH253249   2.370   6.340   7.239  0.1540  0.3635  0.0689
 9685TIP3    H153250   2.275   6.341   7.251 -0.1803  1.8073 -2.0724
 9685TIP3    H253251   2.384   6.278   7.167  0.7667  0.6682 -0.0775
 9686TIP3   OH253252   0.856   2.743   8.701  0.9639  0.0421  0.3071
 9686TIP3    H153253   0.816   2.700   8.626  1.2639  0.0501  0.1426
 9686TIP3    H253254   0.856   2.836   8.679 -0.5969  0.2529  1.0855
 9687TIP3   OH253255   4.622   4.865   8.729 -0.2697 -0.0938  0.3974
 9687TIP3    H153256   4.547   4.865   8.790 -0.3037 -0.0117  0.3561
 9687TIP3    H253257   4.621   4.778   8.690 -1.8399  0.6613 -1.4310
 9688TIP3   OH253258   2.907   1.161   6.806 -0.3258 -0.4559 -0.1277
 9688TIP3    H153259   2.970   1.177   6.736 -0.7965  0.7078 -0.3040
 9688TIP3    H253260   2.824   1.146   6.761 -0.3648 -1.1002  0.1410
 9689TIP3   OH253261   1.848   5.958   6.703 -0.3334 -0.9298  0.1781
 9689TIP3    H153262   1.763   5.962   6.660 -0.3253 -0.1957  0.2155
 9689TIP3    H253263   1.832   5.995   6.791  0.8670  3.6423 -1.2200
 9690TIP3   OH253264   6.343   4.743   7.423  0.7174  1.1632 -0.1215
 9690TIP3    H153265   6.411   4.688   7.383  0.0061  0.3168 -0.1889
 9690TIP3    H253266   6.368   4.832   7.399  0.4478  0.7104 -2.2892
 9691TIP3   OH253267   5.056   0.756   8.586  0.2917 -0.0688 -0.2346
 9691TIP3    H153268   5.097   0.736   8.671  0.7938 -0.0089 -0.4616
 9691TIP3    H253269   5.010   0.839   8.601  1.8452  0.8765 -0.4950
 9692TIP3   OH253270   0.420   1.458   7.151 -0.6007  0.0090  0.2418
 9692TIP3    H153271   0.364   1.383   7.175 -1.9498  0.8434 -0.1886
 9692TIP3    H253272   0.439   1.445   7.058 -1.3867  0.5271  0.0002
 9693TIP3   OH253273   6.018   0.616   8.978  0.7134  0.0743  0.0161
 9693TIP3    H153274   5.980   0.566   8.906  0.5079 -0.1080  0.2468
 9693TIP3    H253275   6.018   0.706   8.948  0.1749  0.0649 -0.0250
 9694TIP3   OH253276   4.972   6.217   7.408  0.5309 -0.3570  0.0667
 9694TIP3    H153277   4.914   6.144   7.387  0.1742  0.0863 -0.5118
 9694TIP3    H253278   4.960   6.279   7.336  0.0771  0.7275  1.0404
 9695TIP3   OH253279   5.219   0.102   8.963  0.3390 -0.6549  0.2788
 9695TIP3    H153280   5.248   0.190   8.940  1.5636 -0.8039  1.1504
 9695TIP3    H253281   5.190   0.064   8.880 -0.9028  0.7818 -0.0056
 9696TIP3   OH253282   5.313   4.247   6.758 -0.4692 -1.5307 -0.8528
 9696TIP3    H153283   5.352   4.334   6.765 -2.5781 -0.5316 -0.6801
 9696TIP3    H253284   5.281   4.242   6.668 -1.5121 -1.6021 -0.4855
 9697TIP3   OH253285   1.055   4.411   8.055  0.4778 -0.4622 -0.0108
 9697TIP3    H153286   1.146   4.398   8.083  0.3329 -0.1318  0.6146
 9697TIP3    H253287   1.041   4.506   8.061  0.1817 -0.4773 -0.4005
 9698TIP3   OH253288   2.752   2.415   9.235 -0.2663 -0.4534  0.3580
 9698TIP3    H153289   2.715   2.330   9.257 -2.4938  0.8165  2.0189
 9698TIP3    H253290   2.680   2.462   9.192  0.3568  1.1116  0.9520
 9699TIP3   OH253291   2.366   5.326   9.896 -0.1050 -0.4614  0.3303
 9699TIP3    H153292   2.306   5.357   9.828  1.2165 -1.5232 -1.4355
 9699TIP3    H253293   2.362   5.392   9.965 -3.4179 -0.6036  0.4273
 9700TIP3   OH253294   3.165   5.324   8.007 -0.6492 -0.4752 -0.5911
 9700TIP3    H153295   3.136   5.328   8.098  0.7846  1.9900 -0.1462
 9700TIP3    H253296   3.094   5.278   7.962 -1.9282 -0.7865  1.5603
 9701TIP3   OH253297   5.300   3.194   7.845  0.1777 -0.3453  0.1900
 9701TIP3    H153298   5.274   3.276   7.888  1.8186  0.3779 -0.1012
 9701TIP3    H253299   5.258   3.199   7.759  0.5857  0.4037  0.0195
 9702TIP3   OH253300   3.294   4.162   9.320 -0.6816  0.0185 -0.4665
 9702TIP3    H153301   3.230   4.212   9.371  0.5489  1.3491 -0.1539
 9702TIP3    H253302   3.348   4.228   9.278  0.9806 -1.0381 -0.0933
 9703TIP3   OH253303   6.212   4.834   9.114  0.1899 -0.0949 -0.5374
 9703TIP3    H153304   6.226   4.792   9.029 -0.3402  1.1535 -1.2598
 9703TIP3    H253305   6.120   4.858   9.114  0.0196 -0.6655  0.6781
 9704TIP3   OH253306   4.945   2.420   9.668  0.8379 -0.5343  0.0515
 9704TIP3    H153307   4.856   2.443   9.695  0.3745  0.1399 -1.9068
 9704TIP3    H253308   4.979   2.501   9.629  1.0054 -1.7406 -2.4322
 9705TIP3   OH253309   2.118   5.433   8.081 -0.4267 -0.8116  0.8233
 9705TIP3    H153310   2.133   5.527   8.092  0.6099 -1.0538  1.5562
 9705TIP3    H253311   2.044   5.428   8.019 -0.4403  0.4728  0.7085
 9706TIP3   OH253312   4.751   6.244   9.093 -0.3290 -0.3454  0.3538
 9706TIP3    H153313   4.805   6.309   9.139 -2.3179  0.9095  1.0563
 9706TIP3    H253314   4.661   6.269   9.115 -1.3365 -0.5963 -3.0360
 9707TIP3   OH253315   6.256   3.755   9.118 -0.1676  0.0184 -0.4158
 9707TIP3    H153316   6.174   3.751   9.167 -0.3685  0.9852 -0.6534
 9707TIP3    H253317   6.320   3.787   9.182 -0.0160 -0.5584 -0.2791
 9708TIP3   OH253318   3.112   0.234   8.604 -0.2624  0.2121 -0.0286
 9708TIP3    H153319   3.118   0.153   8.554  0.0717  0.0376  0.2872
 9708TIP3    H253320   3.185   0.229   8.666  1.0478  1.7094 -1.3873
 9709TIP3   OH253321   3.713   1.743   8.877  0.5549  0.4946  0.6165
 9709TIP3    H153322   3.786   1.798   8.848 -0.1558 -0.2141 -3.0662
 9709TIP3    H253323   3.728   1.659   8.833 -2.0135  0.0919  0.3637
 9710TIP3   OH253324   1.816   0.949   7.799 -0.1659  0.2304  0.6376
 9710TIP3    H153325   1.778   1.028   7.836 -0.8180  0.8481 -1.2164
 9710TIP3    H253326   1.857   0.978   7.717 -0.4423 -1.3337 -0.1088
 9711TIP3   OH253327   1.861   3.933   9.739 -0.1120  0.3594  0.4997
 9711TIP3    H153328   1.795   3.896   9.798  0.0048  1.4083  1.3217
 9711TIP3    H253329   1.926   3.972   9.797  0.9390 -0.1437 -0.3191
 9712TIP3   OH253330   0.703   0.016   6.899  0.0704 -0.1191  0.6541
 9712TIP3    H153331   0.628  -0.023   6.854 -1.2499  1.1651  1.6463
 9712TIP3    H253332   0.724   0.095   6.849  0.0517  0.1112  1.0058
 9713TIP3   OH253333   3.786   2.139   8.411 -0.6556  0.2738  0.0132
 9713TIP3    H153334   3.845   2.160   8.483  0.2343 -0.9130 -0.3311
 9713TIP3    H253335   3.827   2.180   8.335 -0.9416  0.4975 -0.0192
 9714TIP3   OH253336   4.843   2.926   8.587  0.0402 -0.1913 -0.1003
 9714TIP3    H153337   4.856   3.005   8.639 -0.7281  0.3519 -0.7216
 9714TIP3    H253338   4.930   2.886   8.583  0.6803  1.2005 -0.7043
 9715TIP3   OH253339   1.627   2.641   6.494 -0.0751 -0.6650 -1.0963
 9715TIP3    H153340   1.679   2.721   6.504  0.1496 -1.1034  2.3514
 9715TIP3    H253341   1.537   2.671   6.500 -0.0735 -0.5140 -1.6861
 9716TIP3   OH253342   6.588   0.461   8.840 -0.0786 -0.2382 -0.4505
 9716TIP3    H153343   6.499   0.479   8.809  0.0230  0.5846 -0.2657
 9716TIP3    H253344   6.629   0.547   8.848  0.6937 -0.6048 -0.4017
 9717TIP3   OH253345   4.213   3.735   9.426  0.3940  0.2546 -0.4481
 9717TIP3    H153346   4.233   3.654   9.377  4.4839  1.6830 -1.5747
 9717TIP3    H253347   4.249   3.719   9.513 -0.1908  0.3191 -0.1952
 9718TIP3   OH253348   1.663   6.231   7.902 -1.0303  0.1043  0.4370
 9718TIP3    H153349   1.707   6.316   7.897 -0.7829 -0.0599 -0.3498
 9718TIP3    H253350   1.578   6.245   7.861 -0.4326 -0.3593 -1.0278
 9719TIP3   OH253351   0.911   2.263   9.959  0.3161 -0.1424 -0.0599
 9719TIP3    H153352   0.885   2.271  10.051 -1.1521 -1.4758 -0.3052
 9719TIP3    H253353   0.829   2.272   9.910  1.3314  2.7060 -1.4610
 9720TIP3   OH253354   2.425   2.698   8.965 -0.4393 -0.8612 -0.4370
 9720TIP3    H153355   2.452   2.716   8.875 -1.0079 -0.7692 -0.5955
 9720TIP3    H253356   2.399   2.783   9.000  4.3993  0.1561  1.4902
 9721TIP3   OH253357   4.218   3.872   8.032 -0.3796 -0.4200  0.3213
 9721TIP3    H153358   4.226   3.925   8.111  0.3899 -0.9879  0.6379
 9721TIP3    H253359   4.207   3.935   7.961 -2.8742  0.0546  1.0614
 9722TIP3   OH253360   5.389   5.812   8.755  0.4377  0.1412  0.1411
 9722TIP3    H153361   5.337   5.734   8.775  0.1889  0.1720 -0.3575
 9722TIP3    H253362   5.324   5.882   8.747  0.6837  0.4583  0.8574
 9723TIP3   OH253363   3.202   3.148   7.284 -0.5050 -0.2209 -0.0185
 9723TIP3    H153364   3.120   3.197   7.292 -1.2049 -1.2763 -0.4349
 9723TIP3    H253365   3.236   3.144   7.374 -2.2785 -1.9910  0.6746
 9724TIP3   OH253366   5.476   5.093   9.687  0.0307  0.5717  0.3715
 9724TIP3    H153367   5.433   5.174   9.716 -1.9224 -0.4163  0.3872
 9724TIP3    H253368   5.524   5.063   9.764 -0.4829  0.9350  0.8434
 9725TIP3   OH253369   2.959   3.276   7.280  0.7858  0.9829  0.0854
 9725TIP3    H153370   2.896   3.249   7.348 -1.4591  1.0468 -1.8263
 9725TIP3    H253371   2.975   3.369   7.297  0.9929  0.7877  1.0374
 9726TIP3   OH253372   5.274   2.288   8.939 -0.1049 -0.3972  0.2256
 9726TIP3    H153373   5.330   2.249   9.007 -0.1717 -0.3542  0.3051
 9726TIP3    H253374   5.304   2.379   8.932 -1.8397  0.3917  2.0880
 9727TIP3   OH253375   5.637   4.826   7.120  0.1379  0.0428 -0.1707
 9727TIP3    H153376   5.627   4.889   7.191  1.0365 -0.9104  0.8503
 9727TIP3    H253377   5.642   4.879   7.041 -2.1390  1.0810  0.3042
 9728TIP3   OH253378   6.698   3.639   9.645 -0.0328  0.6018 -0.0327
 9728TIP3    H153379   6.679   3.723   9.686 -1.3399  0.5942 -0.5708
 9728TIP3    H253380   6.709   3.578   9.718  1.7507  1.3626  0.3906
 9729TIP3   OH253381   1.133   3.270   9.019 -0.4028 -0.2233 -0.2612
 9729TIP3    H153382   1.193   3.270   9.093  1.0851 -1.5017 -1.4081
 9729TIP3    H253383   1.096   3.358   9.018  1.3262  0.5522  0.5951
 9730TIP3   OH253384   3.951   1.106   8.097  0.5256  0.1614 -0.0894
 9730TIP3    H153385   3.993   1.163   8.161  1.8542 -1.2959  0.4127
 9730TIP3    H253386   3.870   1.078   8.139  0.8549  0.0978  0.5267
 9731TIP3   OH253387   6.366   3.514   9.133  0.4987 -0.1326 -0.3491
 9731TIP3    H153388   6.338   3.480   9.218  3.3296 -1.0105  0.3392
 9731TIP3    H253389   6.341   3.606   9.135  0.0822 -0.2498  1.2486
 9732TIP3   OH253390   4.019   5.338   9.941 -0.0142  0.5292  0.2478
 9732TIP3    H153391   4.108   5.303   9.942  0.1692  0.9017 -1.1635
 9732TIP3    H253392   4.025   5.417   9.887 -1.3632  0.0858 -0.5861
 9733TIP3   OH253393   5.616   4.117   9.051 -0.3893 -0.2225 -0.3963
 9733TIP3    H153394   5.634   4.025   9.033  0.0443 -0.8920  2.8768
 9733TIP3    H253395   5.702   4.156   9.064 -0.6717 -0.0147  0.9104
 9734TIP3   OH253396   0.155   3.865   7.911 -0.0816  0.1590  0.3804
 9734TIP3    H153397   0.169   3.858   7.816 -2.7798 -2.7033  0.0147
 9734TIP3    H253398   0.073   3.913   7.919  0.1873  0.4772  1.3085
 9735TIP3   OH253399   3.908   4.171   8.085  0.3960 -0.1034  0.2059
 9735TIP3    H153400   3.841   4.214   8.138 -0.4736 -1.5094  0.3269
 9735TIP3    H253401   3.864   4.093   8.050  1.2698  0.1819 -1.6890
 9736TIP3   OH253402   0.805   4.787   8.329 -0.0490  0.1607 -0.0427
 9736TIP3    H153403   0.880   4.808   8.273  0.5557 -2.1495 -0.2290
 9736TIP3    H253404   0.837   4.800   8.418  0.4529 -0.3699 -0.1361
 9737TIP3   OH253405   2.003   1.703   9.603 -0.3263  0.0679  0.6907
 9737TIP3    H153406   1.975   1.703   9.695  0.4365  0.7946  0.9359
 9737TIP3    H253407   2.098   1.716   9.607 -0.6385  3.6164 -0.2531
 9738TIP3   OH253408   6.707   2.164   8.551  0.6020 -0.7646  0.2099
 9738TIP3    H153409   6.713   2.200   8.640  4.0500 -1.9104  0.5955
 9738TIP3    H253410   6.732   2.236   8.494 -1.1148 -0.1743  0.1476
 9739TIP3   OH253411   1.348   6.480   9.449  0.0150 -0.0464 -0.3898
 9739TIP3    H153412   1.425   6.538   9.450  0.7093 -0.9397  0.1149
 9739TIP3    H253413   1.295   6.512   9.377  0.7865  0.6973 -0.6518
 9740TIP3   OH253414   5.607   5.960   8.835  0.1602 -0.7552 -0.5108
 9740TIP3    H153415   5.537   5.902   8.804 -1.2143  0.6973 -0.2317
 9740TIP3    H253416   5.596   5.963   8.930  0.6721 -0.5894 -0.4501
 9741TIP3   OH253417   5.670   1.356   7.446  0.1074 -0.7452 -0.3818
 9741TIP3    H153418   5.658   1.261   7.450 -0.2901 -0.6817  0.1002
 9741TIP3    H253419   5.612   1.384   7.374 -0.8504 -0.7203  0.3724
 9742TIP3   OH253420   3.264   3.313  10.477 -0.5344 -0.0199  0.1159
 9742TIP3    H153421   3.355   3.295  10.456 -0.5687  0.7959 -0.8226
 9742TIP3    H253422   3.267   3.395  10.528 -0.6719 -0.5545  1.0075
 9743TIP3   OH253423   5.917   1.320   7.635 -0.6088 -0.2238 -0.5412
 9743TIP3    H153424   5.823   1.340   7.630 -0.3122  1.3132 -0.4936
 9743TIP3    H253425   5.922   1.242   7.691 -1.8898 -0.7429 -1.0920
 9744TIP3   OH253426   2.542   1.666   6.699 -0.3428  0.0305  0.3108
 9744TIP3    H153427   2.540   1.761   6.691  3.0986  0.3804  1.8870
 9744TIP3    H253428   2.572   1.636   6.613  0.0458  0.5043  0.2780
 9745TIP3   OH253429   2.229   1.415   6.424 -0.2336 -0.4210  0.0743
 9745TIP3    H153430   2.143   1.410   6.382 -0.2343  0.9049 -0.1331
 9745TIP3    H253431   2.249   1.508   6.425  0.9550 -0.6692  0.6443
 9746TIP3   OH253432   6.538   5.146   6.357 -0.4768 -0.3379  0.7119
 9746TIP3    H153433   6.466   5.175   6.413 -1.9015  1.0590 -1.6734
 9746TIP3    H253434   6.499   5.079   6.300  0.8844 -1.6153  1.2259
 9747TIP3   OH253435   1.320   0.508   7.459  0.5414 -0.3861  1.0475
 9747TIP3    H153436   1.382   0.564   7.506 -0.0071 -0.3542  1.7493
 9747TIP3    H253437   1.262   0.475   7.527 -2.1924  2.0590  0.1288
 9748TIP3   OH253438   3.739   2.811   6.718 -0.5423 -0.1282  0.5844
 9748TIP3    H153439   3.728   2.798   6.812 -0.1098 -0.9215  0.5276
 9748TIP3    H253440   3.734   2.723   6.680 -0.8680  0.1958 -0.1533
 9749TIP3   OH253441   6.511   6.500   6.819  0.5033 -0.3015 -0.0237
 9749TIP3    H153442   6.549   6.560   6.883  0.9952 -0.2183 -0.3891
 9749TIP3    H253443   6.570   6.425   6.819  0.6641 -0.1779 -0.5891
 9750TIP3   OH253444   5.647   3.708   9.177  0.2584 -0.1270 -0.1479
 9750TIP3    H153445   5.706   3.648   9.223  0.6396  1.0104  0.9121
 9750TIP3    H253446   5.565   3.660   9.169  1.0339 -1.3705 -0.7653
 9751TIP3   OH253447   5.055   5.524   6.619 -0.5499  0.1121  0.4611
 9751TIP3    H153448   5.003   5.499   6.696  0.1674 -1.0546  0.5974
 9751TIP3    H253449   5.107   5.446   6.600 -0.1108  0.6773 -0.7127
 9752TIP3   OH253450   5.515   5.378   8.132  0.8272  0.3157  0.3647
 9752TIP3    H153451   5.533   5.454   8.077 -2.0924 -0.1424 -1.4084
 9752TIP3    H253452   5.550   5.304   8.083  1.2186  0.2283  0.7694
 9753TIP3   OH253453   6.112   4.849   8.702 -0.4820 -0.1023 -0.0730
 9753TIP3    H153454   6.060   4.775   8.734  0.8658 -1.0165  0.0571
 9753TIP3    H253455   6.200   4.833   8.735  0.3781  0.3146 -2.0196
 9754TIP3   OH253456   6.493   2.139   8.111  0.3725 -0.7631 -0.2808
 9754TIP3    H153457   6.558   2.074   8.137  1.2581  0.4098  0.5288
 9754TIP3    H253458   6.474   2.118   8.020  1.0347 -1.8180 -0.2011
 9755TIP3   OH253459   2.109   2.726   7.570  0.6616 -0.0759  0.4328
 9755TIP3    H153460   2.152   2.693   7.648 -1.0222 -0.6562  1.1592
 9755TIP3    H253461   2.055   2.798   7.601  0.0470 -0.2554 -0.2035
 9756TIP3   OH253462   2.127   1.004   6.461  1.0855 -0.1723  0.1280
 9756TIP3    H153463   2.183   0.961   6.525  2.2558  0.6354 -0.3027
 9756TIP3    H253464   2.188   1.044   6.400 -0.0016 -0.3404 -1.1037
 9757TIP3   OH253465   6.434   0.812   7.122  0.1971  0.5014 -0.1308
 9757TIP3    H153466   6.529   0.800   7.111  0.0430 -0.4394 -0.4588
 9757TIP3    H253467   6.426   0.859   7.205  0.8592 -1.3026  1.0036
 9758TIP3   OH253468   1.400   4.992   7.769  0.3054 -0.4363  0.1155
 9758TIP3    H153469   1.308   5.012   7.753  0.1469  0.5190  1.9816
 9758TIP3    H253470   1.445   5.023   7.690 -0.6857  1.5802  0.2765
 9759TIP3   OH253471   2.795   0.752   8.332  1.2232  0.6273  0.0975
 9759TIP3    H153472   2.788   0.684   8.399 -0.7953  0.1617 -0.5182
 9759TIP3    H253473   2.887   0.748   8.304  0.9386 -2.9196 -0.9172
 9760TIP3   OH253474   5.331   3.572   7.315 -0.1927  0.2939  0.5651
 9760TIP3    H153475   5.370   3.499   7.363  0.9781  0.5529  0.0275
 9760TIP3    H253476   5.404   3.613   7.269 -1.2161  0.2958 -1.1411
 9761TIP3   OH253477   4.368   4.462   7.585  0.3291 -0.0610 -0.0721
 9761TIP3    H153478   4.374   4.478   7.491 -2.7760  0.4883 -0.2644
 9761TIP3    H253479   4.381   4.368   7.595  3.4234  0.1976 -0.6463
 9762TIP3   OH253480   5.169   5.839   7.164  0.1426 -0.0242 -0.3872
 9762TIP3    H153481   5.245   5.817   7.110 -1.0065 -2.2954 -1.2061
 9762TIP3    H253482   5.114   5.761   7.160 -1.9909  1.3510  0.6282
 9763TIP3   OH253483   5.650   3.858   8.944 -0.2318  0.0993 -0.2813
 9763TIP3    H153484   5.658   3.835   9.037  1.5816  1.0506 -0.1552
 9763TIP3    H253485   5.647   3.774   8.899  1.6662 -0.4188  0.4679
 9764TIP3   OH253486   6.717   1.693   9.361  0.5832  0.4513  0.0557
 9764TIP3    H153487   6.790   1.753   9.372 -1.1699  2.3600  2.3779
 9764TIP3    H253488   6.722   1.633   9.435  0.3720 -0.0593 -0.3334
 9765TIP3   OH253489   3.231   0.646   6.351  0.6676 -0.4197 -0.1810
 9765TIP3    H153490   3.244   0.741   6.345 -0.5807 -0.3282 -2.4713
 9765TIP3    H253491   3.320   0.610   6.355  1.1973  0.7887 -0.5007
 9766TIP3   OH253492   1.973   2.271   6.988 -0.3054 -0.1912  0.3359
 9766TIP3    H153493   2.014   2.318   7.061 -0.0472  1.9561 -1.0909
 9766TIP3    H253494   1.880   2.272   7.008 -0.2521  0.4797  0.5673
 9767TIP3   OH253495   5.673   3.013   8.143  0.3765  0.2272  0.0155
 9767TIP3    H153496   5.614   3.005   8.068  0.8244  2.1944 -0.6114
 9767TIP3    H253497   5.695   2.923   8.166 -0.7880 -0.4557 -1.4013
 9768TIP3   OH253498   6.282   1.752   7.424 -0.6614  0.4507 -0.2086
 9768TIP3    H153499   6.275   1.846   7.444 -1.1199  0.9746 -2.5805
 9768TIP3    H253500   6.352   1.747   7.359 -0.8006 -0.8303 -0.2740
 9769TIP3   OH253501   3.541   4.629   7.681  0.4983 -0.0351  0.3670
 9769TIP3    H153502   3.568   4.659   7.594 -0.6040 -0.3479 -0.1016
 9769TIP3    H253503   3.609   4.661   7.740  1.4511 -0.1236 -0.6576
 9770TIP3   OH253504   6.603   5.215   8.926  0.4052  0.1010 -0.0763
 9770TIP3    H153505   6.576   5.164   9.002 -0.2773 -0.2271 -0.5292
 9770TIP3    H253506   6.601   5.306   8.956 -0.1967  0.0001  0.1945
 9771TIP3   OH253507   4.699   3.780   9.443  0.4068  0.0598 -0.0286
 9771TIP3    H153508   4.772   3.788   9.381 -0.2814 -1.0060 -1.0236
 9771TIP3    H253509   4.629   3.738   9.393 -1.7257  3.0030  0.2543
 9772TIP3   OH253510   3.412   1.230   8.565  0.0464 -0.7684 -0.1994
 9772TIP3    H153511   3.328   1.276   8.560  0.3453 -0.2750 -0.8143
 9772TIP3    H253512   3.416   1.198   8.655 -0.6211 -0.4471 -0.0484
 9773TIP3   OH253513   4.714   5.146   6.950  0.5164  0.6301  0.2488
 9773TIP3    H153514   4.633   5.196   6.955  0.4341  0.4312  1.3353
 9773TIP3    H253515   4.691   5.065   6.905  0.1822  0.7229  0.2543
 9774TIP3   OH253516   1.698   6.379   8.530 -0.4546 -0.5256 -0.2797
 9774TIP3    H153517   1.659   6.412   8.611 -0.3292 -0.7328 -0.1361
 9774TIP3    H253518   1.792   6.387   8.544 -0.3846 -1.9235  0.1695
 9775TIP3   OH253519   6.004   2.115   8.931  0.1142 -0.2118  0.0678
 9775TIP3    H153520   6.027   2.099   8.839 -0.6423 -0.0710 -0.1523
 9775TIP3    H253521   6.072   2.069   8.981  1.1969  0.6822 -0.5469
 9776TIP3   OH253522   2.372   2.310   9.295 -0.2993 -0.2139 -0.4040
 9776TIP3    H153523   2.326   2.363   9.230  0.8454  1.0325 -0.2386
 9776TIP3    H253524   2.341   2.343   9.379  0.3780  0.1581 -0.2985
 9777TIP3   OH253525   0.267   2.272  10.457  0.0175 -0.3267  0.0011
 9777TIP3    H153526   0.271   2.179  10.480 -0.9823 -0.3450  0.1302
 9777TIP3    H253527   0.234   2.314  10.537  0.0188  0.0836 -0.2153
 9778TIP3   OH253528   5.281   2.831   9.549  0.4734 -0.0339  0.1567
 9778TIP3    H153529   5.253   2.912   9.505 -1.0301  0.0402  1.2049
 9778TIP3    H253530   5.332   2.785   9.482  2.1883  2.1806 -0.1857
 9779TIP3   OH253531   3.231   6.682   8.561  0.8326  0.4408 -0.3130
 9779TIP3    H153532   3.257   6.669   8.652 -0.1269  1.0080  0.0609
 9779TIP3    H253533   3.304   6.649   8.510  1.3674  0.0760  0.6661
 9780TIP3   OH253534   1.744   4.619   7.894  0.6873  0.1655 -0.5311
 9780TIP3    H153535   1.697   4.702   7.883  1.9768  0.6600 -3.2054
 9780TIP3    H253536   1.676   4.555   7.914 -0.5902  1.4925 -0.4385
 9781TIP3   OH253537   2.632   5.761   7.615  0.1024 -0.3880 -0.1108
 9781TIP3    H153538   2.538   5.750   7.596  0.4370 -1.1599 -1.4565
 9781TIP3    H253539   2.635   5.825   7.685 -1.4263 -0.0706 -0.3016
 9782TIP3   OH253540   1.686   2.826   8.625 -0.3702  0.5546  0.5345
 9782TIP3    H153541   1.633   2.877   8.564 -0.1579  0.6946  0.4691
 9782TIP3    H253542   1.712   2.889   8.692  0.3702  0.6643  0.1510
 9783TIP3   OH253543   2.735   3.581   7.014 -0.5671 -0.0796 -0.3954
 9783TIP3    H153544   2.684   3.514   6.969  0.3341 -0.4927 -0.8251
 9783TIP3    H253545   2.822   3.574   6.976  0.0651 -0.0435  1.0045
 9784TIP3   OH253546   4.327   6.299   8.821  0.6286 -0.2114  0.8534
 9784TIP3    H153547   4.317   6.347   8.739 -0.0083 -1.8006 -0.0329
 9784TIP3    H253548   4.409   6.334   8.859  2.0017 -0.7859 -1.4070
 9785TIP3   OH253549   1.649   2.495  10.011  0.3775  0.2530  0.1654
 9785TIP3    H153550   1.701   2.570  10.041 -0.3894  0.3611  1.3124
 9785TIP3    H253551   1.660   2.494   9.916  0.7279  1.5735  0.1730
 9786TIP3   OH253552   5.647   3.403   8.751 -0.9151 -0.0843 -0.2859
 9786TIP3    H153553   5.679   3.394   8.661  0.3222  2.6930 -0.2314
 9786TIP3    H253554   5.681   3.325   8.796  1.8891  0.3737 -1.3685
 9787TIP3   OH253555   3.734   4.221   9.100  0.4577 -0.3961 -0.1454
 9787TIP3    H153556   3.638   4.227   9.109  0.4885  0.5360 -0.3553
 9787TIP3    H253557   3.762   4.177   9.180 -0.1137 -0.3472  0.0895
 9788TIP3   OH253558   4.599   1.705   7.349 -0.6844  0.4781  0.0705
 9788TIP3    H153559   4.693   1.720   7.352 -0.4974 -0.6974  1.2616
 9788TIP3    H253560   4.579   1.694   7.256  0.3141  0.9239 -0.2125
 9789TIP3   OH253561   0.874   6.640   8.001 -0.9242  0.1272 -0.3076
 9789TIP3    H153562   0.876   6.641   8.097 -0.3229  0.6776 -0.3120
 9789TIP3    H253563   0.897   6.551   7.977 -1.4448 -0.1100  0.0656
 9790TIP3   OH253564   3.851   1.438   8.065  0.2050 -0.1392 -0.6694
 9790TIP3    H153565   3.783   1.370   8.072 -0.4066  0.3230 -1.9810
 9790TIP3    H253566   3.909   1.420   8.139 -1.1519 -0.7533  0.2915
 9791TIP3   OH253567   6.105   0.432   7.402 -0.0921  0.3593  0.7454
 9791TIP3    H153568   6.182   0.478   7.370  0.1327  0.3951  1.3265
 9791TIP3    H253569   6.131   0.397   7.488  0.1824 -2.0075 -0.2350
 9792TIP3   OH253570   0.010   2.960   7.384 -0.7486 -0.1254  0.4822
 9792TIP3    H153571  -0.072   2.928   7.347 -0.8962 -1.5671  1.9404
 9792TIP3    H253572   0.069   2.885   7.381  0.2750  0.6546  0.2238
 9793TIP3   OH253573   5.190   6.677   8.074  0.2699  0.6986 -0.0440
 9793TIP3    H153574   5.247   6.648   8.003  0.1665 -0.2255  0.2435
 9793TIP3    H253575   5.222   6.765   8.096  2.1016 -0.0940  0.6528
 9794TIP3   OH253576   4.988   4.145   8.178  0.3012  0.3917 -0.0826
 9794TIP3    H153577   5.065   4.129   8.124  0.1866 -1.0666  0.1499
 9794TIP3    H253578   4.943   4.218   8.135  1.1660  0.4540 -0.9073
 9795TIP3   OH253579   6.337   5.206   6.518  0.1388  0.3481  0.0294
 9795TIP3    H153580   6.363   5.180   6.606 -0.8206 -1.0575 -0.0677
 9795TIP3    H253581   6.241   5.199   6.518  0.1798 -0.6384 -1.3867
 9796TIP3   OH253582   6.569   4.350   8.895 -0.1739 -0.4697  0.2976
 9796TIP3    H153583   6.640   4.299   8.932  0.7503  1.2058  0.9526
 9796TIP3    H253584   6.611   4.404   8.828 -1.2907 -1.2409 -1.0601
 9797TIP3   OH253585   0.417   4.117   9.867 -0.0718 -0.0209 -0.3181
 9797TIP3    H153586   0.424   4.060   9.791  1.2166  0.7037 -0.7728
 9797TIP3    H253587   0.423   4.058   9.942 -3.0480 -0.9513 -0.6957
 9798TIP3   OH253588   2.473   0.310   6.914 -0.3824  0.6026  0.4949
 9798TIP3    H153589   2.421   0.230   6.908  0.4107  0.1551 -0.8066
 9798TIP3    H253590   2.409   0.381   6.916 -1.0576  0.0420 -0.6672
 9799TIP3   OH253591   0.620   3.810   6.459  0.3412  0.3403  0.1342
 9799TIP3    H153592   0.632   3.821   6.554 -0.0125  0.6980  0.1370
 9799TIP3    H253593   0.707   3.824   6.423  0.7901 -1.2441  0.5339
 9800TIP3   OH253594   6.081   6.594   8.527  0.0928  0.0373  0.0948
 9800TIP3    H153595   6.136   6.673   8.526  0.5142 -0.2518  0.1680
 9800TIP3    H253596   6.143   6.522   8.513 -0.2041 -0.3296  0.6566
 9801TIP3   OH253597   0.451   2.009   9.652  0.0880  0.5606 -0.6012
 9801TIP3    H153598   0.481   2.055   9.574 -0.8451 -0.4945 -1.6132
 9801TIP3    H253599   0.439   1.919   9.624  1.6816 -0.3106  1.2845
 9802TIP3   OH253600   5.823   4.738   8.496  0.1414 -0.2456  0.0338
 9802TIP3    H153601   5.853   4.829   8.494  0.1545  0.1819  5.4459
 9802TIP3    H253602   5.896   4.688   8.459  1.3122  1.7274 -0.4817
 9803TIP3   OH253603   3.063   3.914   8.283  1.0406 -0.2218 -0.0700
 9803TIP3    H153604   3.009   3.962   8.346 -0.5991 -3.4660  1.2125
 9803TIP3    H253605   3.152   3.919   8.318  0.8688  1.4227  0.2207
 9804TIP3   OH253606   1.767   1.230   7.657 -0.5810  0.9522 -0.0105
 9804TIP3    H153607   1.672   1.217   7.658 -0.5847  0.1823 -2.6782
 9804TIP3    H253608   1.779   1.325   7.662 -1.3353  0.9998  2.2282
 9805TIP3   OH253609   6.631   0.340   8.494 -0.0866  0.0336 -0.2008
 9805TIP3    H153610   6.671   0.256   8.473 -0.9529 -0.6540  0.7768
 9805TIP3    H253611   6.701   0.391   8.534 -0.0045 -0.9251  0.9409
 9806TIP3   OH253612   0.915   0.963   8.511 -0.1418  0.1609 -0.4334
 9806TIP3    H153613   0.954   0.967   8.424 -0.5686  0.5061 -0.6110
 9806TIP3    H253614   0.979   1.005   8.569 -0.5229  1.3114 -0.8230
 9807TIP3   OH253615   6.662   3.387   8.646 -0.1491 -0.8150  0.3575
 9807TIP3    H153616   6.722   3.427   8.709 -1.5187  1.5283  0.2841
 9807TIP3    H253617   6.578   3.430   8.662 -1.3967 -2.6935 -0.7584
 9808TIP3   OH253618   0.222   6.432   8.715 -0.0425 -0.3015  0.0868
 9808TIP3    H153619   0.206   6.338   8.717  1.1142 -0.5598 -0.9495
 9808TIP3    H253620   0.143   6.471   8.750 -0.8180 -1.6413 -0.1036
 9809TIP3   OH253621   2.830   3.624   9.131 -0.3261 -0.3340 -0.4580
 9809TIP3    H153622   2.917   3.640   9.168 -0.3453 -0.3344 -0.4124
 9809TIP3    H253623   2.822   3.528   9.129 -0.2368 -0.3361 -0.6693
 9810TIP3   OH253624   1.481   0.015   7.524 -0.2104  0.2451  0.4495
 9810TIP3    H153625   1.454   0.051   7.609 -2.9363 -0.3320 -0.0972
 9810TIP3    H253626   1.524  -0.068   7.547  2.7463  1.9079  1.4458
 9811TIP3   OH253627   5.394   2.314   9.861 -0.3880 -0.1358  0.4256
 9811TIP3    H153628   5.419   2.357   9.943 -2.5533 -0.0087  1.0736
 9811TIP3    H253629   5.358   2.384   9.807 -0.2174 -0.4576 -0.1204
 9812TIP3   OH253630   2.791   0.268   6.668  0.1214  0.1191 -0.1126
 9812TIP3    H153631   2.770   0.333   6.735  0.9566  0.0403  0.2317
 9812TIP3    H253632   2.811   0.319   6.590 -1.5981  0.1953 -0.5523
 9813TIP3   OH253633   6.133   1.243   8.646 -0.2764 -0.2283  0.6232
 9813TIP3    H153634   6.212   1.242   8.700 -0.3051  2.2146  0.8111
 9813TIP3    H253635   6.160   1.287   8.565 -1.2527 -0.0484  0.3850
 9814TIP3   OH253636   0.137   3.313   8.841 -0.0695  0.1445  0.2138
 9814TIP3    H153637   0.047   3.322   8.871 -0.3328 -0.3592 -0.4031
 9814TIP3    H253638   0.189   3.310   8.921 -0.5485  0.9710  0.5629
 9815TIP3   OH253639   3.127   5.136   7.125 -0.2541  0.4947  0.5294
 9815TIP3    H153640   3.085   5.126   7.211  0.5044 -0.3977  0.8158
 9815TIP3    H253641   3.191   5.065   7.121 -0.6447  0.1987 -1.0063
 9816TIP3   OH253642   0.260   5.333   8.119 -0.0465  0.0005  0.1547
 9816TIP3    H153643   0.272   5.273   8.193 -0.9929  0.0836  0.3852
 9816TIP3    H253644   0.181   5.382   8.141  1.2293  2.0504  0.4453
 9817TIP3   OH253645   0.773   4.786   7.371  0.1119  0.2614 -0.4005
 9817TIP3    H153646   0.705   4.767   7.307  1.7390 -1.2593 -1.7684
 9817TIP3    H253647   0.770   4.712   7.432  0.0667  0.5545 -0.0450
 9818TIP3   OH253648   2.270   0.066   9.478  0.0285  0.2140  0.7867
 9818TIP3    H153649   2.222   0.116   9.545 -1.2625 -0.8304  0.6717
 9818TIP3    H253650   2.210  -0.004   9.453  1.4249 -0.8132  0.2293
 9819TIP3   OH253651   6.576   3.636   7.891 -0.0652 -0.2872 -0.0392
 9819TIP3    H153652   6.597   3.629   7.984 -1.0254 -2.3936  0.0717
 9819TIP3    H253653   6.539   3.724   7.882  1.2129  0.4361  1.2829
 9820TIP3   OH253654   5.227   0.627   6.956  0.2799 -0.0003 -0.3712
 9820TIP3    H153655   5.292   0.579   7.006  0.7266  0.6149 -0.3510
 9820TIP3    H253656   5.271   0.708   6.932 -0.2630  0.1323 -0.9199
 9821TIP3   OH253657   6.213   0.559  10.091 -0.0814  0.0056  0.0869
 9821TIP3    H153658   6.131   0.598  10.062  0.1552  0.4102 -0.0420
 9821TIP3    H253659   6.235   0.494  10.024  0.6254  1.1513 -0.8219
 9822TIP3   OH253660   0.130   0.155   7.038  0.5698 -0.5897 -0.2180
 9822TIP3    H153661   0.183   0.152   7.118  0.1474 -0.4118  0.0717
 9822TIP3    H253662   0.177   0.215   6.980 -0.1690  0.8965  0.6667
 9823TIP3   OH253663   5.986   2.403   7.072 -0.2743  0.0222  0.2211
 9823TIP3    H153664   5.895   2.389   7.044  0.4525 -2.7230 -1.1483
 9823TIP3    H253665   6.025   2.452   7.000 -0.4171  0.3307  0.3505
 9824TIP3   OH253666   3.293   2.342   8.119  0.4233 -0.3686  0.1639
 9824TIP3    H153667   3.251   2.392   8.050 -0.0589 -1.2065 -0.1585
 9824TIP3    H253668   3.278   2.251   8.096 -0.8315 -0.6939  2.0042
 9825TIP3   OH253669   4.232   6.125   7.304  0.1687  0.2289  0.2242
 9825TIP3    H153670   4.213   6.134   7.397 -0.6137 -0.3836  0.1406
 9825TIP3    H253671   4.182   6.195   7.262 -1.0892 -0.6973  0.1067
 9826TIP3   OH253672   3.698   2.085   6.955  0.0932 -0.9546 -0.8941
 9826TIP3    H153673   3.604   2.071   6.949  0.0985 -2.3751  1.0457
 9826TIP3    H253674   3.732   2.061   6.869 -1.1862 -1.8404 -1.1856
 9827TIP3   OH253675   6.075   1.800   8.717  0.1244  0.2463 -0.4053
 9827TIP3    H153676   6.157   1.774   8.675 -0.8152 -0.2772 -2.0040
 9827TIP3    H253677   6.069   1.894   8.702 -0.3221  0.0251 -1.7264
 9828TIP3   OH253678   2.157   3.264   6.992  0.1799  0.1716  0.2351
 9828TIP3    H153679   2.198   3.179   6.981  0.8743  0.7381 -1.8972
 9828TIP3    H253680   2.229   3.324   7.011 -0.0646  0.6038 -0.1792
 9829TIP3   OH253681   6.114   1.674   7.681  0.0303  0.0322  0.1906
 9829TIP3    H153682   6.021   1.697   7.684 -0.1472 -0.0820 -2.2894
 9829TIP3    H253683   6.147   1.720   7.604  1.8517 -0.5988  0.5515
 9830TIP3   OH253684   1.599   4.215   8.131 -0.1259  0.0684  0.1293
 9830TIP3    H153685   1.621   4.272   8.057 -0.0873  3.1771  2.3452
 9830TIP3    H253686   1.684   4.186   8.165 -0.0176  1.0989  0.7395
 9831TIP3   OH253687   6.499   6.222   6.501 -0.0484  0.2283  0.2100
 9831TIP3    H153688   6.441   6.277   6.554 -0.1846  0.4721 -0.1846
 9831TIP3    H253689   6.485   6.252   6.411  1.7989  1.3046  0.2411
 9832TIP3   OH253690   4.213   4.175   6.515  0.2822  0.3750  0.3490
 9832TIP3    H153691   4.305   4.156   6.498  0.2092 -0.3365  0.7380
 9832TIP3    H253692   4.210   4.270   6.529  1.0218  0.3328  0.7984
 9833TIP3   OH253693   0.609   2.144   7.928  0.0554  0.7823  0.0334
 9833TIP3    H153694   0.577   2.190   7.851 -1.1526  0.8452  0.5450
 9833TIP3    H253695   0.590   2.051   7.911  0.9276  0.6397 -0.2581
 9834TIP3   OH253696   1.157   0.733   7.370  0.1872  0.5861  0.9269
 9834TIP3    H153697   1.148   0.738   7.275  0.5822 -0.2734  0.8335
 9834TIP3    H253698   1.198   0.647   7.386 -0.0915  0.6168  1.8833
 9835TIP3   OH253699   1.240   5.571   6.646  0.1910 -0.0783  0.1055
 9835TIP3    H153700   1.266   5.479   6.644 -1.6885 -0.7751  2.7426
 9835TIP3    H253701   1.146   5.569   6.625  0.0890  1.2152  0.3799
 9836TIP3   OH253702   3.940   5.055   9.845  0.3358 -0.4907 -0.0869
 9836TIP3    H153703   3.968   5.110   9.919  0.9082 -0.6113 -0.2120
 9836TIP3    H253704   4.009   5.066   9.779 -1.0626  1.0819 -1.3738
 9837TIP3   OH253705   6.681   1.261   7.839  0.3043 -0.4164 -0.3065
 9837TIP3    H153706   6.606   1.202   7.846  0.7666 -1.2640 -1.9933
 9837TIP3    H253707   6.645   1.343   7.806 -0.0454 -0.4133  0.0765
 9838TIP3   OH253708   4.380   3.811   8.546  0.3008 -0.6785  0.1500
 9838TIP3    H153709   4.447   3.759   8.589 -0.4524 -1.0036  0.9582
 9838TIP3    H253710   4.316   3.829   8.615 -1.0205 -1.3609 -0.8717
 9839TIP3   OH253711   1.382   1.095   8.858 -0.1592  0.0347 -0.2531
 9839TIP3    H153712   1.445   1.067   8.792  2.0448 -1.1513  2.2016
 9839TIP3    H253713   1.324   1.020   8.869 -2.0360  1.0573 -2.3721
 9840TIP3   OH253714   0.803   3.217   6.969  0.0694  0.3454  0.3373
 9840TIP3    H153715   0.838   3.131   6.990 -1.6804 -0.1501  1.4619
 9840TIP3    H253716   0.838   3.237   6.883  1.0616 -1.1785  0.3446
 9841TIP3   OH253717   1.120   4.747   8.439 -0.4271 -0.5691  0.4232
 9841TIP3    H153718   1.115   4.653   8.420 -0.4966 -0.2522 -1.3093
 9841TIP3    H253719   1.049   4.763   8.501 -0.3556 -1.6720  0.8171
 9842TIP3   OH253720   2.450   3.695   7.826 -0.5938  0.1263 -0.5021
 9842TIP3    H153721   2.438   3.600   7.834  0.5939 -0.0727 -0.7510
 9842TIP3    H253722   2.540   3.709   7.855 -0.7949  1.2006 -0.3743
 9843TIP3   OH253723   3.941   3.048   8.587 -0.1537  0.1827 -0.3293
 9843TIP3    H153724   3.899   3.111   8.528 -0.8911 -1.2854 -1.4551
 9843TIP3    H253725   4.010   3.008   8.533  0.8643  0.6020  0.6349
 9844TIP3   OH253726   6.174   3.747   8.848  0.0051  0.5414 -0.2226
 9844TIP3    H153727   6.231   3.766   8.922 -1.3443 -0.4816  1.1390
 9844TIP3    H253728   6.223   3.682   8.797  0.1506 -0.2215  0.8493
 9845TIP3   OH253729   5.093   5.739   8.131 -0.2111  0.0739  0.5001
 9845TIP3    H153730   5.101   5.722   8.225 -1.8350  1.0593  0.8532
 9845TIP3    H253731   5.106   5.834   8.123 -2.0234  0.3158  0.0145
 9846TIP3   OH253732   5.873   1.040   7.512  0.0997 -0.4131  0.0133
 9846TIP3    H153733   5.943   1.068   7.453 -1.9752  0.4547 -2.2058
 9846TIP3    H253734   5.915   0.979   7.573  2.6666 -0.2196 -1.4460
 9847TIP3   OH253735   5.585   0.861   9.110  0.2044  0.0856 -0.2582
 9847TIP3    H153736   5.582   0.954   9.086  1.1240 -0.3248 -2.1710
 9847TIP3    H253737   5.666   0.853   9.160 -0.0022  0.3531  0.1248
 9848TIP3   OH253738   5.030   6.499   6.902  0.2223  0.6755 -0.5408
 9848TIP3    H153739   4.999   6.410   6.885  0.7370  0.4814 -0.5103
 9848TIP3    H253740   5.069   6.527   6.819  0.8102  0.5462 -0.3163
 9849TIP3   OH253741   1.686   5.122   7.860  0.2891 -0.3207 -0.8848
 9849TIP3    H153742   1.734   5.044   7.833  1.4940  0.5624 -1.4062
 9849TIP3    H253743   1.672   5.171   7.778 -1.0039 -0.2670 -0.6559
 9850TIP3   OH253744   4.215   0.714   7.719  0.1254 -0.2823  0.0415
 9850TIP3    H153745   4.245   0.800   7.689 -0.4083 -0.2508 -0.4190
 9850TIP3    H253746   4.269   0.652   7.671  0.3523 -0.2112  0.2014
 9851TIP3   OH253747   3.391   4.399   6.590 -0.1441  0.0383 -0.5382
 9851TIP3    H153748   3.348   4.463   6.533 -1.6419 -0.2227  0.2217
 9851TIP3    H253749   3.476   4.384   6.550 -0.3631  1.3436 -1.5857
 9852TIP3   OH253750   0.722   0.996   6.271 -0.0076 -0.0643  0.3082
 9852TIP3    H153751   0.633   0.988   6.307 -0.2909  0.2328 -0.3167
 9852TIP3    H253752   0.717   0.953   6.185  0.7063 -0.9213  0.6735
 9853TIP3   OH253753   1.368   0.104   9.206  0.4920  0.4267 -0.1364
 9853TIP3    H153754   1.274   0.088   9.217  0.1766  2.0176 -0.3871
 9853TIP3    H253755   1.376   0.199   9.199  2.1362  0.3179 -0.0578
 9854TIP3   OH253756   3.866   2.726   7.506  0.7544 -0.9932  0.2028
 9854TIP3    H153757   3.894   2.644   7.545  0.9806 -1.9429 -1.8797
 9854TIP3    H253758   3.908   2.729   7.421  0.1300  0.9234 -0.0972
 9855TIP3   OH253759   6.299   6.460   8.449 -0.1235  0.1567  0.4882
 9855TIP3    H153760   6.346   6.512   8.384  2.0516 -0.8793  1.1357
 9855TIP3    H253761   6.229   6.417   8.399 -0.8045  2.1754 -0.4018
 9856TIP3   OH253762   4.244   3.393   6.492  0.1802  0.0078  0.2372
 9856TIP3    H153763   4.277   3.349   6.571  0.4236 -0.0089  0.1263
 9856TIP3    H253764   4.318   3.445   6.460  0.1074 -0.0457 -0.0231
 9857TIP3   OH253765   5.844   0.625   6.580 -0.5557  0.3113 -0.0430
 9857TIP3    H153766   5.754   0.653   6.568  0.1646  2.1369 -1.7338
 9857TIP3    H253767   5.896   0.701   6.555  1.4759 -0.9787  0.0256
 9858TIP3   OH253768   2.680   2.965   9.228  0.4635  0.6218 -0.2442
 9858TIP3    H153769   2.673   2.993   9.319 -0.4353  1.8869 -0.6736
 9858TIP3    H253770   2.609   2.902   9.216  0.4630  0.5987 -0.1168
 9859TIP3   OH253771   6.063   6.367   9.055  0.5973 -0.5253 -0.2436
 9859TIP3    H153772   5.971   6.386   9.037  0.1645 -1.6975  0.6508
 9859TIP3    H253773   6.109   6.397   8.976 -0.2222  2.2398  0.2042
 9860TIP3   OH253774   1.755   1.813   6.637 -0.1621  0.3214 -0.1517
 9860TIP3    H153775   1.834   1.774   6.600 -1.7224 -1.1866 -2.0653
 9860TIP3    H253776   1.736   1.887   6.579 -0.2859  0.5565  0.1846
 9861TIP3   OH253777   3.533   2.550   8.449 -0.2031 -0.2605  0.8751
 9861TIP3    H153778   3.558   2.548   8.357  0.4907 -0.5467  1.0602
 9861TIP3    H253779   3.443   2.584   8.449  0.1638  0.7450  0.1895
 9862TIP3   OH253780   1.528   2.476  10.688  0.8278 -0.0343 -0.3059
 9862TIP3    H153781   1.469   2.426  10.633  0.0975 -0.1227  0.5495
 9862TIP3    H253782   1.592   2.413  10.720 -0.3808 -0.5435  1.1707
 9863TIP3   OH253783   4.043   4.369   7.218 -0.1080  0.1166  0.4399
 9863TIP3    H153784   3.967   4.428   7.215  0.0614  0.3766  1.0175
 9863TIP3    H253785   4.005   4.284   7.240 -0.5675 -0.4217 -2.1281
 9864TIP3   OH253786   4.071   3.953  10.056  0.3524 -0.3271  0.3674
 9864TIP3    H153787   4.070   3.953   9.960  1.1301 -2.6483  0.2802
 9864TIP3    H253788   4.127   4.027  10.079  0.2447  0.2068 -0.9738
 9865TIP3   OH253789   4.463   6.006   7.610 -0.2075 -0.0552  0.0949
 9865TIP3    H153790   4.457   5.921   7.654  0.9259 -0.0605  0.2647
 9865TIP3    H253791   4.372   6.035   7.602 -0.6099 -1.2567  0.0758
 9866TIP3   OH253792   6.496   2.736   9.001  0.2162  0.5021 -0.0379
 9866TIP3    H153793   6.479   2.754   8.908 -1.0195 -0.8163 -0.1107
 9866TIP3    H253794   6.498   2.822   9.043  3.5350  1.3817 -1.6430
 9867TIP3   OH253795   3.314   2.844   8.076  0.1199  0.5143  0.0792
 9867TIP3    H153796   3.325   2.937   8.096 -2.8775  0.9895 -0.1207
 9867TIP3    H253797   3.221   2.827   8.088 -0.3039 -1.3886 -4.1596
 9868TIP3   OH253798   4.683   3.972   8.644 -0.0484 -0.1808 -0.1473
 9868TIP3    H153799   4.740   4.048   8.635  0.8702 -0.8252  0.1040
 9868TIP3    H253800   4.678   3.935   8.556  0.7792 -0.7159  0.0193
 9869TIP3   OH253801   3.551   4.677   8.696  0.0585 -0.5414 -0.2647
 9869TIP3    H153802   3.600   4.664   8.615  1.5302  0.4935  0.4209
 9869TIP3    H253803   3.481   4.612   8.692 -1.0713  0.6924 -3.2020
 9870TIP3   OH253804   4.427   5.168   8.511 -0.4459  0.2902  0.3622
 9870TIP3    H153805   4.404   5.114   8.587  2.8075 -0.1019  1.2153
 9870TIP3    H253806   4.493   5.229   8.544  0.7707  0.3858 -2.0300
 9871TIP3   OH253807   3.123   5.419   6.541 -0.5533 -0.9893 -0.4911
 9871TIP3    H153808   3.209   5.384   6.517  0.0465 -0.5205  0.9084
 9871TIP3    H253809   3.122   5.418   6.637 -2.2012 -1.1869 -0.4729
 9872TIP3   OH253810   5.741   2.565   9.348  0.2095 -0.0353  0.2740
 9872TIP3    H153811   5.806   2.534   9.284  0.2209  0.5736 -0.0136
 9872TIP3    H253812   5.788   2.629   9.401 -0.1615  0.4249  0.0510
 9873TIP3   OH253813   0.087   3.406  10.452  0.1599 -0.4376  0.1467
 9873TIP3    H153814   0.086   3.458  10.532 -0.1592 -1.8457  1.1061
 9873TIP3    H253815   0.008   3.353  10.457  1.1426 -2.0046 -0.0672
 9874TIP3   OH253816   4.079   2.945   8.370  0.3440 -0.0535 -0.4144
 9874TIP3    H153817   4.099   2.852   8.383 -2.7284 -0.7243  0.3420
 9874TIP3    H253818   4.019   2.945   8.295 -1.6182  0.9887  1.0893
 9875TIP3   OH253819   1.415   0.418   7.809 -0.2024 -0.7622 -0.3739
 9875TIP3    H153820   1.487   0.367   7.773  0.1197 -0.1134 -0.6569
 9875TIP3    H253821   1.421   0.404   7.904  0.7038 -0.1869 -0.3400
 9876TIP3   OH253822   1.347   6.212   9.382 -0.2172  0.0163 -0.2508
 9876TIP3    H153823   1.363   6.298   9.421 -0.4945 -0.2218  0.4013
 9876TIP3    H253824   1.431   6.167   9.388 -0.5850 -0.4983  1.3019
 9877TIP3   OH253825   6.513   4.548   8.050 -0.0630  0.2174  0.3212
 9877TIP3    H153826   6.529   4.542   7.956 -0.7365 -1.0135  0.2529
 9877TIP3    H253827   6.419   4.534   8.059  0.3334 -2.4648  1.3332
 9878TIP3   OH253828   3.294   4.654   6.534 -0.2638  0.0055  0.0403
 9878TIP3    H153829   3.313   4.676   6.443  0.1776 -1.8413 -0.3714
 9878TIP3    H253830   3.205   4.685   6.549  0.4037  2.2374 -0.3208
 9879TIP3   OH253831   0.805   5.858   7.690  0.3646  0.2318 -0.0459
 9879TIP3    H153832   0.761   5.785   7.647  1.4103 -1.0762  1.0355
 9879TIP3    H253833   0.736   5.898   7.743  0.0301 -0.6847  0.2374
 9880TIP3   OH253834   6.030   6.404   6.293 -0.6480  0.1934  0.2056
 9880TIP3    H153835   5.992   6.336   6.236 -1.5044  2.5932 -2.3443
 9880TIP3    H253836   5.955   6.458   6.317  0.2593  1.2863  0.6204
 9881TIP3   OH253837   0.647   5.171   9.492  0.4626  0.0875  0.3299
 9881TIP3    H153838   0.676   5.079   9.495 -0.2380 -0.1186  1.6522
 9881TIP3    H253839   0.552   5.166   9.498  0.3488  0.8787 -0.6820
 9882TIP3   OH253840   6.183   1.346   6.627  0.1392 -0.1253 -0.0979
 9882TIP3    H153841   6.190   1.258   6.591  1.8911 -0.6615  1.4096
 9882TIP3    H253842   6.128   1.394   6.564 -1.3750 -2.4222 -0.6342
 9883TIP3   OH253843   0.453   2.808   7.734 -0.6433 -0.4805 -0.2986
 9883TIP3    H153844   0.394   2.874   7.697 -0.2982  0.3000  0.4999
 9883TIP3    H253845   0.532   2.857   7.756 -0.6201 -1.0353  0.9053
 9884TIP3   OH253846   3.291   1.935   9.598  0.4380  0.0257 -0.3044
 9884TIP3    H153847   3.205   1.962   9.566  0.2505 -1.8608 -1.5813
 9884TIP3    H253848   3.282   1.933   9.693 -0.4738  1.1890 -0.3452
 9885TIP3   OH253849   1.919   4.855   8.536  0.2054  0.0757  0.0022
 9885TIP3    H153850   1.981   4.928   8.534  0.6644 -0.1693  2.4187
 9885TIP3    H253851   1.973   4.779   8.556 -0.4577 -0.7410 -1.1838
 9886TIP3   OH253852   0.345   3.620   9.812 -0.0518  0.4792 -0.3533
 9886TIP3    H153853   0.428   3.667   9.816  0.5137 -0.2285 -2.3640
 9886TIP3    H253854   0.368   3.535   9.775 -1.6057  0.0902 -0.4672
 9887TIP3   OH253855   4.904   6.263   6.858 -0.6256  0.0362  0.5289
 9887TIP3    H153856   4.820   6.286   6.819  0.0210  0.4846 -0.6698
 9887TIP3    H253857   4.909   6.168   6.850  0.0658  0.2079 -1.8184
 9888TIP3   OH253858   2.828   1.018   7.528  0.2201 -0.2766 -0.3597
 9888TIP3    H153859   2.886   1.093   7.542 -0.6194  0.4622 -0.6906
 9888TIP3    H253860   2.818   1.013   7.433 -0.5531 -0.1371 -0.2954
 9889TIP3   OH253861   0.073   0.069   6.232  0.1242 -0.0459 -0.2387
 9889TIP3    H153862   0.035  -0.015   6.257 -0.4335 -0.1940 -1.4801
 9889TIP3    H253863   0.054   0.076   6.138  1.9288  0.5316 -0.6050
 9890TIP3   OH253864   3.843   5.395   7.492 -0.1079  0.6934 -0.4190
 9890TIP3    H153865   3.776   5.463   7.501  0.1310  0.8284  0.4593
 9890TIP3    H253866   3.922   5.443   7.466 -0.4223  0.4914 -1.8001
 9891TIP3   OH253867   5.846   2.414   7.464 -0.1251 -0.1884  0.4746
 9891TIP3    H153868   5.938   2.432   7.447 -0.2213 -0.8278 -0.8726
 9891TIP3    H253869   5.806   2.412   7.377 -1.1134 -1.4157  0.9232
 9892TIP3   OH253870   5.909   3.849   8.424  0.0012 -0.1322 -0.0067
 9892TIP3    H153871   5.912   3.786   8.352 -1.3728  0.5584 -0.7096
 9892TIP3    H253872   5.890   3.796   8.502  0.7534 -0.7959 -0.2689
 9893TIP3   OH253873   4.396   2.243   8.117  0.7102  0.0153  0.3615
 9893TIP3    H153874   4.421   2.150   8.111 -0.3238 -0.2111 -0.8099
 9893TIP3    H253875   4.408   2.264   8.210  0.1913 -1.5322  0.8244
 9894TIP3   OH253876   0.538   3.059   6.688 -0.5149 -0.3605  0.3806
 9894TIP3    H153877   0.532   3.002   6.764 -4.9771 -1.4984 -0.5170
 9894TIP3    H253878   0.473   3.128   6.704 -0.8816 -0.0789 -1.9009
 9895TIP3   OH253879   3.150   3.689   7.139 -0.1679  0.6842  0.0962
 9895TIP3    H153880   3.099   3.646   7.208  0.9009 -0.5171  0.1611
 9895TIP3    H253881   3.187   3.617   7.088  1.1171  1.5396 -0.2101
 9896TIP3   OH253882   4.122   1.826   8.572  0.6002  0.3229  0.2844
 9896TIP3    H153883   4.138   1.736   8.601  0.7515  0.3571  0.3082
 9896TIP3    H253884   4.129   1.878   8.652  0.9446  0.4087  0.1984
 9897TIP3   OH253885   6.521   0.120   8.138  0.1834 -0.0355  0.2163
 9897TIP3    H153886   6.575   0.186   8.095  0.0379 -0.5709 -0.8274
 9897TIP3    H253887   6.447   0.169   8.175  0.3539  0.4512 -0.0842
 9898TIP3   OH253888   2.993   3.524   6.912  0.1051 -0.6061 -0.4524
 9898TIP3    H153889   3.071   3.486   6.953  0.5570 -0.7547 -1.4358
 9898TIP3    H253890   3.026   3.569   6.835 -0.8791 -1.4255 -1.3808
 9899TIP3   OH253891   6.503   5.431   9.103 -0.1967 -0.3658 -0.7301
 9899TIP3    H153892   6.419   5.409   9.062 -0.1664  0.8710 -1.4944
 9899TIP3    H253893   6.487   5.417   9.197 -1.5141  0.5785 -0.7778
 9900TIP3   OH253894   5.103   6.377   8.442  0.0881  0.3298 -0.1704
 9900TIP3    H153895   5.151   6.429   8.378  0.6968  1.3571  1.0755
 9900TIP3    H253896   5.169   6.318   8.479 -0.1319  0.1426 -0.0753
 9901TIP3   OH253897   3.873   5.831   8.680  0.7704  0.9922  0.8854
 9901TIP3    H153898   3.779   5.831   8.698  0.5527  0.8737 -0.1933
 9901TIP3    H253899   3.907   5.906   8.729 -0.2542  2.3917 -0.4537
 9902TIP3   OH253900   4.712   0.027   6.807  0.5597 -0.4794  0.1078
 9902TIP3    H153901   4.693  -0.034   6.879 -0.5988 -0.3260 -0.0461
 9902TIP3    H253902   4.669  -0.011   6.731 -1.3967  1.1895  0.3047
 9903TIP3   OH253903   6.194   2.805   7.286 -0.0126 -0.6523 -0.1227
 9903TIP3    H153904   6.229   2.736   7.343  1.4060  0.2751  0.1710
 9903TIP3    H253905   6.173   2.877   7.345  1.3792  0.2848 -0.7376
 9904TIP3   OH253906   0.875   5.619   8.956 -0.3340 -0.5573  0.1474
 9904TIP3    H153907   0.879   5.525   8.943  0.4973 -0.4701 -0.2623
 9904TIP3    H253908   0.823   5.630   9.036 -1.8041 -1.2732 -0.6725
 9905TIP3   OH253909   2.765   4.016   9.288 -0.3925 -0.1174 -0.4264
 9905TIP3    H153910   2.856   4.036   9.309 -0.7124 -0.1218  1.0394
 9905TIP3    H253911   2.755   4.042   9.196  0.7202  1.1166 -0.2170
 9906TIP3   OH253912   1.869   1.965   6.881 -0.4017  0.0650  0.0395
 9906TIP3    H153913   1.839   1.904   6.813  1.0822 -3.1279  2.0256
 9906TIP3    H253914   1.883   2.048   6.834 -1.3194 -1.4120 -3.1115
 9907TIP3   OH253915   0.848   2.499   7.141 -0.2762  0.3644 -0.0087
 9907TIP3    H153916   0.854   2.513   7.046 -0.4648  0.1471 -0.0530
 9907TIP3    H253917   0.754   2.505   7.160 -0.3840 -0.9376 -0.0487
 9908TIP3   OH253918   2.730   1.058   7.906 -0.2948  0.6488  0.2766
 9908TIP3    H153919   2.758   1.012   7.986  1.9300 -0.1013 -0.8655
 9908TIP3    H253920   2.713   0.989   7.843 -0.9424  1.2817 -0.2614
 9909TIP3   OH253921   1.558   5.002   7.542 -0.2403  0.0360  0.0657
 9909TIP3    H153922   1.644   5.006   7.501  0.2117 -0.4484  0.9274
 9909TIP3    H253923   1.538   4.909   7.547  0.3208 -0.0259  2.0848
 9910TIP3   OH253924   1.228   6.010   8.905  0.8569 -0.3391  0.2598
 9910TIP3    H153925   1.218   6.068   8.980 -1.9452 -1.9233  1.2336
 9910TIP3    H253926   1.243   5.924   8.943  1.1678 -0.8902 -1.0578
 9911TIP3   OH253927   3.828   4.174   8.855  0.1726  0.2818 -0.0113
 9911TIP3    H153928   3.869   4.256   8.828 -0.1551  1.1836  2.0632
 9911TIP3    H253929   3.777   4.196   8.933 -1.2990 -1.5633 -0.3537
 9912TIP3   OH253930   3.383   4.352   9.657 -0.2026  0.0599 -0.1356
 9912TIP3    H153931   3.443   4.281   9.635 -1.6020 -1.4619  0.6777
 9912TIP3    H253932   3.380   4.352   9.753 -0.0965  1.3699 -0.1132
 9913TIP3   OH253933   1.200   6.321   7.969 -0.1948 -0.0886  0.4441
 9913TIP3    H153934   1.113   6.351   7.996 -0.1254  0.0605  0.5014
 9913TIP3    H253935   1.260   6.384   8.009  0.1033 -1.5424  2.4518
 9914TIP3   OH253936   3.888   1.869   7.080 -0.4539 -0.5725 -0.1981
 9914TIP3    H153937   3.922   1.890   6.993 -2.6614 -0.2485 -1.0379
 9914TIP3    H253938   3.809   1.922   7.089  0.1490  0.0322  2.3755
 9915TIP3   OH253939   5.200   4.304   8.661  0.0482  0.0472 -0.2579
 9915TIP3    H153940   5.182   4.290   8.568  0.3958 -1.4403 -0.1339
 9915TIP3    H253941   5.232   4.394   8.667  0.0387  0.1510 -1.5736
 9916TIP3   OH253942   2.914   4.008   6.730 -0.1584  0.3829  0.2095
 9916TIP3    H153943   2.893   4.041   6.817  0.3082  0.1559  0.4105
 9916TIP3    H253944   3.009   4.000   6.730 -0.2236 -0.4661 -0.0170
 9917TIP3   OH253945   5.543   3.662   8.774  0.1533 -0.7644 -0.2000
 9917TIP3    H153946   5.449   3.650   8.762 -0.1946  1.3089  0.1018
 9917TIP3    H253947   5.580   3.574   8.763 -1.9803 -1.9570  1.4921
 9918TIP3   OH253948   3.704   1.204   8.712 -0.0027 -0.4521 -0.5076
 9918TIP3    H153949   3.753   1.198   8.630 -1.0138 -0.2591 -1.1508
 9918TIP3    H253950   3.650   1.125   8.713 -1.8128  0.7098 -1.2811
 9919TIP3   OH253951   4.325   5.144   8.757  0.0981  0.0507  0.9734
 9919TIP3    H153952   4.251   5.096   8.720  0.5488 -0.8010  1.1429
 9919TIP3    H253953   4.343   5.098   8.840  0.6930  0.3637  1.0170
 9920TIP3   OH253954   1.702   5.628   9.046  0.0549 -0.2724 -1.0857
 9920TIP3    H153955   1.692   5.545   9.094 -0.4999 -0.8890 -2.2097
 9920TIP3    H253956   1.616   5.642   9.006 -0.0570  1.2206 -0.3529
 9921TIP3   OH253957   4.280   3.731   9.143  0.3488 -0.2530  0.3560
 9921TIP3    H153958   4.229   3.731   9.062  0.5281 -0.0493  0.2447
 9921TIP3    H253959   4.224   3.684   9.205  0.6645 -1.3768 -0.1691
 9922TIP3   OH253960   4.585   3.209  10.187 -0.0046  0.2012  0.4762
 9922TIP3    H153961   4.566   3.290  10.233  2.3138  0.2855  1.3839
 9922TIP3    H253962   4.659   3.170  10.234 -0.7089 -2.1950 -0.2337
 9923TIP3   OH253963   6.677   2.728   8.059  0.3216 -1.0883 -0.2866
 9923TIP3    H153964   6.732   2.801   8.088  0.4367 -1.7153  1.1716
 9923TIP3    H253965   6.588   2.762   8.063  0.5310 -0.0601 -2.6723
 9924TIP3   OH253966   5.424   0.184   8.416  0.0653 -0.4403 -0.1013
 9924TIP3    H153967   5.510   0.222   8.435 -0.0872 -0.4099  0.5598
 9924TIP3    H253968   5.362   0.255   8.434 -0.1164 -0.5250 -0.3786
 9925TIP3   OH253969   1.787   5.671   7.405  0.4478  0.2488 -0.4484
 9925TIP3    H153970   1.722   5.619   7.454  0.9624 -0.2308 -0.2656
 9925TIP3    H253971   1.871   5.638   7.435  0.7779  0.7580 -0.8101
 9926TIP3   OH253972   2.423   6.360   7.574 -0.0733 -0.1829 -0.2406
 9926TIP3    H153973   2.488   6.305   7.530  2.5474  0.4061  2.5570
 9926TIP3    H253974   2.349   6.301   7.589  1.6511 -2.3177  0.4856
 9927TIP3   OH253975   5.008   3.170   6.720  0.1347 -0.1487  0.2030
 9927TIP3    H153976   4.981   3.260   6.707 -2.0872 -0.7511  0.2371
 9927TIP3    H253977   5.019   3.134   6.632 -1.3825 -0.4918  0.1417
 9928TIP3   OH253978   1.263   0.599   6.386  0.7315  0.0985  0.1336
 9928TIP3    H153979   1.353   0.623   6.411  1.2100  0.5341 -1.8038
 9928TIP3    H253980   1.232   0.675   6.336 -0.3818 -0.4213  0.0168
 9929TIP3   OH253981   5.063   3.732   7.352  0.0097 -0.5099 -0.1195
 9929TIP3    H153982   5.101   3.786   7.283  0.9564 -1.2560 -0.1844
 9929TIP3    H253983   5.135   3.679   7.385 -0.9228 -1.8262 -0.1284
 9930TIP3   OH253984   5.346   6.553   8.522 -0.0501  0.3563  0.2536
 9930TIP3    H153985   5.331   6.541   8.428 -0.6785 -0.9400  0.4853
 9930TIP3    H253986   5.441   6.556   8.531  0.0396 -0.2749 -0.3542
 9931TIP3   OH253987   2.949   1.720   7.592  0.1133 -0.7185  0.2043
 9931TIP3    H153988   2.857   1.746   7.580  0.6156 -0.0691 -3.5272
 9931TIP3    H253989   2.991   1.798   7.627 -0.3359 -0.1606 -0.4667
 9932TIP3   OH253990   2.669   0.872   7.699  0.1849 -0.2070  0.6333
 9932TIP3    H153991   2.698   0.781   7.691 -0.0567 -0.2651  0.3824
 9932TIP3    H253992   2.713   0.917   7.627 -1.1551 -0.5109 -0.4264
 9933TIP3   OH253993   1.351   2.511   8.999 -0.0239  0.3495 -0.4936
 9933TIP3    H153994   1.370   2.547   9.085  0.3588  2.2211 -1.3175
 9933TIP3    H253995   1.260   2.483   9.004 -0.1422  0.8512  0.3752
 9934TIP3   OH253996   1.965   6.183   8.055 -0.0521  0.3666  0.1118
 9934TIP3    H153997   2.024   6.167   7.982  0.1872  4.9207 -0.9717
 9934TIP3    H253998   1.890   6.125   8.039  0.8260 -0.1305 -2.6566
 9935TIP3   OH253999   5.077   1.561   6.737  0.0514 -0.1529  0.1113
 9935TIP3    H154000   5.022   1.625   6.693  1.4041  0.3660 -0.8698
 9935TIP3    H254001   5.017   1.490   6.760 -1.2315  0.8942  0.1094
 9936TIP3   OH254002   2.137   2.060   6.880  0.5446 -0.6683  0.8331
 9936TIP3    H154003   2.055   2.068   6.930 -0.3543 -1.8152 -0.3704
 9936TIP3    H254004   2.139   2.139   6.825  0.8059 -0.1149  1.6187
 9937TIP3   OH254005   0.061   3.502  10.707  0.3837 -0.0396 -0.4157
 9937TIP3    H154006  -0.003   3.477  10.774 -0.2148  1.5073 -0.3637
 9937TIP3    H254007   0.077   3.595  10.723 -0.4509  0.6225 -2.9527
 9938TIP3   OH254008   5.204   5.154   7.264 -0.1487  0.2936  0.0943
 9938TIP3    H154009   5.134   5.182   7.323 -1.3522 -0.2281 -1.0291
 9938TIP3    H254010   5.161   5.095   7.202  1.5573 -1.0329  0.1146
 9939TIP3   OH254011   1.482   0.522   8.923 -0.0327 -0.0696  0.3024
 9939TIP3    H154012   1.483   0.614   8.951 -0.1014 -0.1653  0.6213
 9939TIP3    H254013   1.479   0.526   8.828  1.4076  0.2794  0.2379
 9940TIP3   OH254014   1.835   3.476   9.429  0.5769  0.3959 -0.0738
 9940TIP3    H154015   1.871   3.399   9.386  0.5278  1.1296 -1.5023
 9940TIP3    H254016   1.909   3.535   9.439  1.5019 -1.1562  4.4682
 9941TIP3   OH254017   6.465   0.019   9.348  0.1185  0.3157  0.3493
 9941TIP3    H154018   6.519  -0.055   9.320  0.4381  0.3317  0.9130
 9941TIP3    H254019   6.474   0.021   9.444 -2.7918 -1.1945  0.7781
 9942TIP3   OH254020   0.196   4.254   7.725 -0.0819 -0.1411  0.7221
 9942TIP3    H154021   0.245   4.172   7.732  0.4468  0.2473  1.8447
 9942TIP3    H254022   0.235   4.300   7.651 -0.7249 -1.1080 -0.2481
 9943TIP3   OH254023   3.827   3.933   7.733 -0.0593  0.2487  0.2345
 9943TIP3    H154024   3.771   3.897   7.664  0.8443 -1.8719  0.5425
 9943TIP3    H254025   3.909   3.954   7.689 -0.2277  1.0475  0.2700
 9944TIP3   OH254026   0.463   2.808   8.751  0.2262  0.4394  0.7961
 9944TIP3    H154027   0.497   2.883   8.701 -0.5135 -0.2026 -0.6983
 9944TIP3    H254028   0.412   2.758   8.688 -1.0328 -0.2167  2.2973
 9945TIP3   OH254029   0.343   0.920   6.387  0.1627  0.0540  0.1199
 9945TIP3    H154030   0.303   0.904   6.302  1.0238  0.4864 -0.3764
 9945TIP3    H254031   0.394   0.842   6.406  0.7732  0.3581 -0.2338
 9946TIP3   OH254032   0.043   3.178  10.221 -0.1694 -0.5196 -0.0387
 9946TIP3    H154033  -0.014   3.214  10.290 -0.3191 -1.2098  0.2091
 9946TIP3    H254034  -0.009   3.108  10.182 -0.0605 -0.1687 -0.8280
 9947TIP3   OH254035   1.899   0.050   7.011 -0.0550 -0.1550  0.3792
 9947TIP3    H154036   1.953   0.102   7.070  0.8158  0.6680 -1.0808
 9947TIP3    H254037   1.897  -0.037   7.051 -0.8987  0.7479  2.4641
 9948TIP3   OH254038   4.942   0.766   7.329 -0.0912  0.0431 -0.0618
 9948TIP3    H154039   4.900   0.695   7.281  0.2739 -0.0246 -0.2793
 9948TIP3    H254040   5.033   0.764   7.301  0.3114 -0.5175  1.2471
 9949TIP3   OH254041   2.017   4.699   6.561 -0.0791  0.0439 -0.6437
 9949TIP3    H154042   2.112   4.685   6.556 -0.1582 -0.1731 -1.7912
 9949TIP3    H254043   1.979   4.614   6.542 -0.5224 -0.2257  1.2764
 9950TIP3   OH254044   5.560   1.663   7.786 -0.3652  0.2774  0.1605
 9950TIP3    H154045   5.533   1.598   7.721 -0.0956  0.1103  0.2168
 9950TIP3    H254046   5.478   1.703   7.814 -0.5821 -0.4157  0.5314
 9951TIP3   OH254047   2.360   0.685   7.073 -0.2148 -0.0977  0.3364
 9951TIP3    H154048   2.450   0.663   7.051  0.0979 -1.6944  2.8172
 9951TIP3    H254049   2.343   0.637   7.154 -1.5184  4.3643  3.0390
 9952TIP3   OH254050   2.468   1.193   8.751 -0.2396 -0.4859  0.0595
 9952TIP3    H154051   2.472   1.263   8.816 -0.8307 -0.1634 -0.2408
 9952TIP3    H254052   2.538   1.214   8.689  0.5577 -0.9872  0.7617
 9953TIP3   OH254053   1.230   1.794   9.163 -0.0591 -0.3667  0.5637
 9953TIP3    H154054   1.179   1.755   9.092  0.1125  0.3209  0.0579
 9953TIP3    H254055   1.320   1.793   9.131 -0.0466  0.4070  0.5678
 9954TIP3   OH254056   4.364   2.819   6.760  0.1393 -0.1093 -0.1831
 9954TIP3    H154057   4.362   2.784   6.850 -1.0568 -0.8611 -0.4751
 9954TIP3    H254058   4.456   2.837   6.744  0.8777 -3.1203  0.0436
 9955TIP3   OH254059   2.356   4.823   6.571 -0.5798  0.7586  0.0106
 9955TIP3    H154060   2.449   4.833   6.590 -0.7508  1.0704  0.7170
 9955TIP3    H254061   2.349   4.739   6.525  0.0697  0.8275 -0.2186
 9956TIP3   OH254062   1.709   2.649   7.028 -0.5720  0.9713  0.8771
 9956TIP3    H154063   1.646   2.585   7.061 -0.0191 -0.3351 -0.4199
 9956TIP3    H254064   1.775   2.656   7.097 -0.8050  0.3443  1.1713
 9957TIP3   OH254065   1.263   3.093   9.909 -0.5971 -0.3753 -0.5487
 9957TIP3    H154066   1.169   3.110   9.900 -1.0396 -1.7252  0.9769
 9957TIP3    H254067   1.305   3.170   9.872 -2.3191  0.7488 -0.2726
 9958TIP3   OH254068   2.182   2.629   8.191  0.4138  0.4137 -0.0401
 9958TIP3    H154069   2.088   2.644   8.193  0.4122  0.3768  0.4666
 9958TIP3    H254070   2.193   2.540   8.223  0.6855  0.8205  1.0719
 9959TIP3   OH254071   0.450   2.704   7.996 -0.1328 -0.3152  0.0458
 9959TIP3    H154072   0.512   2.652   7.945 -0.1246  0.8489 -1.1796
 9959TIP3    H254073   0.412   2.765   7.933 -1.0577  0.3343  1.1892
 9960TIP3   OH254074   1.529   3.791   6.604  0.0859 -0.3108 -0.2208
 9960TIP3    H154075   1.443   3.755   6.624 -0.6786  1.3046 -0.4132
 9960TIP3    H254076   1.548   3.760   6.516 -0.0464 -1.1262  0.0328
 9961TIP3   OH254077   3.702   3.244   8.842  0.2842  0.2641  0.2741
 9961TIP3    H154078   3.638   3.226   8.772  0.0162  0.4224  0.4779
 9961TIP3    H254079   3.713   3.339   8.841  0.3000  0.2639  0.4293
 9962TIP3   OH254080   1.772   1.555  10.160 -0.3803  0.2679  0.0682
 9962TIP3    H154081   1.700   1.503  10.194 -1.8876  1.2494 -1.4796
 9962TIP3    H254082   1.731   1.633  10.124  1.5484  1.2612 -0.1216
 9963TIP3   OH254083   1.242   4.497   9.968  0.5902 -0.1871  0.0152
 9963TIP3    H154084   1.313   4.556   9.942  0.3113 -0.1340 -0.6380
 9963TIP3    H254085   1.286   4.415   9.990  0.7699 -0.5416 -1.5480
 9964TIP3   OH254086   5.832   2.590   8.860 -0.0616 -0.6158  0.5425
 9964TIP3    H154087   5.910   2.535   8.853 -0.2782 -0.7724 -1.1480
 9964TIP3    H254088   5.797   2.571   8.947  0.7518 -1.9460  0.6122
 9965TIP3   OH254089   1.083   2.893   8.510  0.3416  0.1487  0.1389
 9965TIP3    H154090   1.157   2.899   8.570 -0.2244  0.0751  0.8619
 9965TIP3    H254091   1.010   2.929   8.559 -0.2083 -0.2218 -0.3914
 9966TIP3   OH254092   4.697   0.614   7.681 -0.5886  0.8634 -0.2711
 9966TIP3    H154093   4.689   0.519   7.685 -2.1693  1.0065  0.8748
 9966TIP3    H254094   4.754   0.636   7.754  0.7282  0.7461 -1.2242
 9967TIP3   OH254095   2.266   2.114   6.323 -0.2792  0.4746 -0.0568
 9967TIP3    H154096   2.239   2.198   6.359 -2.4554 -0.6592  1.1159
 9967TIP3    H254097   2.360   2.109   6.342 -0.3424  2.1097  0.8951
 9968TIP3   OH254098   6.569   3.881   9.004  0.2216 -0.1802  0.6876
 9968TIP3    H154099   6.565   3.797   9.049 -0.4535  0.4870  1.9178
 9968TIP3    H254100   6.515   3.939   9.057 -1.5956  0.3811 -1.5924
 9969TIP3   OH254101   2.157   5.870   6.447  0.1620  0.2236 -0.5307
 9969TIP3    H154102   2.243   5.867   6.404  0.2539  0.2597 -0.3502
 9969TIP3    H254103   2.148   5.960   6.477  0.4191  0.0175  0.1762
 9970TIP3   OH254104   3.606   2.295   8.106  0.1485 -0.3622  0.4386
 9970TIP3    H154105   3.609   2.359   8.035  2.4045 -0.6471  0.2221
 9970TIP3    H254106   3.674   2.322   8.167 -0.4318 -1.2416  1.5249
 9971TIP3   OH254107   0.856   5.855   7.315 -0.5577 -0.0632  0.1156
 9971TIP3    H154108   0.768   5.891   7.305 -0.3874  0.1131 -0.8647
 9971TIP3    H254109   0.846   5.786   7.380 -1.3557  0.1855  0.2679
 9972TIP3   OH254110   2.401   4.072   8.833 -0.5293  0.2302  0.0879
 9972TIP3    H154111   2.431   4.046   8.746  2.1482 -1.7152  1.4486
 9972TIP3    H254112   2.368   4.161   8.822 -0.2160  0.0529 -2.8737
 9973TIP3   OH254113   1.554   3.129  10.089 -0.0488 -0.1419 -0.2829
 9973TIP3    H154114   1.601   3.117  10.171  0.1034  0.7947 -0.2205
 9973TIP3    H254115   1.531   3.221  10.088  1.4833  0.2921 -2.0798
 9974TIP3   OH254116   0.921   1.644   8.486  0.3868  0.5275 -0.1087
 9974TIP3    H154117   0.901   1.592   8.408  2.0295 -0.4956  0.0880
 9974TIP3    H254118   1.017   1.649   8.486  0.3787  1.0081  1.5184
 9975TIP3   OH254119   6.293   2.946   6.664 -0.8418  0.4773  0.5886
 9975TIP3    H154120   6.336   3.002   6.729  0.5198  0.3635 -0.1768
 9975TIP3    H254121   6.341   2.964   6.582 -0.9935 -1.1123  0.1267
 9976TIP3   OH254122   1.391   4.631   7.795  0.2067 -0.2980  0.0939
 9976TIP3    H154123   1.449   4.701   7.825 -1.7483  1.0837  0.9230
 9976TIP3    H254124   1.404   4.561   7.859  0.4846  0.2504  0.6583
 9977TIP3   OH254125   1.496   4.817   6.611 -0.1684 -0.0575 -0.1725
 9977TIP3    H154126   1.537   4.731   6.599  0.9464  0.6782 -1.9675
 9977TIP3    H254127   1.404   4.803   6.591 -0.3086 -1.1136  1.0248
 9978TIP3   OH254128   4.192   5.940   8.069  0.1866  0.4652 -0.6566
 9978TIP3    H154129   4.235   5.856   8.084  0.0908  0.4657 -0.3694
 9978TIP3    H254130   4.137   5.925   7.992 -2.7794 -0.8969  1.5359
 9979TIP3   OH254131   0.743   3.523   8.420  0.2270  0.2993  0.0393
 9979TIP3    H154132   0.746   3.563   8.334  0.8317  0.5479  0.1717
 9979TIP3    H254133   0.652   3.533   8.448  0.1164  0.5583 -0.4099
 9980TIP3   OH254134   3.038   2.792   8.393  0.8143 -0.0671  0.3679
 9980TIP3    H154135   3.106   2.748   8.444  1.7077 -0.2008 -0.8920
 9980TIP3    H254136   3.032   2.879   8.430  0.9679 -0.3780  1.1327
 9981TIP3   OH254137   0.160   5.443   8.945 -0.6070  0.7602 -0.2838
 9981TIP3    H154138   0.120   5.461   8.860 -0.0776  1.8345 -0.3275
 9981TIP3    H254139   0.254   5.444   8.927 -0.5194 -0.1772  0.1008
 9982TIP3   OH254140   5.538   6.455   6.526  0.0606 -0.5554  0.1419
 9982TIP3    H154141   5.461   6.449   6.583 -0.2834 -0.3934 -0.2967
 9982TIP3    H254142   5.597   6.516   6.571 -0.3154 -0.2334  0.2045
 9983TIP3   OH254143   0.674   0.574   8.972 -0.1559  0.1619 -0.6115
 9983TIP3    H154144   0.671   0.506   9.039  0.1041  1.2406  0.5214
 9983TIP3    H254145   0.731   0.538   8.904  1.0734 -0.2304  0.5793
 9984TIP3   OH254146   6.314   0.581   7.319  0.3889  0.3601 -0.6181
 9984TIP3    H154147   6.314   0.658   7.261 -1.5464  1.3293  0.5656
 9984TIP3    H254148   6.394   0.590   7.371  0.2633  1.5187 -0.5982
 9985TIP3   OH254149   6.218   5.830   8.127  0.0850 -0.1323  0.3208
 9985TIP3    H154150   6.145   5.799   8.181  0.7597 -1.7124  0.3930
 9985TIP3    H254151   6.202   5.791   8.041  0.0505  0.7660 -0.0824
 9986TIP3   OH254152   0.202   1.345   6.872  1.3977 -0.7144  0.5414
 9986TIP3    H154153   0.291   1.346   6.837  1.0903 -0.8508 -0.2509
 9986TIP3    H254154   0.145   1.353   6.796  0.7277 -0.4098  1.0574
 9987TIP3   OH254155   2.523   2.298   6.922  0.6634 -0.3841 -0.2265
 9987TIP3    H154156   2.537   2.211   6.958  1.0737 -0.4248 -0.4899
 9987TIP3    H254157   2.602   2.347   6.944  0.8343 -0.3503 -0.8899
 9988TIP3   OH254158   5.113   5.538   9.814 -0.3535 -0.1435  0.2944
 9988TIP3    H154159   5.019   5.533   9.832 -0.5045 -0.4705 -0.5678
 9988TIP3    H254160   5.121   5.594   9.737  0.2182  0.4610  0.7779
 9989TIP3   OH254161   2.626   5.776   7.044 -0.2001  0.2099 -0.0280
 9989TIP3    H154162   2.688   5.704   7.035  0.0426 -0.2624  3.6081
 9989TIP3    H254163   2.658   5.844   6.985  1.2690 -1.5592 -1.3682
 9990TIP3   OH254164   6.212   5.708   9.000  0.1322  0.1619  0.6498
 9990TIP3    H154165   6.279   5.736   9.063 -1.1613  1.2030  1.5963
 9990TIP3    H254166   6.240   5.749   8.918  0.1620  1.4106  1.2474
 9991TIP3   OH254167   0.394   3.029   7.145  0.1082 -0.5915 -0.3049
 9991TIP3    H154168   0.313   3.068   7.179  0.0937  1.8363 -2.7250
 9991TIP3    H254169   0.460   3.097   7.158  0.4064 -0.1206 -3.5311
 9992TIP3   OH254170   4.461   3.756   7.931 -0.0002 -0.7417  0.5301
 9992TIP3    H154171   4.505   3.785   8.011  0.7129 -2.6226  0.8677
 9992TIP3    H254172   4.377   3.803   7.931  0.9524  1.0509  1.1391
 9993TIP3   OH254173   5.477   0.923   7.319  0.1646  0.2966  0.6991
 9993TIP3    H154174   5.454   1.014   7.305  1.7585  0.7415  0.7703
 9993TIP3    H254175   5.491   0.888   7.231 -0.1660  0.1916  0.6864
 9994TIP3   OH254176   2.403   5.928   7.051  0.1181  0.2371 -0.5026
 9994TIP3    H154177   2.421   6.019   7.027  1.6844  0.0196 -0.2568
 9994TIP3    H254178   2.480   5.880   7.021 -0.1730 -0.8327  0.3935
 9995TIP3   OH254179   3.710   4.650   9.768 -0.1565  0.2728  0.4592
 9995TIP3    H154180   3.619   4.676   9.781  0.0733  1.6615 -0.4825
 9995TIP3    H254181   3.760   4.707   9.827  0.1356 -0.2925  0.7666
 9996TIP3   OH254182   4.786   3.093   9.158 -0.0922 -0.3638  0.3000
 9996TIP3    H154183   4.775   2.998   9.166 -0.0098 -0.3866  0.1311
 9996TIP3    H254184   4.761   3.113   9.068  2.0363 -0.5375 -0.3910
 9997TIP3   OH254185   1.811   6.513   6.757  0.0815 -0.2375 -0.3834
 9997TIP3    H154186   1.790   6.605   6.743  0.0735 -0.4436 -1.8490
 9997TIP3    H254187   1.777   6.468   6.680  0.6415 -1.3906  0.0151
 9998TIP3   OH254188   2.156   1.343   8.888  0.0400 -0.2285  0.2912
 9998TIP3    H154189   2.209   1.276   8.930  0.8619 -0.0020 -0.3641
 9998TIP3    H254190   2.215   1.417   8.876  0.5078 -0.9597 -3.0764
 9999TIP3   OH254191   4.380   1.151   8.682 -0.5209 -0.0814  0.5558
 9999TIP3    H154192   4.365   1.087   8.752 -0.1026 -0.8158 -0.0172
 9999TIP3    H254193   4.370   1.102   8.601 -0.1435  0.5651  0.1015
10000TIP3   OH254194   2.148   4.832   7.773 -0.5167  0.0069 -0.0395
10000TIP3    H154195   2.157   4.780   7.853  0.5009 -0.4484 -0.4249
10000TIP3    H254196   2.172   4.921   7.798 -2.6198  0.4044  0.7107
10001TIP3   OH254197   6.420   6.314   8.633  0.4088  0.2837 -0.5366
10001TIP3    H154198   6.383   6.380   8.575  2.1837  0.3802 -1.6360
10001TIP3    H254199   6.514   6.319   8.618  0.8940 -0.0832  1.9815
10002TIP3   OH254200   3.927   6.250   9.164 -0.2441  0.0231  0.1452
10002TIP3    H154201   4.009   6.228   9.120 -0.3045 -0.8408  0.4508
10002TIP3    H254202   3.895   6.327   9.118  1.6792  1.5424  1.1863
10003TIP3   OH254203   5.815   3.105   8.520  0.1636  0.0672 -0.4361
10003TIP3    H154204   5.755   3.120   8.593 -0.9837 -0.5590 -1.2299
10003TIP3    H254205   5.902   3.122   8.557 -0.2460 -1.6194  1.4897
10004TIP3   OH254206   0.115   6.173   8.342 -0.6517  0.3190 -0.7150
10004TIP3    H154207   0.056   6.097   8.338 -0.7439  0.4130 -1.2125
10004TIP3    H254208   0.202   6.137   8.323 -0.8076  0.4531 -1.7439
10005TIP3   OH254209   4.042   6.406   8.690 -0.2608 -0.0377  0.0095
10005TIP3    H154210   4.032   6.312   8.701  0.2666 -0.0210  0.6966
10005TIP3    H254211   4.115   6.415   8.628  0.3432 -0.0818  0.6975
10006TIP3   OH254212   0.487   1.332   9.106  0.1076  0.6039 -0.7211
10006TIP3    H154213   0.566   1.346   9.054  0.9341 -0.5779  0.1609
10006TIP3    H254214   0.518   1.320   9.195 -1.0252 -0.3308 -0.4203
10007TIP3   OH254215   5.561   3.316   7.823  0.4723 -0.0945 -0.5194
10007TIP3    H154216   5.482   3.262   7.824  0.3372  0.1079  0.2882
10007TIP3    H254217   5.630   3.258   7.854  0.6477 -0.2645 -1.2028
10008TIP3   OH254218   0.815   0.554   6.483 -0.4108 -0.0409 -0.7727
10008TIP3    H154219   0.797   0.465   6.453  0.0700 -0.6520  0.6538
10008TIP3    H254220   0.910   0.557   6.495 -0.5130  0.3646  0.0492
10009TIP3   OH254221   3.932   5.310   9.182  0.0518 -0.1447 -0.7235
10009TIP3    H154222   3.879   5.345   9.253 -1.1630 -0.7952 -1.2779
10009TIP3    H254223   3.927   5.376   9.113  0.8040  0.2482 -0.4158
10010TIP3   OH254224   3.523   2.031   9.794 -0.1824  0.7795  0.3868
10010TIP3    H154225   3.525   2.122   9.764  0.5132  0.8864  0.7288
10010TIP3    H254226   3.434   2.018   9.827  0.2294  1.9421  2.1192
10011TIP3   OH254227   4.903   1.724   7.848 -0.3950  0.3394  0.7563
10011TIP3    H154228   4.809   1.744   7.848 -0.9807 -1.9906 -1.0824
10011TIP3    H254229   4.930   1.741   7.758  1.0150  1.0619  1.2945
10012TIP3   OH254230   1.973   5.733   6.628  0.3817  0.5971 -0.1438
10012TIP3    H154231   1.926   5.798   6.680  0.4198 -0.3494  1.1189
10012TIP3    H254232   2.014   5.783   6.558  1.4784  2.1187  1.5305
10013TIP3   OH254233   5.939   1.120   9.515  0.6546  0.3809  0.1632
10013TIP3    H154234   5.879   1.150   9.447  2.4727  0.3297 -1.5449
10013TIP3    H254235   5.925   1.026   9.519  2.4493 -0.0744 -2.2178
10014TIP3   OH254236   4.667   2.807   6.450  0.1247  0.5665 -0.0514
10014TIP3    H154237   4.701   2.730   6.496 -0.4093  0.3898  0.0561
10014TIP3    H254238   4.745   2.857   6.425  0.5639 -0.6549 -1.2669
10015TIP3   OH254239   0.289   4.738   7.373 -0.1349 -0.4853 -0.3087
10015TIP3    H154240   0.195   4.730   7.388  0.0526 -1.2022  0.5571
10015TIP3    H254241   0.308   4.675   7.303 -0.1717 -0.9418  0.0875
10016TIP3   OH254242   3.461   5.284   7.013 -0.0961 -0.2964 -0.0094
10016TIP3    H154243   3.469   5.331   7.096 -0.8659 -0.8124  0.3676
10016TIP3    H254244   3.459   5.354   6.947 -0.3271  0.1648  0.4718
10017TIP3   OH254245   4.989   4.355   6.427 -0.0785 -0.5301 -0.0503
10017TIP3    H154246   5.013   4.419   6.494  0.0722  1.6903 -2.0927
10017TIP3    H254247   4.894   4.354   6.427 -0.0813 -0.9649  0.5394
10018TIP3   OH254248   6.027   2.477   8.581 -0.4561 -0.5976 -0.1919
10018TIP3    H154249   6.040   2.412   8.650  0.6131 -0.8708 -0.6283
10018TIP3    H254250   6.074   2.555   8.612 -0.3820 -0.5634 -0.3890
10019TIP3   OH254251   4.397   5.789   8.727 -0.8389  0.1247 -0.4831
10019TIP3    H154252   4.305   5.774   8.749  0.2388 -3.6017  2.4314
10019TIP3    H254253   4.415   5.877   8.760 -2.9761  0.3516  0.2391
10020TIP3   OH254254   2.972   0.628   6.740  0.1792  0.2001 -0.0282
10020TIP3    H154255   2.981   0.550   6.686  1.4711  1.8873 -2.4167
10020TIP3    H254256   3.060   0.664   6.745 -0.1756  0.8923  2.0751
10021TIP3   OH254257   5.864   1.729   7.247 -0.2966  0.5816 -0.3133
10021TIP3    H154258   5.929   1.658   7.249 -0.9462 -0.0750 -1.5154
10021TIP3    H254259   5.910   1.804   7.285  0.0704 -0.7306  2.0692
10022TIP3   OH254260   3.624   2.816   7.770  0.0930 -0.3537  0.1228
10022TIP3    H154261   3.565   2.751   7.808 -1.5547  1.4347  0.7903
10022TIP3    H254262   3.575   2.854   7.698  0.3156  1.3211  0.8109
10023TIP3   OH254263   2.618   1.060   8.259 -0.4009 -0.1756 -0.2304
10023TIP3    H154264   2.539   1.041   8.207 -0.3997  0.1196 -0.3405
10023TIP3    H254265   2.690   1.032   8.202 -0.4674 -2.2816  0.6252
10024TIP3   OH254266   1.642   5.872   7.615 -0.2166 -0.0939 -0.0204
10024TIP3    H154267   1.731   5.885   7.581  0.3397 -0.3151  1.3180
10024TIP3    H254268   1.636   5.778   7.632 -1.1136 -0.2667 -1.1301
10025TIP3   OH254269   0.518   1.753   8.283  0.0624 -0.0264 -0.1662
10025TIP3    H154270   0.475   1.682   8.237  2.1957 -2.4355  1.2865
10025TIP3    H254271   0.448   1.799   8.329 -1.2399 -2.0750 -0.0211
10026TIP3   OH254272   3.895   4.850   9.457 -0.0267 -0.5097  0.0088
10026TIP3    H154273   3.907   4.781   9.392 -0.1335 -0.8866  0.3814
10026TIP3    H254274   3.919   4.809   9.540  0.2662  0.0170  0.1841
10027TIP3   OH254275   1.676   3.637   6.387 -0.7890 -0.0676  0.3295
10027TIP3    H154276   1.763   3.649   6.349 -1.6735  2.0371 -1.2339
10027TIP3    H254277   1.671   3.543   6.405  0.7475 -0.7526 -2.2808
10028TIP3   OH254278   3.552   1.315   6.796 -0.1381 -0.2348 -0.3058
10028TIP3    H154279   3.503   1.295   6.876  0.7612  0.8082  0.5549
10028TIP3    H254280   3.557   1.411   6.795  0.9007 -0.2786 -0.9496
10029TIP3   OH254281   1.261   5.042   9.020  0.0220 -0.0622  0.4370
10029TIP3    H154282   1.185   5.062   8.966  1.3003 -0.0619 -1.4746
10029TIP3    H254283   1.240   5.079   9.106 -0.9239  2.6851 -0.8403
10030TIP3   OH254284   4.821   2.058   7.861  0.1978  0.6799 -0.1406
10030TIP3    H154285   4.788   1.998   7.928  0.6857  0.2785 -0.2601
10030TIP3    H254286   4.757   2.052   7.790 -0.1967  0.9316  0.1896
10031TIP3   OH254287   6.030   1.861   7.976 -0.6692 -0.4962 -0.2930
10031TIP3    H154288   5.991   1.885   7.892  1.2744  2.5698 -0.4754
10031TIP3    H254289   5.963   1.884   8.041 -1.2088 -0.4870 -0.8422
10032TIP3   OH254290   0.364   4.967   9.116 -0.4901  0.0819  0.0278
10032TIP3    H154291   0.269   4.955   9.113 -0.4453 -0.2983  0.1138
10032TIP3    H254292   0.400   4.878   9.115 -0.1254  0.2246 -0.3523
10033TIP3   OH254293   3.000   4.421   8.558 -0.2808 -0.0435  0.0398
10033TIP3    H154294   3.019   4.451   8.469 -0.6006  0.5351  0.1616
10033TIP3    H254295   2.938   4.486   8.592 -2.1509 -1.6139 -0.1892
10034TIP3   OH254296   4.917   3.381   9.407  0.1779 -0.8738 -1.0236
10034TIP3    H154297   4.959   3.466   9.417 -2.1464  0.2297  0.0428
10034TIP3    H254298   4.934   3.335   9.489  0.2859 -0.9119 -1.0665
10035TIP3   OH254299   3.143   5.881   8.762  0.2209 -0.2601 -0.4543
10035TIP3    H154300   3.053   5.855   8.745  0.3504 -1.7387  0.9053
10035TIP3    H254301   3.140   5.977   8.768 -1.2442 -0.2910 -0.4779
10036TIP3   OH254302   4.607   5.862   7.432 -0.0093  0.3779 -0.1677
10036TIP3    H154303   4.640   5.795   7.492 -0.0988 -0.1927 -0.7470
10036TIP3    H254304   4.540   5.908   7.482 -0.2811 -0.2782  0.0846
10037TIP3   OH254305   2.408   5.400   6.413  0.0447  0.0862 -0.3896
10037TIP3    H154306   2.382   5.316   6.375 -0.5622 -0.5739  1.3679
10037TIP3    H254307   2.326   5.437   6.448  0.5931  0.5528  0.4389
10038TIP3   OH254308   4.634   2.882   6.838  0.3218 -0.7327 -0.0317
10038TIP3    H154309   4.641   2.878   6.934 -1.1879 -1.0607  0.0779
10038TIP3    H254310   4.700   2.946   6.812  1.0493 -0.9543  1.1862
10039TIP3   OH254311   1.258   2.633   7.409  1.0682 -0.3613 -0.1300
10039TIP3    H154312   1.184   2.582   7.375  0.6873  0.7190 -0.9937
10039TIP3    H254313   1.244   2.720   7.373  2.7862 -0.1430 -0.3169
10040TIP3   OH254314   2.836   0.967   6.977  0.0323 -0.3808 -0.8767
10040TIP3    H154315   2.757   1.011   7.009 -0.2553 -0.8629 -0.9117
10040TIP3    H254316   2.875   1.029   6.916  0.6484  0.5964  0.4811
10041TIP3   OH254317   1.768   4.578   8.779 -0.3235 -0.4379  0.5016
10041TIP3    H154318   1.853   4.578   8.736  0.3843 -2.2256  1.7683
10041TIP3    H254319   1.763   4.663   8.823  1.7595 -1.0655  2.1073
10042TIP3   OH254320   4.807   2.039   8.351 -0.2191  0.2940  0.4272
10042TIP3    H154321   4.728   1.987   8.365 -0.2975  0.2554 -0.1345
10042TIP3    H254322   4.779   2.129   8.365 -1.3451  0.7138 -3.3762
10043TIP3   OH254323   5.300   6.045   6.886 -0.0701 -0.6646 -0.5269
10043TIP3    H154324   5.261   6.124   6.923  0.4167 -1.4006  1.7388
10043TIP3    H254325   5.271   6.044   6.795 -0.2911  1.9626 -0.5594
10044TIP3   OH254326   3.010   4.771   9.234  0.2104  0.6609  0.3559
10044TIP3    H154327   3.054   4.856   9.230 -1.8090  1.7453  0.3508
10044TIP3    H254328   3.008   4.749   9.327  1.9292 -0.0990  0.2679
10045TIP3   OH254329   1.764   0.944   9.455  0.3286  0.1608 -0.0037
10045TIP3    H154330   1.826   0.983   9.517 -0.9937  1.1710  0.7218
10045TIP3    H254331   1.732   0.866   9.499  0.8965 -0.2448 -0.2907
10046TIP3   OH254332   2.171   0.679   8.224  0.5657 -0.5215  0.1990
10046TIP3    H154333   2.149   0.711   8.137  0.4424  0.6377  0.6411
10046TIP3    H254334   2.214   0.753   8.267 -1.9973 -0.0111  2.1272
10047TIP3   OH254335   4.986   4.896   7.340 -0.0466 -0.0836 -0.1899
10047TIP3    H154336   4.987   4.825   7.276 -0.6393 -1.3042  1.0954
10047TIP3    H254337   4.939   4.967   7.297  1.0506 -0.2380 -1.7140
10048TIP3   OH254338   3.384   0.435   7.404 -0.1240 -0.6095 -0.1221
10048TIP3    H154339   3.338   0.351   7.404  0.6773 -1.0684  0.3308
10048TIP3    H254340   3.356   0.478   7.324  0.0487 -1.6566 -0.7690
10049TIP3   OH254341   3.998   2.570   8.226 -0.6313 -0.3027 -0.1913
10049TIP3    H154342   3.944   2.631   8.276  0.5172 -0.7106  1.6797
10049TIP3    H254343   4.075   2.557   8.282 -0.0047 -2.0157 -1.3995
10050TIP3   OH254344   3.826   1.358   7.448  0.2200 -0.4656  0.1816
10050TIP3    H154345   3.781   1.382   7.367 -0.7730  1.0042  1.1357
10050TIP3    H254346   3.778   1.402   7.518  0.4895 -2.4249  1.7119
10051TIP3   OH254347   3.294   2.597   8.257  0.8816  0.1014 -0.0650
10051TIP3    H154348   3.266   2.519   8.209 -0.8706  0.8219 -0.3028
10051TIP3    H254349   3.314   2.661   8.188  1.1085  0.2567  0.1449
10052TIP3   OH254350   3.220   4.042   6.783 -0.6391  0.1737 -0.1950
10052TIP3    H154351   3.258   3.986   6.851 -1.3400 -0.6553 -0.4734
10052TIP3    H254352   3.294   4.063   6.726 -0.0988  0.6539  0.6487
10053TIP3   OH254353   5.912   5.063   7.377  0.1100 -0.0736 -0.0326
10053TIP3    H154354   5.955   4.979   7.366  1.0908 -0.2727  3.8838
10053TIP3    H254355   5.832   5.043   7.426  0.0202  1.1894  0.3796
10054TIP3   OH254356   4.520   2.437   6.995  0.3740  0.1338 -0.1911
10054TIP3    H154357   4.427   2.449   7.016  0.0961 -2.0203 -0.0305
10054TIP3    H254358   4.565   2.444   7.079  0.1408 -0.5980  0.0010
10055TIP3   OH254359   1.637   3.665   7.845  0.2868  0.5644 -0.4451
10055TIP3    H154360   1.554   3.692   7.806 -0.1009 -0.8303 -0.6334
10055TIP3    H254361   1.646   3.573   7.822  1.4755  0.4685  0.3056
10056TIP3   OH254362   4.075   1.099   6.932  0.1175  0.0997 -0.1803
10056TIP3    H154363   4.117   1.042   6.996  1.2980  0.5973 -0.4732
10056TIP3    H254364   3.981   1.089   6.948  0.2818 -1.9855 -0.2918
10057TIP3   OH254365   2.379   5.522   9.264 -0.2286 -0.4048 -1.1732
10057TIP3    H154366   2.341   5.610   9.269  0.7976  0.0044 -0.2732
10057TIP3    H254367   2.473   5.536   9.254 -0.0606 -1.3993 -1.1346
10058TIP3   OH254368   2.086   1.003   9.264  0.4948 -0.5558  0.1049
10058TIP3    H154369   2.100   0.984   9.357 -0.5799  0.5957  0.5439
10058TIP3    H254370   2.173   1.013   9.227  0.9760 -2.2078  0.7053
10059TIP3   OH254371   3.304   5.401   7.776  0.6034  0.1321  0.7479
10059TIP3    H154372   3.284   5.362   7.862 -1.0993 -2.0859 -0.5404
10059TIP3    H254373   3.227   5.455   7.756  0.1018 -0.8888 -0.1655
10060TIP3   OH254374   4.446   4.279   8.148 -0.5689  0.3074 -0.0006
10060TIP3    H154375   4.455   4.373   8.162  1.4834  0.4144 -1.4809
10060TIP3    H254376   4.427   4.270   8.054 -1.2237 -0.7489  0.2098
10061TIP3   OH254377   3.739   6.084   8.544 -0.3246  0.6667  0.6516
10061TIP3    H154378   3.817   6.078   8.598 -0.3997  0.7031  0.7656
10061TIP3    H254379   3.695   6.164   8.574 -1.6536 -0.5919  2.2593
10062TIP3   OH254380   1.962   2.143  10.178 -0.6639 -0.2182  0.2961
10062TIP3    H154381   2.054   2.130  10.200 -0.5278 -1.0404 -0.6834
10062TIP3    H254382   1.962   2.219  10.119 -0.3063 -1.5190 -1.4780
10063TIP3   OH254383   1.253   2.531  10.742 -0.3716  0.0862  0.1702
10063TIP3    H154384   1.222   2.448  10.706 -1.2537 -0.2312  1.5681
10063TIP3    H254385   1.348   2.518  10.752 -0.4029 -0.5082 -0.2180
10064TIP3   OH254386   2.467   5.204   9.036 -0.2299  0.4215  0.3748
10064TIP3    H154387   2.424   5.287   9.015 -0.1294  0.3449 -0.1554
10064TIP3    H254388   2.555   5.214   9.000 -0.0997  0.2282  0.6406
10065TIP3   OH254389   2.475   1.847   7.622  0.6460 -0.6679 -1.1519
10065TIP3    H154390   2.414   1.870   7.692 -0.1581  0.3509 -2.1397
10065TIP3    H254391   2.434   1.772   7.579  1.8636 -2.2512  0.3180
10066TIP3   OH254392   3.197   2.474   7.456 -0.3191 -0.1181  0.3851
10066TIP3    H154393   3.113   2.484   7.410  0.8491  2.1682 -1.5114
10066TIP3    H254394   3.244   2.407   7.407  0.0988  0.7878 -0.4829
10067TIP3   OH254395   2.642   5.527   7.296 -0.2685  0.1953 -0.1596
10067TIP3    H154396   2.552   5.548   7.269  0.1360 -0.6343 -2.3895
10067TIP3    H254397   2.636   5.439   7.333 -0.2279 -0.4119 -1.5230
10068TIP3   OH254398   2.159   0.246   7.858  0.1730  0.2942 -0.5381
10068TIP3    H154399   2.238   0.288   7.891  0.0687  0.2073 -0.1723
10068TIP3    H254400   2.105   0.231   7.936  0.6786 -1.5244 -0.4771
10069TIP3   OH254401   5.455   1.872   7.408  0.1918 -0.2967  0.1818
10069TIP3    H154402   5.528   1.816   7.437 -1.7458 -2.8799  0.4677
10069TIP3    H254403   5.418   1.825   7.333 -1.5088  0.6593  0.3814
10070TIP3   OH254404   2.442   2.693   9.426  0.4978 -0.0404  0.0648
10070TIP3    H154405   2.354   2.723   9.401  0.9783  1.6744  0.2882
10070TIP3    H254406   2.431   2.663   9.516  0.0602 -0.2036 -0.0370
10071TIP3   OH254407   1.678   5.002   8.468 -0.1317  0.5203 -0.7031
10071TIP3    H154408   1.766   4.965   8.473  0.3733  1.6136 -1.1067
10071TIP3    H254409   1.621   4.935   8.506  0.7830 -0.4905 -1.0654
10072TIP3   OH254410   4.403   6.252   6.891 -0.3325 -0.2880 -0.8509
10072TIP3    H154411   4.336   6.286   6.950 -0.4955 -1.1168 -0.5355
10072TIP3    H254412   4.438   6.175   6.937  1.0463  0.2978 -0.8600
10073TIP3   OH254413   4.634   4.328   9.040 -0.1773  0.6704 -0.1036
10073TIP3    H154414   4.568   4.290   8.981  1.3402  0.2948 -1.6390
10073TIP3    H254415   4.616   4.287   9.125  1.6715 -4.2509 -1.6899
10074TIP3   OH254416   0.239   6.694   8.572 -0.0309  0.3832 -0.1656
10074TIP3    H154417   0.248   6.634   8.646  2.3560  0.8068 -0.0088
10074TIP3    H254418   0.245   6.638   8.494 -1.8230  0.0228 -0.0911
10075TIP3   OH254419   4.368   5.744   8.214  0.4593  0.3866 -0.3584
10075TIP3    H154420   4.428   5.685   8.169 -0.2197 -0.5938 -0.0211
10075TIP3    H254421   4.420   5.783   8.284  0.4683 -1.2327  0.5815
10076TIP3   OH254422   6.243   1.082   8.355 -0.6005  0.0231  0.4428
10076TIP3    H154423   6.189   1.004   8.344 -0.9991  0.0500  2.0785
10076TIP3    H254424   6.180   1.153   8.365 -0.2412  0.3875  0.1433
10077TIP3   OH254425   3.860   5.584   8.558 -0.5573  0.6049  0.8277
10077TIP3    H154426   3.794   5.630   8.506  0.9597  0.1630 -1.6157
10077TIP3    H254427   3.904   5.654   8.607  0.0066  1.4678 -0.8565
10078TIP3   OH254428   0.301   3.594   7.797 -0.1026  0.5501  0.0186
10078TIP3    H154429   0.340   3.680   7.782 -2.3958  1.8807  1.1485
10078TIP3    H254430   0.329   3.569   7.885 -0.2672  0.6394  0.0976
10079TIP3   OH254431   5.745   5.396   7.901 -0.5030  0.1636 -0.7195
10079TIP3    H154432   5.680   5.463   7.881 -0.3505  0.6813  0.4251
10079TIP3    H254433   5.697   5.313   7.894 -1.7201  0.6073  1.5416
10080TIP3   OH254434   2.679   2.191   7.214 -0.6144 -0.1038  0.1294
10080TIP3    H154435   2.714   2.211   7.301 -1.5091  0.8338  0.2886
10080TIP3    H254436   2.635   2.271   7.187  0.5976  0.0042 -1.6936
10081TIP3   OH254437   2.033   3.692  10.307 -0.3136 -0.6543 -0.3872
10081TIP3    H154438   2.020   3.618  10.367 -2.2490 -0.4169 -0.4561
10081TIP3    H254439   1.956   3.691  10.251 -1.4821  2.6407  0.9233
10082TIP3   OH254440   0.252   3.263  10.045 -0.2159  0.2151  0.1927
10082TIP3    H154441   0.296   3.328  10.100 -1.2769  0.3311  0.9355
10082TIP3    H254442   0.183   3.227  10.101 -1.5120  0.5329 -1.1287
10083TIP3   OH254443   3.272   1.165   7.844  0.1423 -0.6326  0.2846
10083TIP3    H154444   3.267   1.195   7.934  0.7448  0.0610  0.0928
10083TIP3    H254445   3.183   1.176   7.810  0.4212  1.4478  0.0840
10084TIP3   OH254446   3.922   1.038   8.556  0.1710  0.4212 -0.3217
10084TIP3    H154447   3.917   1.000   8.644 -2.0147  0.4412 -0.3931
10084TIP3    H254448   3.892   0.969   8.498 -1.5724  1.4355 -0.6867
10085TIP3   OH254449   1.045   4.302   9.906  0.1778  0.3901  0.1778
10085TIP3    H154450   1.097   4.379   9.930 -0.2525 -0.1146  3.1287
10085TIP3    H254451   1.110   4.235   9.884  0.5600  1.6695 -3.3227
10086TIP3   OH254452   6.255   0.377   7.634  0.4082  0.2388 -0.3237
10086TIP3    H154453   6.243   0.338   7.720  1.0513  1.1821  0.1982
10086TIP3    H254454   6.318   0.447   7.647  0.0130  0.8273 -1.4400
10087TIP3   OH254455   4.384   0.238   8.508 -0.0171 -0.0716 -0.4035
10087TIP3    H154456   4.450   0.286   8.558 -0.4065  0.5863 -0.5138
10087TIP3    H254457   4.385   0.277   8.421 -1.8898  1.3048  0.1210
10088TIP3   OH254458   0.303   2.668   8.223 -0.2958  0.3170 -0.0101
10088TIP3    H154459   0.306   2.573   8.228 -0.2329  0.3495  0.6164
10088TIP3    H254460   0.358   2.690   8.147 -0.5770 -0.1575 -0.3521
10089TIP3   OH254461   3.359   2.453   9.099 -0.3437  0.7601  0.7492
10089TIP3    H154462   3.410   2.459   9.180 -0.1936  2.7299  0.5420
10089TIP3    H254463   3.349   2.543   9.070 -1.5316  0.1831 -0.7440
10090TIP3   OH254464   6.053   3.585   6.789 -0.0184  0.7752  0.6657
10090TIP3    H154465   6.006   3.585   6.873  0.5307 -2.0129  1.0755
10090TIP3    H254466   6.011   3.516   6.738 -0.2612  2.3550 -1.3627
10091TIP3   OH254467   3.545   3.240   9.079  0.6211 -0.4345  0.0132
10091TIP3    H154468   3.605   3.270   9.011  0.1574  0.6827  0.0813
10091TIP3    H254469   3.587   3.263   9.162  1.0831 -1.5969  0.1208
10092TIP3   OH254470   1.106   3.764   8.158  0.1327 -0.2324  0.1078
10092TIP3    H154471   1.072   3.848   8.191 -0.2660 -0.1138 -0.5948
10092TIP3    H254472   1.108   3.775   8.063  0.3078 -0.9422  0.0279
10093TIP3   OH254473   5.960   3.738  10.812  0.2345 -0.6325 -0.3364
10093TIP3    H154474   5.904   3.797  10.761 -0.1823  0.1608  0.9976
10093TIP3    H254475   6.048   3.776  10.804  0.2614 -0.8066 -0.8837
10094TIP3   OH254476   3.258   1.996   9.882 -0.5587  0.3029 -0.4647
10094TIP3    H154477   3.200   1.970   9.953 -0.5553 -0.3522 -0.6964
10094TIP3    H254478   3.232   2.086   9.862 -0.4107  0.5617  0.4999
10095TIP3   OH254479   2.572   4.276   7.993 -0.3498 -0.4044 -0.4658
10095TIP3    H154480   2.662   4.303   8.011 -0.1885 -1.5612  0.6401
10095TIP3    H254481   2.544   4.331   7.921  0.1653  2.1741  1.1882
10096TIP3   OH254482   6.659   0.322   7.549  0.1775 -0.3569 -0.1296
10096TIP3    H154483   6.688   0.234   7.525  1.4239  0.4422 -1.7769
10096TIP3    H254484   6.643   0.317   7.643 -2.2737 -2.9586 -0.5586
10097TIP3   OH254485   6.196   1.287   6.892 -0.0902 -0.0387 -0.5170
10097TIP3    H154486   6.268   1.228   6.914  1.2968  2.1125  1.0983
10097TIP3    H254487   6.219   1.322   6.806 -0.5346 -1.2559 -1.1399
10098TIP3   OH254488   3.218   5.758   9.370 -0.3496 -0.0839  0.0687
10098TIP3    H154489   3.185   5.790   9.454 -1.6884  0.3307 -0.5860
10098TIP3    H254490   3.276   5.827   9.339  0.0919 -0.2042  0.6109
10099TIP3   OH254491   6.685   3.279   7.013  0.1001 -0.3490  0.4887
10099TIP3    H154492   6.640   3.234   6.941  1.6590  0.9858 -1.4118
10099TIP3    H254493   6.672   3.373   6.995  2.8000  0.0778  0.3518
10100TIP3   OH254494   4.348   1.383   8.823  0.4812 -0.6845  0.2567
10100TIP3    H154495   4.358   1.306   8.767  1.7094 -0.8504  0.6686
10100TIP3    H254496   4.437   1.406   8.848  0.1674  1.1211 -0.1685
10101TIP3   OH254497   6.398   0.949   9.257  0.3326 -0.4989 -0.7470
10101TIP3    H154498   6.337   0.992   9.197 -1.1564  1.2427  1.8028
10101TIP3    H254499   6.443   1.021   9.301  0.5505 -1.6289  0.9648
10102TIP3   OH254500   5.806   1.325   7.133 -0.4493  0.2755 -0.2612
10102TIP3    H154501   5.855   1.256   7.088 -1.6669 -0.0956 -1.0740
10102TIP3    H254502   5.741   1.278   7.184 -0.5101  0.7887  0.1376
10103TIP3   OH254503   4.832   0.549   8.494  0.0125 -0.4241  0.3918
10103TIP3    H154504   4.915   0.586   8.464  0.5648 -0.6631  1.5687
10103TIP3    H254505   4.855   0.499   8.573 -1.2738 -0.3244  0.8540
10104TIP3   OH254506   1.613   2.530   9.752  0.0315 -0.0910 -0.1223
10104TIP3    H154507   1.608   2.457   9.691  0.7534 -0.3463  0.1157
10104TIP3    H254508   1.675   2.591   9.712 -2.1027  1.4084 -1.3553
10105TIP3   OH254509   3.474   1.063   7.700 -0.4411  0.0606  0.0070
10105TIP3    H154510   3.521   1.146   7.696  0.4009 -0.3250  1.2819
10105TIP3    H254511   3.400   1.079   7.759 -0.5626  0.0314 -0.1358
10106TIP3   OH254512   1.396   3.847   9.760  0.1216 -0.6128  0.6021
10106TIP3    H154513   1.465   3.877   9.701 -1.0638  0.0218 -0.5090
10106TIP3    H254514   1.407   3.899   9.839 -0.4735  1.1716 -0.4349
10107TIP3   OH254515   5.469   1.053   8.744 -0.3491  0.3055 -0.2996
10107TIP3    H154516   5.406   1.065   8.815  0.8634 -0.1176  0.8820
10107TIP3    H254517   5.417   1.064   8.664 -1.6401  1.2929  0.6353
10108TIP3   OH254518   4.755   1.811   7.628 -0.3796 -0.2462  0.0518
10108TIP3    H154519   4.669   1.810   7.670  0.9789  1.2106  3.2071
10108TIP3    H254520   4.767   1.902   7.601  1.2382  0.3219  2.3730
10109TIP3   OH254521   3.812   6.236   6.768 -0.4328  0.5597 -0.1578
10109TIP3    H154522   3.794   6.328   6.786 -1.0023  0.0191  2.5258
10109TIP3    H254523   3.765   6.217   6.687  0.8264  2.9078 -1.5434
10110TIP3   OH254524   0.191   3.105   9.363  0.3542 -0.1041 -0.7069
10110TIP3    H154525   0.257   3.154   9.313 -0.2966  0.5958 -0.9130
10110TIP3    H254526   0.240   3.056   9.427  1.1585 -0.4059 -1.5345
10111TIP3   OH254527   5.331   4.816   8.371  0.0258  0.2436  0.5135
10111TIP3    H154528   5.335   4.821   8.466  0.3380  0.2698  0.4993
10111TIP3    H254529   5.266   4.881   8.345 -1.3118 -0.9050  0.8207
10112TIP3   OH254530   5.854   3.724   8.652  0.4203  0.4583  0.0312
10112TIP3    H154531   5.762   3.730   8.678  0.0813  3.9363 -1.4325
10112TIP3    H254532   5.904   3.753   8.728  0.4919 -2.2957  1.1442
10113TIP3   OH254533   3.853   0.824   7.852 -0.0734  0.1882 -0.0754
10113TIP3    H154534   3.844   0.794   7.942 -0.0556  0.1950 -0.0715
10113TIP3    H254535   3.768   0.807   7.812  0.5590 -1.8799 -0.6831
10114TIP3   OH254536   6.093   3.312   8.215  0.4410  0.1048  0.3002
10114TIP3    H154537   6.030   3.246   8.244 -1.0841  1.5197  0.3611
10114TIP3    H254538   6.156   3.319   8.287  0.2843 -0.8307  0.5397
10115TIP3   OH254539   2.087   0.133   7.178 -0.0116  0.1635 -0.3947
10115TIP3    H154540   2.116   0.042   7.188  0.8037  0.3453 -1.0065
10115TIP3    H254541   2.015   0.142   7.240  0.1106 -0.8073 -0.0928
10116TIP3   OH254542   1.550   6.658   9.335 -0.1983  0.5272  0.7296
10116TIP3    H154543   1.553   6.703   9.420  0.1436  1.4298  0.2470
10116TIP3    H254544   1.506   6.719   9.277 -0.0739  0.0754  0.1511
10117TIP3   OH254545   3.782   3.263   6.846 -0.2097  0.5870 -0.7873
10117TIP3    H154546   3.783   3.346   6.799 -0.6555 -0.0103 -1.8661
10117TIP3    H254547   3.790   3.196   6.779  0.7326 -0.2454  0.1136
10118TIP3   OH254548   1.249   4.395   9.351  0.3199 -0.0383  0.4336
10118TIP3    H154549   1.212   4.437   9.273 -0.6079 -0.1636  0.7867
10118TIP3    H254550   1.250   4.464   9.417  1.2281  0.1028  0.2849
10119TIP3   OH254551   2.499   5.022   8.549  0.0502 -0.3820 -0.1234
10119TIP3    H154552   2.411   5.020   8.587 -0.0255 -0.7722 -0.3090
10119TIP3    H254553   2.518   5.115   8.536 -0.3059 -0.2927 -0.0141
10120TIP3   OH254554   3.780   3.017   9.032 -0.2669 -0.1744 -0.5097
10120TIP3    H154555   3.746   3.080   8.968  2.0908  0.6564 -1.0565
10120TIP3    H254556   3.799   3.070   9.109 -3.0322 -1.1627  1.0051
10121TIP3   OH254557   6.711   0.059   8.468 -0.6384 -0.0684 -0.0312
10121TIP3    H154558   6.741   0.083   8.380 -1.3440  1.1704  0.0391
10121TIP3    H254559   6.788   0.023   8.511  0.6393  2.3894 -0.0819
10122TIP3   OH254560   1.290   0.150   7.997 -0.0785 -0.0324 -0.1150
10122TIP3    H154561   1.238   0.230   7.998  0.4047  0.3457 -1.7700
10122TIP3    H254562   1.344   0.156   8.077 -0.8102  0.7528  0.3419
10123TIP3   OH254563   3.227   1.002   7.147 -0.1228  0.2899  0.3116
10123TIP3    H154564   3.233   1.097   7.157 -2.5434  0.4448  0.8990
10123TIP3    H254565   3.180   0.990   7.064 -0.8262 -0.3421  0.7927
10124TIP3   OH254566   2.162   2.540   9.184  0.2974 -0.0852  0.3089
10124TIP3    H154567   2.160   2.558   9.090 -3.3297  0.3717  0.3204
10124TIP3    H254568   2.190   2.623   9.223 -0.9977  0.6765 -0.3078
10125TIP3   OH254569   3.612   6.123   9.123 -0.8670 -0.3064 -0.3311
10125TIP3    H154570   3.676   6.098   9.190 -0.0371 -1.2356 -1.4185
10125TIP3    H254571   3.641   6.077   9.044 -2.0133  0.4766 -1.2492
10126TIP3   OH254572   6.404   4.530   7.001  0.4055 -0.2094 -0.6006
10126TIP3    H154573   6.381   4.478   6.924  1.3691  0.6943 -1.5446
10126TIP3    H254574   6.492   4.499   7.025  0.0865 -0.5244  0.1760
10127TIP3   OH254575   5.940   0.837   7.676 -0.3171  0.6314 -0.0993
10127TIP3    H154576   5.875   0.775   7.708 -0.4934  1.1476  0.5654
10127TIP3    H254577   5.990   0.788   7.610 -0.7653 -0.0563  0.0666
10128TIP3   OH254578   5.862   4.673   6.743 -0.1326 -0.1635 -0.1136
10128TIP3    H154579   5.878   4.766   6.756 -1.5294  0.3812 -1.8351
10128TIP3    H254580   5.949   4.633   6.741  0.5825  1.3549 -0.9811
10129TIP3   OH254581   5.159   2.914   7.714  0.6116 -0.0352  0.4661
10129TIP3    H154582   5.254   2.922   7.720  0.6399  0.9532 -0.8771
10129TIP3    H254583   5.143   2.883   7.625 -0.3100 -0.7488  0.8617
10130TIP3   OH254584   2.174   4.530   7.215  0.6356  0.5333 -0.4377
10130TIP3    H154585   2.248   4.567   7.168  0.9234  0.8771  0.2791
10130TIP3    H254586   2.102   4.592   7.200  0.3523 -0.0146 -1.4876
10131TIP3   OH254587   4.769   4.385   8.389 -0.1579  0.2035 -0.2370
10131TIP3    H154588   4.759   4.455   8.454  0.3801 -0.3461  0.4592
10131TIP3    H254589   4.703   4.320   8.414  0.2640 -0.1541 -0.0278
10132TIP3   OH254590   4.251   1.328   7.975 -0.1204 -0.1715 -0.5102
10132TIP3    H154591   4.234   1.422   7.982 -1.8285 -0.5518  1.6684
10132TIP3    H254592   4.196   1.299   7.903 -0.4387  0.3287 -0.4780
10133TIP3   OH254593   6.450   1.100   7.814  0.3612 -0.0235  0.4301
10133TIP3    H154594   6.400   1.018   7.814 -2.8973  1.6650 -3.0148
10133TIP3    H254595   6.431   1.140   7.898 -1.6997 -0.8480  0.4128
10134TIP3   OH254596   4.750   4.274   6.942 -0.5855  0.4410  0.1123
10134TIP3    H154597   4.782   4.286   6.853 -1.4603  1.5013 -0.0891
10134TIP3    H254598   4.791   4.346   6.992  0.3448 -0.4691  0.7170
10135TIP3   OH254599   3.894   0.087   7.158  0.4620  0.3093  0.3921
10135TIP3    H154600   3.884   0.176   7.123 -1.1224 -0.3227 -0.9113
10135TIP3    H254601   3.975   0.055   7.119  0.0840  0.5509 -0.6217
10136TIP3   OH254602   6.126   6.281   8.319  0.4241 -0.3000 -0.6847
10136TIP3    H154603   6.034   6.255   8.317  0.5860 -1.1163  0.7074
10136TIP3    H254604   6.170   6.209   8.365  1.3153  1.2566  1.0196
10137TIP3   OH254605   5.488   1.437   6.870  0.4526  0.2379  0.1637
10137TIP3    H154606   5.574   1.478   6.864  0.3212  0.5399  0.3329
10137TIP3    H254607   5.426   1.508   6.857  0.1955  0.3749  1.8414
10138TIP3   OH254608   2.842   2.219   6.934  0.0548  0.7370 -0.3240
10138TIP3    H154609   2.912   2.213   6.999  0.3970  0.9448 -0.6690
10138TIP3    H254610   2.785   2.144   6.952 -0.2554  1.1875  0.6780
10139TIP3   OH254611   6.510   1.788   8.240 -0.9871  0.1381  0.3541
10139TIP3    H154612   6.416   1.806   8.249 -0.7272  3.0746 -1.5045
10139TIP3    H254613   6.526   1.792   8.146  0.9766 -0.7805  0.5980
10140TIP3   OH254614   1.177   4.452   6.581 -0.0482 -0.2177  0.0814
10140TIP3    H154615   1.210   4.537   6.611  0.4029 -0.3863  0.0793
10140TIP3    H254616   1.172   4.460   6.486  1.4969 -0.6863 -0.0816
10141TIP3   OH254617   2.650   2.709   7.370  0.1047 -0.4939 -0.2144
10141TIP3    H154618   2.681   2.683   7.283  2.2081  0.8825  0.0381
10141TIP3    H254619   2.579   2.770   7.352  0.4421 -0.3091 -0.9892
10142TIP3   OH254620   1.815   3.450   7.480 -0.7970 -0.1432  0.3713
10142TIP3    H154621   1.729   3.439   7.521 -1.5318  1.2746 -0.6956
10142TIP3    H254622   1.853   3.526   7.524  0.4155 -1.4175  1.6002
10143TIP3   OH254623   5.326   0.762   9.070  0.0375  0.3367  0.4107
10143TIP3    H154624   5.266   0.808   9.128  0.9596  0.1970  1.5001
10143TIP3    H254625   5.413   0.781   9.104  0.4645 -2.3244  1.0599
10144TIP3   OH254626   1.109   6.361   9.603  0.4631 -0.1984  0.6678
10144TIP3    H154627   1.137   6.282   9.650  2.4767  1.1190  1.8561
10144TIP3    H254628   1.190   6.409   9.588 -0.4569  0.7187 -1.8770
10145TIP3   OH254629   1.649   2.087   8.994 -0.3623 -0.1415 -0.1779
10145TIP3    H154630   1.616   2.001   8.967  0.7718 -0.8288  0.5677
10145TIP3    H254631   1.581   2.121   9.052 -1.2372 -0.1270 -1.1859
10146TIP3   OH254632   3.418   2.308   6.846  0.2682  0.3029 -0.0316
10146TIP3    H154633   3.511   2.332   6.847  0.3245  0.3576 -2.0956
10146TIP3    H254634   3.372   2.391   6.828 -0.2078  0.2829  1.0078
10147TIP3   OH254635   0.463   1.748   9.503 -0.1772 -0.2025  0.6423
10147TIP3    H154636   0.552   1.737   9.471 -0.6038 -1.5768 -0.1483
10147TIP3    H254637   0.423   1.661   9.493 -1.6939  0.4645  0.6857
10148TIP3   OH254638   2.342   3.718   6.754  0.4137 -0.3018  0.1571
10148TIP3    H154639   2.277   3.705   6.823  0.7994 -1.3560  0.3478
10148TIP3    H254640   2.424   3.687   6.792  0.4980 -1.6368 -1.0036
10149TIP3   OH254641   2.567   6.126   7.438  0.3633 -0.0234  0.2103
10149TIP3    H154642   2.503   6.070   7.395  0.6543 -0.7626  0.7128
10149TIP3    H254643   2.568   6.097   7.529  0.1203  1.1775  0.6255
10150TIP3   OH254644   5.913   3.702   9.547 -0.0433 -0.6779 -0.4641
10150TIP3    H154645   5.844   3.768   9.552 -1.1020 -1.8343  2.1567
10150TIP3    H254646   5.877   3.635   9.489  0.4847  0.3841 -2.0714
10151TIP3   OH254647   3.701   6.012   9.342 -0.2190 -0.0072 -0.1931
10151TIP3    H154648   3.785   6.012   9.387 -0.2085 -2.0873 -0.1145
10151TIP3    H254649   3.641   6.056   9.402  0.4201 -0.1586  0.5685
10152TIP3   OH254650   4.136   4.446   6.367  0.7873 -0.6320 -0.5143
10152TIP3    H154651   4.230   4.450   6.346  1.2227 -0.7135  1.1854
10152TIP3    H254652   4.106   4.536   6.359  1.6769 -0.0978  1.4706
10153TIP3   OH254653   5.217   1.649   6.964  0.5512 -0.8200  0.3464
10153TIP3    H154654   5.141   1.687   7.007  0.9496 -1.4148  1.6271
10153TIP3    H254655   5.186   1.626   6.877 -1.1189 -2.2000  1.2392
10154TIP3   OH254656   6.640   3.928  10.540 -0.0036  0.0021 -0.6197
10154TIP3    H154657   6.548   3.902  10.535 -0.6218  1.6375  1.1259
10154TIP3    H254658   6.659   3.967  10.455 -0.9594 -0.2140 -0.9457
10155TIP3   OH254659   3.891   0.127   9.133 -0.3153  0.3112  0.1242
10155TIP3    H154660   3.934   0.141   9.217 -0.2419 -1.6711  0.4736
10155TIP3    H254661   3.910   0.206   9.082  1.0973  0.7983  1.3462
10156TIP3   OH254662   3.201   3.440   8.620 -0.1686  0.2637  0.2466
10156TIP3    H154663   3.108   3.439   8.645 -0.8675  2.9817 -1.8110
10156TIP3    H254664   3.202   3.412   8.529  1.0596  0.2835  0.2352
10157TIP3   OH254665   1.651   3.368   6.432  0.4700  0.2181 -0.3725
10157TIP3    H154666   1.684   3.318   6.506 -1.4013  0.7949  0.9282
10157TIP3    H254667   1.684   3.322   6.355  1.9336 -0.7724  0.7958
10158TIP3   OH254668   6.413   3.104   8.157 -0.0425 -0.2249  0.1135
10158TIP3    H154669   6.415   3.055   8.239  1.8068  0.7528  0.7162
10158TIP3    H254670   6.414   3.196   8.184 -0.9548  0.1526 -1.0186
10159TIP3   OH254671   3.836   6.054   8.297  0.2503 -0.4100 -0.0379
10159TIP3    H154672   3.823   6.059   8.392  1.1843  0.2647  0.0755
10159TIP3    H254673   3.926   6.022   8.287  1.2190  2.1653 -0.6178
10160TIP3   OH254674   4.374   2.407   8.572 -0.1861  0.7017 -0.2467
10160TIP3    H154675   4.293   2.449   8.543 -0.5131 -0.2493 -0.7317
10160TIP3    H254676   4.408   2.364   8.494 -1.7069 -2.9705  0.8921
10161TIP3   OH254677   0.252   0.394   7.745  0.4621 -0.2764  0.4826
10161TIP3    H154678   0.281   0.422   7.658 -0.5793 -1.3214 -0.2268
10161TIP3    H254679   0.288   0.307   7.756  1.1878  0.1199  1.4244
10162TIP3   OH254680   3.564   2.425   7.622 -0.1335 -0.3210  0.4969
10162TIP3    H154681   3.548   2.490   7.554  0.0804 -0.3336  0.4318
10162TIP3    H254682   3.645   2.454   7.664  0.7466 -1.3136 -0.4666
10163TIP3   OH254683   1.797   0.891   6.235  0.2333 -0.6502 -0.5655
10163TIP3    H154684   1.746   0.912   6.313  1.5500  0.6336 -0.0142
10163TIP3    H254685   1.838   0.807   6.255  1.4187  0.1684  0.5988
10164TIP3   OH254686   3.749   4.233   7.422 -0.2358  0.0833 -0.3524
10164TIP3    H154687   3.799   4.178   7.362 -2.1902 -0.2398 -1.7876
10164TIP3    H254688   3.809   4.249   7.495  1.8371 -0.4770 -1.8196
10165TIP3   OH254689   0.328   2.615  10.753 -0.6385  0.2585  0.1621
10165TIP3    H154690   0.297   2.661  10.675 -0.1839  1.4553  0.6587
10165TIP3    H254691   0.297   2.525  10.742 -0.9062  0.4957 -1.2068
10166TIP3   OH254692   3.262   3.968   9.856  0.5295 -0.4841 -0.8878
10166TIP3    H154693   3.223   3.908   9.920  1.0922 -0.3178 -0.3814
10166TIP3    H254694   3.273   3.916   9.777 -1.4189 -0.3480 -1.3040
10167TIP3   OH254695   2.569   5.451   6.648 -0.0256 -0.1216 -0.3718
10167TIP3    H154696   2.564   5.392   6.573  0.3366  0.6431 -1.0188
10167TIP3    H254697   2.491   5.432   6.700  0.2411 -1.3696 -0.4048
10168TIP3   OH254698   0.126   1.838   7.302 -0.3116 -0.4483 -0.5236
10168TIP3    H154699   0.084   1.765   7.348 -0.6941 -0.6395 -1.1721
10168TIP3    H254700   0.109   1.914   7.358  0.8961 -0.9977  0.6436
10169TIP3   OH254701   0.596   3.111   7.469  0.0121  0.3820  0.1367
10169TIP3    H154702   0.628   3.194   7.434  2.0192 -0.5740 -0.4629
10169TIP3    H254703   0.654   3.091   7.542 -1.3894  0.2058  1.2346
10170TIP3   OH254704   2.610   2.609   6.837  0.4700  0.4559  0.0539
10170TIP3    H154705   2.687   2.567   6.798 -0.2047 -0.1632 -0.6525
10170TIP3    H254706   2.548   2.619   6.765 -1.2448 -1.6918  1.0838
10171TIP3   OH254707   5.123   5.949   7.420  0.0197 -0.1382 -0.0345
10171TIP3    H154708   5.092   6.040   7.419 -0.9071 -0.4016  1.8221
10171TIP3    H254709   5.161   5.937   7.333 -1.3551  1.4900 -0.9306
10172TIP3   OH254710   0.273   6.299   7.016 -0.2296  0.0408 -0.0094
10172TIP3    H154711   0.333   6.235   7.055  0.7757  0.3560 -0.9969
10172TIP3    H254712   0.195   6.295   7.072 -0.4314 -2.4355 -0.3320
10173TIP3   OH254713   0.585   5.446   7.947 -0.3664 -0.2370  0.4819
10173TIP3    H154714   0.533   5.507   7.999 -0.0193  0.0100  0.5461
10173TIP3    H254715   0.521   5.386   7.908 -0.6585 -0.1880  0.8856
10174TIP3   OH254716   1.401   5.624   8.995 -0.2604 -0.3425 -0.3785
10174TIP3    H154717   1.328   5.620   8.935 -1.2122  0.5460  0.6767
10174TIP3    H254718   1.377   5.691   9.059  1.1300 -0.5673  0.4425
10175TIP3   OH254719   0.385   6.155   7.778  0.1140 -0.4490  0.6376
10175TIP3    H154720   0.301   6.116   7.801 -0.1922 -0.7091 -0.8259
10175TIP3    H254721   0.364   6.246   7.758 -0.1566 -0.9014 -1.3642
10176TIP3   OH254722   4.736   0.288   8.838 -0.2847 -0.2459  0.4059
10176TIP3    H154723   4.676   0.309   8.910  0.6519 -1.9675  1.7586
10176TIP3    H254724   4.823   0.285   8.879  0.5041  0.3706 -1.1495
10177TIP3   OH254725   3.571   5.904   6.982 -0.5872 -0.1396 -0.4810
10177TIP3    H154726   3.595   5.939   7.067 -0.9020 -0.1659 -0.3800
10177TIP3    H254727   3.651   5.861   6.950 -0.3648  0.1759 -0.3597
10178TIP3   OH254728   4.178   2.593   9.464  0.1492 -0.1243  0.0983
10178TIP3    H154729   4.118   2.594   9.539 -0.3168 -0.9526 -0.2556
10178TIP3    H254730   4.263   2.615   9.502 -0.1897  0.0835  0.7677
10179TIP3   OH254731   0.024   4.613   9.413  0.2254 -0.0657  0.3688
10179TIP3    H154732   0.060   4.701   9.421  0.5460  0.0030 -1.4622
10179TIP3    H254733  -0.070   4.626   9.403  0.3664  0.1627 -0.8339
10180TIP3   OH254734   3.025   1.957   9.594 -0.5769 -0.0810 -0.0663
10180TIP3    H154735   2.973   1.909   9.659 -0.9951  0.9383  0.3681
10180TIP3    H254736   2.980   2.041   9.584 -0.0733  0.0868 -1.0991
10181TIP3   OH254737   6.175   3.802   7.948 -0.8792  0.2114  0.5676
10181TIP3    H154738   6.174   3.711   7.978 -1.0444  0.4242  1.2275
10181TIP3    H254739   6.117   3.803   7.872 -1.3263 -0.1211  0.8989
10182TIP3   OH254740   2.678   1.554   8.083 -0.2893 -0.5606 -0.2090
10182TIP3    H154741   2.633   1.501   8.149  1.1106 -1.4336  0.1022
10182TIP3    H254742   2.609   1.604   8.040 -1.2038  0.5215  2.3282
10183TIP3   OH254743   6.516   5.190   8.034  0.0685 -0.3463  0.4064
10183TIP3    H154744   6.442   5.130   8.026  1.1714 -1.5672 -1.2588
10183TIP3    H254745   6.486   5.271   7.991 -0.8949 -0.1938  1.3285
10184TIP3   OH254746   6.671   0.382   7.243 -0.4788 -0.1836 -0.9082
10184TIP3    H154747   6.664   0.310   7.180 -3.5602 -0.9072  0.0673
10184TIP3    H254748   6.663   0.339   7.328  2.2406  0.9295  0.0224
10185TIP3   OH254749   1.227   4.815   7.947  0.3651  0.1146 -0.2008
10185TIP3    H154750   1.194   4.725   7.949  0.0608  0.2143 -0.5940
10185TIP3    H254751   1.224   4.840   7.855 -2.4404  1.5660  0.1704
10186TIP3   OH254752   1.425   4.636   7.245  0.0036 -0.0684  0.0673
10186TIP3    H154753   1.384   4.717   7.217  2.1000  0.7735 -0.7530
10186TIP3    H254754   1.425   4.641   7.341  2.0039  1.9690  0.0363
10187TIP3   OH254755   4.185   6.033   8.559 -0.1426  0.1112  0.3266
10187TIP3    H154756   4.149   5.961   8.506 -0.8234  0.2389  0.5999
10187TIP3    H254757   4.115   6.054   8.620  0.4555  0.2933  0.9582
10188TIP3   OH254758   1.055   1.022   8.255  0.2143 -0.1618  0.4803
10188TIP3    H154759   1.150   1.008   8.263  0.1152 -0.6084  0.9325
10188TIP3    H254760   1.028   0.965   8.183 -0.0807 -1.8864  1.8852
10189TIP3   OH254761   4.107   1.264   8.625  0.0037  0.8007  0.0801
10189TIP3    H154762   4.196   1.256   8.589  0.7440 -0.3414  2.0458
10189TIP3    H254763   4.057   1.197   8.579  0.5980  0.2553  0.2113
10190TIP3   OH254764   4.432   1.438   8.259 -0.3904 -0.0758 -0.2959
10190TIP3    H154765   4.465   1.383   8.188 -1.2798 -1.5676  0.3949
10190TIP3    H254766   4.510   1.471   8.302  0.2062 -1.7032 -0.0742
10191TIP3   OH254767   3.105   5.478   6.818  0.3911  0.1412 -0.3348
10191TIP3    H154768   3.130   5.557   6.866 -0.4988 -0.0630  0.5163
10191TIP3    H254769   3.010   5.476   6.824  0.3500 -0.5381 -1.0974
10192TIP3   OH254770   4.176   2.571   8.494  0.3175 -0.8661 -0.2845
10192TIP3    H154771   4.222   2.653   8.480  1.2784 -1.0132  1.6742
10192TIP3    H254772   4.110   2.591   8.560  0.1834 -1.5255 -0.2042
10193TIP3   OH254773   5.542   3.654   8.328  0.3691  0.1773  0.1956
10193TIP3    H154774   5.519   3.612   8.245  1.7820 -1.6167  0.6319
10193TIP3    H254775   5.571   3.741   8.303  2.8386 -1.0116 -1.5630
10194TIP3   OH254776   2.859   2.872   9.022  0.4369  0.3571 -0.2544
10194TIP3    H154777   2.820   2.861   9.109 -0.5027  0.0460 -0.7002
10194TIP3    H254778   2.809   2.944   8.983 -0.5592 -0.8488 -1.2969
10195TIP3   OH254779   1.332   5.160   8.379 -0.3862  0.2811  0.6751
10195TIP3    H154780   1.426   5.169   8.363 -0.5706  1.2722  0.0862
10195TIP3    H254781   1.326   5.086   8.439  0.7800  0.2832  0.8318
10196TIP3   OH254782   1.094   2.172   7.445  0.5234  0.1016  0.4470
10196TIP3    H154783   1.052   2.136   7.367  1.9473 -0.5519 -0.0461
10196TIP3    H254784   1.187   2.156   7.432  0.8011  0.0517  2.2551
10197TIP3   OH254785   4.857   6.655   7.618  0.1922 -0.0558  0.2046
10197TIP3    H154786   4.770   6.662   7.578 -0.5348 -1.5785  1.3910
10197TIP3    H254787   4.882   6.564   7.602  0.9121 -0.0290  1.1585
10198TIP3   OH254788   0.080   6.085   7.000  0.5901 -0.3187 -0.3989
10198TIP3    H154789   0.161   6.055   6.958  0.3667  0.0983 -1.1363
10198TIP3    H254790   0.080   6.041   7.085  1.7910 -0.0256 -0.2219
10199TIP3   OH254791   3.570   4.029   6.977  0.1375  0.2055  0.3484
10199TIP3    H154792   3.477   4.010   6.992 -0.1083 -0.2270 -1.5144
10199TIP3    H254793   3.612   3.943   6.971  0.5879  0.3933  0.7721
10200TIP3   OH254794   2.534   6.636   7.847  0.2918  0.0002  0.1650
10200TIP3    H154795   2.567   6.690   7.919  1.2631  1.1575 -1.1069
10200TIP3    H254796   2.563   6.547   7.869 -1.4534 -0.1083  2.3533
10201TIP3   OH254797   5.397   5.339  10.025  0.8696  0.1312 -0.1643
10201TIP3    H154798   5.420   5.364   9.936 -0.3805 -0.4135 -0.6451
10201TIP3    H254799   5.414   5.419  10.076  1.3178  0.5361 -0.9206
10202TIP3   OH254800   4.640   4.904   8.276  0.1358  0.0380 -0.3201
10202TIP3    H154801   4.669   4.819   8.242  0.4699  0.0200 -0.0001
10202TIP3    H254802   4.596   4.946   8.203  0.4082 -0.2055 -0.6253
10203TIP3   OH254803   4.312   0.622   6.592  0.3710 -0.2402 -0.1723
10203TIP3    H154804   4.366   0.692   6.556  0.6469 -0.2961  0.1305
10203TIP3    H254805   4.372   0.549   6.605  0.2268 -0.2981  0.1821
10204TIP3   OH254806   2.373   5.380   6.835  0.0386 -0.1575 -0.2689
10204TIP3    H154807   2.430   5.314   6.875  1.3736  0.9785 -0.2332
10204TIP3    H254808   2.327   5.333   6.766  2.0306 -0.8225 -1.1960
10205TIP3   OH254809   4.849   4.063   8.392  0.7733  0.6996 -0.3067
10205TIP3    H154810   4.764   4.073   8.349  0.2649 -0.1580  0.4396
10205TIP3    H254811   4.912   4.096   8.329  0.0822 -0.6707 -1.8032
10206TIP3   OH254812   6.005   6.390   6.823  0.1266 -0.0195 -0.1257
10206TIP3    H154813   6.063   6.446   6.875  1.0286 -0.0599 -1.0724
10206TIP3    H254814   5.917   6.418   6.848  0.5510  0.6737  0.6528
10207TIP3   OH254815   5.539   5.557   7.281 -0.1510 -0.0587  0.1286
10207TIP3    H154816   5.578   5.638   7.250 -0.6084 -0.8362 -2.7788
10207TIP3    H254817   5.605   5.490   7.263  0.0645 -0.4557  2.1332
10208TIP3   OH254818   3.206   1.907   6.408 -0.3327 -0.2259 -0.4848
10208TIP3    H154819   3.285   1.955   6.384 -0.6692 -0.0504 -1.2643
10208TIP3    H254820   3.234   1.816   6.414  0.3615  0.0595  1.2266
10209TIP3   OH254821   2.970   4.261   9.219  0.7059 -0.5709 -0.1492
10209TIP3    H154822   2.961   4.314   9.140 -0.4310  0.6566  0.7445
10209TIP3    H254823   2.967   4.325   9.291 -1.5504 -1.8452  1.0348
10210TIP3   OH254824   3.650   3.680  10.015 -0.4359 -0.6992  0.0791
10210TIP3    H154825   3.666   3.588  10.036 -0.6772 -0.5234  1.1311
10210TIP3    H254826   3.570   3.702  10.063 -0.5602 -0.0288 -0.4188
10211TIP3   OH254827   4.217   1.623   8.035  0.5384 -0.2630  0.2128
10211TIP3    H154828   4.280   1.627   7.963 -0.2622 -2.3435 -0.6748
10211TIP3    H254829   4.214   1.713   8.069  2.0748  0.4351 -1.3437
10212TIP3   OH254830   4.704   1.004   9.247 -0.2860 -0.1984 -0.3070
10212TIP3    H154831   4.718   0.929   9.306  0.7444  1.0806  1.1649
10212TIP3    H254832   4.727   1.080   9.300 -1.7493  1.2213 -1.6239
10213TIP3   OH254833   5.724   1.289   8.894 -0.0896  0.3449 -0.1692
10213TIP3    H154834   5.756   1.256   8.810  1.1454 -1.3651  0.9044
10213TIP3    H254835   5.800   1.283   8.952 -1.3346 -0.0474  1.4810
10214TIP3   OH254836   3.602   2.220   7.450 -0.2939 -0.0052 -0.0205
10214TIP3    H154837   3.669   2.165   7.492  1.0310  0.5937 -1.2839
10214TIP3    H254838   3.597   2.298   7.506  0.2168  0.0425 -0.0395
10215TIP3   OH254839   6.387   3.000   8.415 -0.0471  0.2181 -0.0929
10215TIP3    H154840   6.297   2.972   8.401 -0.3884  0.6859  1.0428
10215TIP3    H254841   6.381   3.074   8.475  1.1822 -0.8819  1.4953
10216TIP3   OH254842   3.747   4.317   7.839  0.6089  0.1109 -0.2937
10216TIP3    H154843   3.669   4.359   7.803  0.6888 -0.2201 -0.8654
10216TIP3    H254844   3.742   4.334   7.933 -0.5639 -0.5793 -0.2129
10217TIP3   OH254845   4.590   6.677   8.664  0.1900 -0.7328 -0.0096
10217TIP3    H154846   4.668   6.701   8.714 -0.7133  2.0836  0.2412
10217TIP3    H254847   4.611   6.593   8.624  3.3520 -0.0705  0.0390
10218TIP3   OH254848   2.111   1.284   6.809 -0.2931 -0.2689 -0.2798
10218TIP3    H154849   2.080   1.275   6.899 -0.5476  1.6138 -0.1375
10218TIP3    H254850   2.039   1.251   6.756  0.0696 -1.8982  0.1831
10219TIP3   OH254851   6.295   6.491   6.309 -0.0779 -0.1573  0.7362
10219TIP3    H154852   6.292   6.534   6.394 -0.6273  3.0187 -0.7581
10219TIP3    H254853   6.204   6.463   6.293 -0.5759  1.7262  0.0776
10220TIP3   OH254854   6.275   4.160   7.960 -0.0674  0.2473  0.4564
10220TIP3    H154855   6.212   4.179   8.029 -0.5661 -1.9074  0.6680
10220TIP3    H254856   6.313   4.076   7.984  1.9497  0.8570 -0.3643
10221TIP3   OH254857   1.655   4.101   8.971  0.4524  0.5185 -0.2463
10221TIP3    H154858   1.658   4.038   9.042 -1.1085 -0.3105 -0.8697
10221TIP3    H254859   1.643   4.186   9.014 -1.6004 -0.0962  0.4624
10222TIP3   OH254860   5.239   0.382   8.428 -0.8116  0.0310  0.1136
10222TIP3    H154861   5.187   0.444   8.377 -1.3635 -0.8071 -0.3748
10222TIP3    H254862   5.188   0.368   8.507  0.2341  1.6328  1.1301
10223TIP3   OH254863   4.474   5.023   7.188  0.6766  0.0667 -0.7319
10223TIP3    H154864   4.416   5.099   7.180  0.1586 -0.2680 -0.2176
10223TIP3    H254865   4.426   4.953   7.144  0.5900 -0.2660 -0.1075
10224TIP3   OH254866   4.237   4.779   9.928 -0.4775 -0.6549  0.2981
10224TIP3    H154867   4.162   4.727   9.954 -0.9196 -0.5070 -0.6363
10224TIP3    H254868   4.234   4.856   9.985 -1.0759 -0.6215  0.2293
10225TIP3   OH254869   4.145   4.040   7.824 -0.1420 -0.4458 -0.6820
10225TIP3    H154870   4.156   4.048   7.729 -0.8880 -2.0100 -0.9265
10225TIP3    H254871   4.070   4.096   7.844 -1.1768 -1.5466 -1.3357
10226TIP3   OH254872   5.625   4.835   6.696 -0.8427 -0.4551 -0.1172
10226TIP3    H154873   5.703   4.780   6.696  0.1003  0.7722 -1.8904
10226TIP3    H254874   5.612   4.859   6.787  0.6114 -1.0325  0.2692
10227TIP3   OH254875   1.437   4.824   8.950  0.6115 -0.1839  0.4847
10227TIP3    H154876   1.388   4.807   8.870  2.9888  0.4166 -1.2042
10227TIP3    H254877   1.384   4.890   8.996 -0.5562 -0.1380 -0.8411
10228TIP3   OH254878   5.719   3.466  10.437  0.3802 -0.2838 -0.7568
10228TIP3    H154879   5.689   3.392  10.489  0.5945  0.6700  0.7964
10228TIP3    H254880   5.649   3.480  10.373 -0.9560 -0.1553  0.6665
10229TIP3   OH254881   0.246   4.359   6.993  0.0457  0.1269  0.2102
10229TIP3    H154882   0.226   4.267   7.013  2.3016 -0.2858  0.8993
10229TIP3    H254883   0.169   4.391   6.946 -0.5886 -2.2815 -0.5466
10230TIP3   OH254884   1.439   3.400   7.819  0.2485 -0.4367 -0.3240
10230TIP3    H154885   1.434   3.304   7.817  0.5313 -0.6061  2.7879
10230TIP3    H254886   1.533   3.419   7.827  0.1207  0.0539  0.0424
10231TIP3   OH254887   5.376   0.278   7.807  0.0586  0.1984  0.3252
10231TIP3    H154888   5.296   0.330   7.795 -0.6375 -1.0950 -0.9375
10231TIP3    H254889   5.403   0.296   7.897 -0.3207  2.4742  0.0427
10232TIP3   OH254890   5.879   4.223   9.059 -0.3556 -0.3677 -0.0520
10232TIP3    H154891   5.901   4.280   8.986  1.7756 -1.2736 -0.2015
10232TIP3    H254892   5.955   4.230   9.118 -0.4427 -2.3192  0.3490
10233TIP3   OH254893   4.025   6.501   6.536  0.1757  0.0866 -0.6552
10233TIP3    H154894   3.984   6.431   6.486  1.0525 -0.1828 -1.0142
10233TIP3    H254895   4.061   6.458   6.614  0.5080  0.1691 -0.7592
10234TIP3   OH254896   4.737   1.211   8.142 -0.0664 -0.5876 -0.3586
10234TIP3    H154897   4.641   1.208   8.147 -0.0370  0.2411  2.3794
10234TIP3    H254898   4.763   1.123   8.115 -1.5647 -1.0349 -0.4071
10235TIP3   OH254899   5.558   3.059  10.069 -0.5884  0.3796 -0.5489
10235TIP3    H154900   5.576   2.971  10.101  0.9715  0.6982 -0.4486
10235TIP3    H254901   5.575   3.115  10.145 -0.8239  0.8295 -0.8239
10236TIP3   OH254902   0.265   6.530   8.367 -0.0558 -0.0476  0.0684
10236TIP3    H154903   0.201   6.474   8.324  0.5353 -1.5234  1.0229
10236TIP3    H254904   0.331   6.469   8.401  0.4363  1.2097  1.4542
10237TIP3   OH254905   6.225   0.432   6.910  0.2964 -0.2400  0.6829
10237TIP3    H154906   6.147   0.408   6.960 -0.8825  1.6089 -0.1594
10237TIP3    H254907   6.239   0.524   6.932  1.1055 -0.0236 -0.6383
10238TIP3   OH254908   0.419   4.974   7.772 -0.1406 -0.5129  0.7361
10238TIP3    H154909   0.504   4.931   7.764  0.4968  1.0548 -2.5716
10238TIP3    H254910   0.356   4.903   7.779  1.2139 -1.8169  0.0173
10239TIP3   OH254911   0.346   5.135   9.468 -0.1508 -0.1515 -0.0672
10239TIP3    H154912   0.342   5.044   9.439  1.5531  0.6379 -3.2203
10239TIP3    H254913   0.257   5.156   9.496 -0.2250 -3.2035  2.4558
10240TIP3   OH254914   3.327   4.153   7.424 -0.2880 -0.3437  0.5542
10240TIP3    H154915   3.392   4.223   7.434 -1.2410  0.5295  0.8151
10240TIP3    H254916   3.263   4.188   7.362 -1.1845 -0.6621  1.2699
10241TIP3   OH254917   0.427   2.137   8.804  0.0614  0.0429  0.5139
10241TIP3    H154918   0.488   2.149   8.877  0.1285 -0.5250  0.5517
10241TIP3    H254919   0.470   2.180   8.730  0.3716 -0.0927  0.6124
10242TIP3   OH254920   6.318   2.698   6.839  0.1582  0.0499  0.2964
10242TIP3    H154921   6.320   2.748   6.758  0.9541 -0.0361  0.2532
10242TIP3    H254922   6.301   2.762   6.907 -0.3366  0.1489  0.0816
10243TIP3   OH254923   2.947   5.928   7.708  0.1788 -0.1081  0.1918
10243TIP3    H154924   3.028   5.977   7.695 -0.7437  1.8847  1.5019
10243TIP3    H254925   2.921   5.900   7.620  1.7140  0.1289 -0.3635
10244TIP3   OH254926   1.437   1.425   9.720  0.0634  0.4720 -0.1074
10244TIP3    H154927   1.383   1.347   9.730 -1.0027  1.1685 -0.1477
10244TIP3    H254928   1.430   1.470   9.805  1.1276  0.2569  0.1110
10245TIP3   OH254929   4.196   0.258   7.579  0.0183  0.5262 -0.2891
10245TIP3    H154930   4.203   0.262   7.483  1.7736 -1.0327 -0.2842
10245TIP3    H254931   4.106   0.229   7.595 -0.6252  1.7906 -1.3895
10246TIP3   OH254932   1.918   3.552   9.965 -0.5481  0.4289  0.0240
10246TIP3    H154933   1.847   3.534  10.027 -1.0104 -0.8186 -0.8476
10246TIP3    H254934   1.988   3.491   9.989 -1.4741 -1.4969 -1.8628
10247TIP3   OH254935   1.090   4.095   9.654 -0.2352  0.2027  0.2236
10247TIP3    H154936   1.124   4.085   9.743  1.7179 -2.7183 -0.7037
10247TIP3    H254937   0.995   4.094   9.664 -0.0866  1.2123  2.3371
10248TIP3   OH254938   3.183   6.037   7.668  0.3662  0.1857 -0.4262
10248TIP3    H154939   3.232   6.054   7.588 -0.0078  1.6159 -0.3722
10248TIP3    H254940   3.234   6.079   7.737  0.7828 -1.1902  0.1408
10249TIP3   OH254941   3.287   4.563   7.787  0.6525 -0.4352 -0.1461
10249TIP3    H154942   3.378   4.576   7.763  1.6088 -1.1702  2.6778
10249TIP3    H254943   3.268   4.472   7.764  0.2255  0.0292 -1.7513
10250TIP3   OH254944   0.863   1.336   8.422  0.2204  0.2999 -0.1684
10250TIP3    H154945   0.895   1.395   8.354  1.5040  1.2545  1.1817
10250TIP3    H254946   0.941   1.316   8.475 -0.6511 -0.7098  0.7853
10251TIP3   OH254947   0.917   2.847   7.984 -0.2488 -0.3010 -0.5028
10251TIP3    H154948   0.836   2.896   7.967  0.4209  1.2677  0.5524
10251TIP3    H254949   0.905   2.811   8.072  0.5531  0.7940  0.0864
10252TIP3   OH254950   1.221   3.026   9.665 -0.4460 -0.1956  0.4492
10252TIP3    H154951   1.174   2.944   9.678  1.7534 -1.3345  1.8143
10252TIP3    H254952   1.240   3.057   9.753  2.9579 -0.8496  0.0841
10253TIP3   OH254953   2.996   3.134   7.712  0.5806  0.1435 -0.0640
10253TIP3    H154954   2.994   3.045   7.678  0.4142 -0.7620  2.1189
10253TIP3    H254955   3.079   3.139   7.761  0.9916  1.4912 -0.8304
10254TIP3   OH254956   5.154   6.583   6.640 -0.4241 -0.1491  0.1621
10254TIP3    H154957   5.152   6.488   6.632 -0.3786 -0.0448 -1.2984
10254TIP3    H254958   5.230   6.610   6.587  0.3421  0.6174  1.5896
10255TIP3   OH254959   5.974   5.742   8.661  0.1817 -0.2628 -0.2275
10255TIP3    H154960   5.913   5.695   8.604  0.4635  0.0137 -0.7620
10255TIP3    H254961   5.928   5.823   8.684 -0.8054 -1.2811  1.6675
10256TIP3   OH254962   4.448   3.202   7.500 -0.2470 -0.0883  0.2173
10256TIP3    H154963   4.368   3.219   7.551 -1.5739 -2.6470 -0.8111
10256TIP3    H254964   4.464   3.284   7.453 -1.5536  0.8888  1.3833
10257TIP3   OH254965   2.918   3.602   9.515 -0.2831  0.1862 -0.3882
10257TIP3    H154966   2.936   3.642   9.430 -1.3033 -0.5016 -0.9499
10257TIP3    H254967   2.882   3.516   9.493 -0.9522  0.1683  0.7311
10258TIP3   OH254968   4.349   5.947   6.353  0.7220 -0.0806  0.6318
10258TIP3    H154969   4.263   5.906   6.356  0.1279  0.8283 -1.7541
10258TIP3    H254970   4.336   6.032   6.394 -0.3319  1.2174 -2.1510
10259TIP3   OH254971   4.070   5.220   7.617 -0.3771  0.5024  0.1590
10259TIP3    H154972   4.015   5.223   7.696 -1.8007  2.0235 -0.8206
10259TIP3    H254973   4.032   5.286   7.560  2.5359  1.6369 -0.6005
10260TIP3   OH254974   3.159   3.820   7.518  0.3500  0.3222 -0.2838
10260TIP3    H154975   3.156   3.874   7.597 -2.0170 -1.5810  1.0553
10260TIP3    H254976   3.101   3.865   7.456 -0.4098  0.1314  0.2788
10261TIP3   OH254977   2.902   2.402   8.679  0.1844  0.4162  0.4633
10261TIP3    H154978   2.880   2.309   8.683  0.3001  0.3891  0.4633
10261TIP3    H254979   2.824   2.446   8.712  0.3362  0.2942  0.9945
10262TIP3   OH254980   2.303   3.712  10.226 -0.3260  0.2932  0.2260
10262TIP3    H154981   2.296   3.619  10.204 -0.0843  0.1784  0.6332
10262TIP3    H254982   2.224   3.732  10.275  1.2236 -0.5824  3.2995
10263TIP3   OH254983   4.787   3.694  10.417  0.4185 -0.2595  0.1803
10263TIP3    H154984   4.835   3.640  10.480  3.1507  0.2588 -1.2915
10263TIP3    H254985   4.831   3.779  10.420 -0.9029  0.4957 -0.7674
10264TIP3   OH254986   0.212   1.624   6.944 -0.7618  0.6928 -0.2518
10264TIP3    H154987   0.179   1.538   6.917 -1.3869  0.7025  0.4275
10264TIP3    H254988   0.265   1.606   7.022 -0.6365  0.8878 -0.2915
10265TIP3   OH254989   6.112   4.834   7.544  0.5394  0.1998 -0.0867
10265TIP3    H154990   6.037   4.788   7.506  1.4999 -1.2976 -0.2788
10265TIP3    H254991   6.188   4.781   7.517  1.6374  1.4916  0.3575
10266TIP3   OH254992   3.491   2.033   8.137 -0.2090  0.4021  0.5258
10266TIP3    H154993   3.533   2.117   8.121  0.7329 -0.4179 -1.7269
10266TIP3    H254994   3.400   2.046   8.109  0.0838  0.5208 -0.3983
10267TIP3   OH254995   1.636   3.271   8.192  0.5367 -0.2205 -0.0121
10267TIP3    H154996   1.709   3.292   8.250 -1.4415 -1.1678  3.0230
10267TIP3    H254997   1.615   3.355   8.150  3.6705 -0.0424 -1.5801
10268TIP3   OH254998   3.222   2.238   9.285 -0.2242  0.3069  0.7256
10268TIP3    H154999   3.138   2.275   9.311 -1.1030 -1.5036  0.6153
10268TIP3    H255000   3.227   2.255   9.190 -1.5611 -1.5304  0.2805
10269TIP3   OH255001   5.358   3.200   7.082  0.5770  0.2318 -0.3706
10269TIP3    H155002   5.306   3.123   7.059 -0.7541  1.0710 -0.2742
10269TIP3    H255003   5.364   3.251   7.001  0.0005  0.8268 -0.0572
10270TIP3   OH255004   3.807   3.882   8.223 -0.2285  0.0317 -0.4636
10270TIP3    H155005   3.844   3.836   8.148 -1.1131 -0.0321 -0.8706
10270TIP3    H255006   3.750   3.817   8.265  1.8829 -0.6548  1.5598
10271TIP3   OH255007   1.031   6.697   9.167 -0.4198 -0.2223  0.0401
10271TIP3    H155008   1.031   6.768   9.232  2.0723  0.3624 -0.5233
10271TIP3    H255009   0.998   6.738   9.087 -0.3138 -0.0661  0.0750
10272TIP3   OH255010   5.899   2.744   9.551  0.1987  0.2392 -0.0900
10272TIP3    H155011   5.831   2.742   9.618  0.7059  0.5381  0.4466
10272TIP3    H255012   5.950   2.823   9.571 -0.5281  1.1876 -1.7262
10273TIP3   OH255013   3.705   3.448   7.827 -0.2516 -0.1390  0.3159
10273TIP3    H155014   3.723   3.521   7.769 -0.1221 -1.0087 -0.7576
10273TIP3    H255015   3.660   3.488   7.902 -2.9597  0.6937 -1.5720
10274TIP3   OH255016   4.206   0.801   7.326 -0.1528 -0.2305 -0.1956
10274TIP3    H155017   4.148   0.727   7.339 -0.2614 -0.1333 -0.1234
10274TIP3    H255018   4.292   0.762   7.309 -0.0692 -0.3610  0.5201
10275TIP3   OH255019   1.270   1.918   8.086 -1.0211  0.3603  0.6316
10275TIP3    H155020   1.263   1.939   8.179 -2.2216 -0.8462  0.8605
10275TIP3    H255021   1.192   1.864   8.068  0.0440 -0.8384 -0.6650
10276TIP3   OH255022   6.454   3.844   9.316 -0.2435 -0.3417  0.1023
10276TIP3    H155023   6.454   3.937   9.342 -1.5830 -0.4402  0.5237
10276TIP3    H255024   6.476   3.798   9.397  1.5298 -0.3758 -0.3464
10277TIP3   OH255025   5.971   0.177   8.310 -0.3658  0.0392  0.1803
10277TIP3    H155026   5.978   0.171   8.406  1.1491 -0.3182  0.0718
10277TIP3    H255027   6.004   0.093   8.279 -1.5820 -0.1571 -0.6564
10278TIP3   OH255028   0.022   5.450   8.680 -0.2192 -0.3379 -0.1306
10278TIP3    H155029  -0.036   5.402   8.622 -0.2547 -2.2431  1.3623
10278TIP3    H255030  -0.016   5.537   8.687 -0.6733 -0.3410 -2.2323
10279TIP3   OH255031   1.655   3.506   8.586 -0.1030 -0.0884 -0.0960
10279TIP3    H155032   1.675   3.575   8.650  0.6637 -0.4450  0.0636
10279TIP3    H255033   1.724   3.513   8.520 -0.8786  0.2608 -0.8827
10280TIP3   OH255034   1.861   5.331   7.445 -0.4552 -0.3367  0.4297
10280TIP3    H155035   1.908   5.411   7.469  1.5021 -0.7475 -1.6915
10280TIP3    H255036   1.870   5.274   7.522  0.9755  0.3007  0.7630
10281TIP3   OH255037   0.018   4.013   6.920 -0.3372  0.3772 -0.1308
10281TIP3    H155038   0.069   4.055   6.851 -0.2115  0.2717 -0.1032
10281TIP3    H255039   0.030   4.069   6.997 -1.4654  1.1694 -0.5016
10282TIP3   OH255040   4.814   2.412   6.633 -0.5264 -0.1764  0.1679
10282TIP3    H155041   4.746   2.458   6.682 -1.4095 -0.5450 -0.6726
10282TIP3    H255042   4.800   2.320   6.653  0.7459 -0.1587  1.2345
10283TIP3   OH255043   2.316   1.176   8.192  0.0516 -0.2224 -0.3054
10283TIP3    H155044   2.235   1.210   8.230 -0.5373 -0.4292 -1.3323
10283TIP3    H255045   2.382   1.243   8.212 -0.7040  0.6875 -0.7857
10284TIP3   OH255046   5.152   4.118   9.149 -0.3178  0.6030  0.0143
10284TIP3    H155047   5.065   4.148   9.174 -0.4131 -1.7981  3.1590
10284TIP3    H255048   5.204   4.128   9.229  1.6396 -0.2474 -1.0910
10285TIP3   OH255049   2.193   5.445   7.305  0.1104 -0.3483 -0.1828
10285TIP3    H155050   2.273   5.478   7.265 -0.5186 -0.0952 -1.2687
10285TIP3    H255051   2.202   5.350   7.304  1.2531 -0.3123  1.5501
10286TIP3   OH255052   0.150   6.136   8.747  0.3654 -0.6790  0.1265
10286TIP3    H155053   0.227   6.099   8.790  0.8174  1.2180  1.0706
10286TIP3    H255054   0.082   6.070   8.759  1.4191 -1.7172  0.6541
10287TIP3   OH255055   1.291   5.248   6.918 -0.5795 -0.6900  0.0250
10287TIP3    H155056   1.288   5.338   6.952 -0.0310 -1.1461  1.3692
10287TIP3    H255057   1.374   5.214   6.950 -1.3772 -2.1062  0.6924
10288TIP3   OH255058   1.078   1.353   8.614 -0.2261 -0.5316  0.3027
10288TIP3    H155059   1.096   1.265   8.582 -1.0388 -1.1571  1.4976
10288TIP3    H255060   1.163   1.398   8.608  0.6728 -1.9698  1.3804
10289TIP3   OH255061   3.669   3.335   7.089 -0.5185 -0.0329  0.0811
10289TIP3    H155062   3.712   3.326   7.004 -0.8921 -1.9555  0.0619
10289TIP3    H255063   3.595   3.274   7.085 -1.2006  0.6655  1.3932
10290TIP3   OH255064   6.066   3.392   9.692  0.0592  0.2749 -0.2042
10290TIP3    H155065   6.092   3.316   9.640 -3.2860  0.1928 -1.9870
10290TIP3    H255066   5.991   3.363   9.742  0.2755  1.7505  1.0491
10291TIP3   OH255067   1.367   2.676   9.790  0.0398 -0.1663 -0.8801
10291TIP3    H155068   1.327   2.591   9.771 -0.1780 -0.4061  0.5739
10291TIP3    H255069   1.460   2.663   9.768  0.3678 -1.3750  0.9699
10292TIP3   OH255070   0.428   3.932   9.668  0.0166 -0.0057 -0.7399
10292TIP3    H155071   0.339   3.901   9.652  0.7152 -2.1199 -0.8459
10292TIP3    H255072   0.463   3.871   9.733  1.5922  0.3573 -1.2039
10293TIP3   OH255073   6.609   5.305   8.429  0.0255  0.3140  0.1818
10293TIP3    H155074   6.545   5.287   8.360  1.0278 -1.6210 -0.2735
10293TIP3    H255075   6.598   5.233   8.491  0.3343  1.1123  1.1895
10294TIP3   OH255076   6.495   4.529   7.745  0.4141  0.0458 -0.2123
10294TIP3    H155077   6.423   4.470   7.723  0.8507 -0.7556  0.4255
10294TIP3    H255078   6.567   4.501   7.688 -0.0726  1.5695 -1.6595
10295TIP3   OH255079   4.224   4.631   9.442  0.2704 -0.2461  0.1543
10295TIP3    H155080   4.247   4.656   9.532  1.8453 -0.8391 -0.0533
10295TIP3    H255081   4.263   4.699   9.388 -0.9545  0.2872 -0.0989
10296TIP3   OH255082   5.246   3.767   9.949 -0.6570  0.3177  0.0530
10296TIP3    H155083   5.239   3.805  10.037  2.2553 -0.6020  0.8140
10296TIP3    H255084   5.239   3.842   9.890 -0.6866  1.2483  1.2023
10297TIP3   OH255085   3.822   3.317   7.601  0.0365 -0.1486 -0.0382
10297TIP3    H155086   3.849   3.226   7.617 -0.7300 -0.6050 -1.2201
10297TIP3    H255087   3.773   3.341   7.680  0.5171 -0.6507  0.4184
10298TIP3   OH255088   5.115   3.110  11.063 -0.4177 -0.1047 -0.0219
10298TIP3    H155089   5.175   3.148  10.998 -0.3483  1.6601  0.9987
10298TIP3    H255090   5.069   3.041  11.016  0.8287 -0.0065 -1.4620
10299TIP3   OH255091   5.789   1.450   9.474  0.3009  0.0769 -0.4910
10299TIP3    H155092   5.869   1.399   9.459 -1.4643 -2.5663 -1.7004
10299TIP3    H255093   5.772   1.440   9.568  1.0342  0.1230 -0.3440
10300TIP3   OH255094   0.634   4.586   8.939  0.7891  0.0601 -0.1187
10300TIP3    H155095   0.590   4.518   8.887 -1.3168 -0.1514  1.8270
10300TIP3    H255096   0.648   4.546   9.024  1.1839  1.4780  0.5138
10301TIP3   OH255097   5.437   2.383   7.583  0.4161 -0.1571 -0.2742
10301TIP3    H155098   5.376   2.435   7.532 -1.9074  0.0805  2.4768
10301TIP3    H255099   5.524   2.406   7.549 -0.8062  1.9808 -2.1801
10302TIP3   OH255100   5.409   3.557   9.350 -0.0466 -0.1298 -0.1153
10302TIP3    H155101   5.407   3.588   9.260 -1.4749 -0.3363 -0.1775
10302TIP3    H255102   5.361   3.624   9.400 -0.5774 -0.7525  0.2302
10303TIP3   OH255103   1.006   1.067   8.906  0.0942 -0.0582  0.2225
10303TIP3    H155104   0.990   0.987   8.956 -1.1700  0.3118  0.4430
10303TIP3    H255105   1.022   1.134   8.972  0.9011 -0.0663  0.0455
10304TIP3   OH255106   0.467   2.679   9.653  0.3641 -0.3803 -0.2844
10304TIP3    H155107   0.443   2.597   9.609 -0.7347  0.4094 -1.1995
10304TIP3    H255108   0.395   2.695   9.714 -1.1857  1.5306 -2.4048
10305TIP3   OH255109   2.271   1.109   6.246  0.3354 -0.2770  0.3254
10305TIP3    H155110   2.314   1.102   6.161  1.6810 -1.4228  1.0356
10305TIP3    H255111   2.180   1.128   6.226  0.5608 -0.8007 -1.3807
10306TIP3   OH255112   0.831   4.356   8.198  0.2369  0.8809 -0.4568
10306TIP3    H155113   0.822   4.261   8.204 -0.5476  0.9896  0.3123
10306TIP3    H255114   0.905   4.369   8.139  3.0649 -0.2947  2.5297
10307TIP3   OH255115   0.762   0.127   7.735  1.0131 -0.4348  0.0852
10307TIP3    H155116   0.738   0.199   7.676  1.0023 -1.0385 -0.6664
10307TIP3    H255117   0.787   0.056   7.676 -1.2965 -1.8999  0.7350
10308TIP3   OH255118   1.620   5.977   6.570 -0.6237 -0.0543 -0.5685
10308TIP3    H155119   1.604   6.012   6.483  0.7618 -0.2040 -0.9159
10308TIP3    H255120   1.568   5.897   6.575 -0.6990 -0.0496 -1.2612
10309TIP3   OH255121   6.043   1.078   7.242  0.3723 -0.0594 -0.3765
10309TIP3    H155122   6.022   1.095   7.150  1.9825  1.2569 -0.5501
10309TIP3    H255123   6.124   1.128   7.258 -1.5890  2.5684  2.6479
10310TIP3   OH255124   5.608   5.002   9.239 -0.2859  0.0343  0.3968
10310TIP3    H155125   5.600   5.080   9.293  0.3115  1.1699 -1.0684
10310TIP3    H255126   5.675   4.949   9.282  0.8084  1.3137  0.3246
10311TIP3   OH255127   4.820   1.608   6.592  0.4438 -0.1237  0.1677
10311TIP3    H155128   4.753   1.557   6.545  0.3746 -1.4239  1.6084
10311TIP3    H255129   4.821   1.570   6.680  2.2170  0.6988  0.5251
10312TIP3   OH255130   1.562   1.771   9.503  0.0833  0.2405 -0.2609
10312TIP3    H155131   1.521   1.774   9.590 -1.7422 -0.1603 -1.0738
10312TIP3    H255132   1.634   1.835   9.509 -0.2503  0.5090  1.4180
10313TIP3   OH255133   2.720   4.310   6.798  0.3360 -0.0305 -0.2163
10313TIP3    H155134   2.653   4.249   6.831  0.0412  0.1441 -0.4949
10313TIP3    H255135   2.772   4.258   6.737  2.3775 -1.0727  2.1984
10314TIP3   OH255136   0.089   5.173   9.240  0.0582 -0.5003 -0.5378
10314TIP3    H155137   0.078   5.147   9.331 -1.9000  4.8028  1.1423
10314TIP3    H255138   0.004   5.157   9.199 -0.1408  0.1747 -0.4047
10315TIP3   OH255139   3.476   4.586   9.946  0.3790 -0.0530  0.2586
10315TIP3    H155140   3.566   4.601   9.976  0.4341  1.7305 -0.6888
10315TIP3    H255141   3.452   4.666   9.899 -1.0348 -1.2392 -1.1618
10316TIP3   OH255142   2.596   0.183   7.337  0.1637  0.3051  0.2873
10316TIP3    H155143   2.617   0.159   7.427  1.7046  0.2753 -0.0372
10316TIP3    H255144   2.501   0.176   7.331 -0.2635  2.5128  2.5617
10317TIP3   OH255145   5.427   1.565   8.130 -0.0595 -0.2473  0.1494
10317TIP3    H155146   5.494   1.498   8.143 -0.9849 -1.4416 -0.9131
10317TIP3    H255147   5.427   1.580   8.035 -2.0641 -1.1741 -0.0500
10318TIP3   OH255148   1.557   5.330   8.590 -0.1712 -0.2503 -0.1853
10318TIP3    H155149   1.613   5.306   8.515 -0.5396 -0.8044 -0.2875
10318TIP3    H255150   1.574   5.423   8.603  1.9239 -0.6856  0.7357
10319TIP3   OH255151   4.720   4.915   9.108  0.4681 -0.4104 -0.0296
10319TIP3    H155152   4.796   4.927   9.050 -1.0792  2.0754 -1.7315
10319TIP3    H255153   4.655   4.872   9.053 -0.2781 -0.0333  0.5450
10320TIP3   OH255154   3.160   1.291   7.080 -0.2364 -0.3497 -0.3385
10320TIP3    H155155   3.172   1.380   7.049  0.0537  0.3549  1.6800
10320TIP3    H255156   3.073   1.291   7.121 -0.0889 -0.9120 -0.0158
10321TIP3   OH255157   2.412   1.437   8.053  0.1931  0.0761 -0.0444
10321TIP3    H155158   2.328   1.471   8.024  1.1751  2.2116 -0.5494
10321TIP3    H255159   2.460   1.419   7.972 -0.0038 -1.8568  0.2244
10322TIP3   OH255160   4.037   0.512   7.812  0.2439 -0.0008  0.6581
10322TIP3    H155161   3.963   0.517   7.751  1.7792 -1.4195 -1.4903
10322TIP3    H255162   4.076   0.600   7.808  0.3631 -0.0812 -0.5164
10323TIP3   OH255163   0.127   4.682   6.994  0.1051  0.5763  0.0514
10323TIP3    H155164   0.100   4.718   6.909  0.4582  2.0882  0.5378
10323TIP3    H255165   0.121   4.757   7.054  0.2606 -0.3638  1.2736
10324TIP3   OH255166   6.498   1.966   9.158 -0.5729  0.1480  0.1998
10324TIP3    H155167   6.458   1.940   9.240 -0.5472  0.2021  0.2291
10324TIP3    H255168   6.540   1.887   9.125  0.8401  0.5145  1.0488
10325TIP3   OH255169   2.830   5.974   8.321  0.4470 -0.0309  0.2439
10325TIP3    H155170   2.788   5.937   8.399  1.8252  1.3937  1.7443
10325TIP3    H255171   2.923   5.977   8.344  0.9676 -0.1662 -1.7368
10326TIP3   OH255172   0.665   2.240   7.040  1.0080  0.0817 -0.8119
10326TIP3    H155173   0.737   2.288   6.998  0.4962  1.1338 -0.5061
10326TIP3    H255174   0.709   2.180   7.100  1.6246  1.2081 -0.1032
10327TIP3   OH255175   2.926   2.513   8.053  0.1699 -0.2972  0.0483
10327TIP3    H155176   2.906   2.424   8.082 -1.2582  0.8122  2.8171
10327TIP3    H255177   2.848   2.540   8.004 -0.8454  0.4877  2.0115
10328TIP3   OH255178   2.865   5.655   8.914 -0.1157 -0.4406  0.1369
10328TIP3    H155179   2.842   5.688   8.827  0.3940 -3.5103 -1.2975
10328TIP3    H255180   2.788   5.675   8.968 -1.5531 -0.7112 -1.7013
10329TIP3   OH255181   5.671   3.945   7.689  0.2284  0.0541 -0.1938
10329TIP3    H155182   5.698   3.853   7.693  0.5046  0.0112 -2.0400
10329TIP3    H255183   5.588   3.948   7.737  1.2576 -0.7075  1.7235
10330TIP3   OH255184   4.214   6.240   8.125 -0.1947  0.0560 -0.7013
10330TIP3    H155185   4.222   6.146   8.108  0.7207 -0.2584  1.2158
10330TIP3    H255186   4.303   6.274   8.115 -0.4539  0.6677 -1.0232
10331TIP3   OH255187   1.778   0.533   6.449  0.0082 -0.8575  0.5384
10331TIP3    H155188   1.819   0.596   6.389  0.2245  0.3823  1.9208
10331TIP3    H255189   1.852   0.490   6.492 -0.1408 -1.2688  0.3806
10332TIP3   OH255190   2.404   5.838   8.340 -0.0368  0.3565 -0.1422
10332TIP3    H155191   2.334   5.785   8.377  0.9386 -1.2136 -0.4374
10332TIP3    H255192   2.360   5.898   8.280 -1.2066  0.0509  0.3856
10333TIP3   OH255193   2.395   5.330   9.498  0.1895  0.1804  0.1184
10333TIP3    H155194   2.391   5.260   9.432  1.1334 -0.5306  0.7863
10333TIP3    H255195   2.385   5.411   9.448  1.3415 -0.3113 -0.9725
10334TIP3   OH255196   5.637   4.794  10.001  0.1187 -0.0619 -0.2188
10334TIP3    H155197   5.559   4.738  10.008 -0.6654  1.0521  0.1513
10334TIP3    H255198   5.707   4.742  10.042 -0.9186 -0.1746  1.4696
10335TIP3   OH255199   4.957   3.878  10.051 -0.2093  0.1118 -0.0594
10335TIP3    H155200   4.975   3.849  10.140  1.3776 -0.4147 -0.5067
10335TIP3    H255201   4.982   3.970  10.050 -0.8115  0.2826  0.1815
10336TIP3   OH255202   3.367   1.138   8.836 -0.1429 -0.0306 -0.1122
10336TIP3    H155203   3.361   1.119   8.930  1.1092  0.3195  0.0566
10336TIP3    H255204   3.352   1.233   8.831 -1.1808 -0.1903 -0.3936
10337TIP3   OH255205   0.139   5.723   7.470  0.3071  0.0662  0.2517
10337TIP3    H155206   0.108   5.633   7.472  0.3392  0.0594  0.6281
10337TIP3    H255207   0.067   5.773   7.433  0.6102 -0.2341 -0.7542
10338TIP3   OH255208   6.325   1.249   8.020 -0.3161 -0.4442  0.2395
10338TIP3    H155209   6.302   1.337   8.049  0.7667  0.2383 -0.8621
10338TIP3    H255210   6.319   1.195   8.099  1.7346  1.1669  1.6218
10339TIP3   OH255211   5.372   6.332   6.851 -0.4767 -0.0433 -0.0168
10339TIP3    H155212   5.284   6.325   6.890  0.1676 -0.0917  1.4866
10339TIP3    H255213   5.372   6.267   6.780 -0.8432 -1.8647  1.5745
10340TIP3   OH255214   1.858   6.064   7.425  0.2380 -0.5521 -0.2005
10340TIP3    H155215   1.872   6.008   7.502  0.1973 -0.4348 -0.1081
10340TIP3    H255216   1.764   6.082   7.425  0.4600  0.7304  0.6157
10341TIP3   OH255217   6.718   4.980   7.278 -0.1357  0.2668  0.3153
10341TIP3    H155218   6.713   4.948   7.368 -1.8042  1.7954  0.8111
10341TIP3    H255219   6.644   4.939   7.233  1.6113 -1.8223 -0.9092
10342TIP3   OH255220   0.376   0.892   8.624 -0.5101  0.8412 -0.4342
10342TIP3    H155221   0.382   0.925   8.713 -1.3324  1.0539 -0.4501
10342TIP3    H255222   0.420   0.958   8.571 -0.8562  1.1934 -0.2922
10343TIP3   OH255223   4.291   4.047   8.240  0.4978 -0.4207  0.1021
10343TIP3    H155224   4.302   4.061   8.334 -3.2694  0.6674  0.5501
10343TIP3    H255225   4.331   4.125   8.200  0.7068 -0.0993  0.9162
10344TIP3   OH255226   2.167   1.764   8.025  0.0538  0.5352 -0.0331
10344TIP3    H155227   2.166   1.733   7.934 -1.1162 -2.1351  0.7778
10344TIP3    H255228   2.076   1.752   8.054  0.0990  2.6415  1.1279
10345TIP3   OH255229   5.019   3.192   9.240  0.5621 -0.7605 -0.3971
10345TIP3    H155230   4.939   3.155   9.201  0.4377 -1.0049  0.0726
10345TIP3    H255231   4.987   3.259   9.301  0.8597  1.8993 -2.9625
10346TIP3   OH255232   5.621   2.882   6.858 -0.6366 -0.4179  0.4193
10346TIP3    H155233   5.694   2.923   6.905  0.2020 -0.6695 -0.6269
10346TIP3    H255234   5.629   2.789   6.876  0.0919 -0.5979 -0.7165
10347TIP3   OH255235   6.348   3.607   6.989  0.0097  0.3157  0.1534
10347TIP3    H155236   6.267   3.645   7.024 -0.3469 -0.1441 -0.1537
10347TIP3    H255237   6.417   3.665   7.020 -0.5470  1.4055 -0.5717
10348TIP3   OH255238   1.693   5.650   8.367  0.2996 -0.1595 -0.1635
10348TIP3    H155239   1.653   5.604   8.294  0.3670 -1.7979  0.7827
10348TIP3    H255240   1.774   5.602   8.385  0.6211  0.6220  0.5695
10349TIP3   OH255241   0.531   3.061   9.099  0.2266 -0.0340  0.6144
10349TIP3    H155242   0.587   3.036   9.025 -0.1788  1.5950 -0.3136
10349TIP3    H255243   0.460   2.996   9.098  0.0997  0.0839 -0.6209
10350TIP3   OH255244   1.062   2.979   9.179  0.1221 -0.6176 -0.2810
10350TIP3    H155245   1.034   2.911   9.118  0.1413  0.4681 -1.5614
10350TIP3    H255246   1.127   3.030   9.130  0.9780 -0.3774  1.0556
10351TIP3   OH255247   5.481   2.482   9.428  0.7897 -0.0888 -0.6699
10351TIP3    H155248   5.515   2.402   9.468 -0.5952 -0.1768  0.4542
10351TIP3    H255249   5.558   2.528   9.395  1.5599 -2.1676 -1.9273
10352TIP3   OH255250   2.353   2.107   8.895 -0.0309 -0.1745  0.4092
10352TIP3    H155251   2.419   2.174   8.877  1.6261 -1.5920  0.8292
10352TIP3    H255252   2.356   2.096   8.990 -1.2502  0.0894  0.4825
10353TIP3   OH255253   6.416   5.655   8.151  0.1929  0.5818 -0.0864
10353TIP3    H155254   6.421   5.597   8.075 -1.0982 -0.3627  0.5112
10353TIP3    H255255   6.383   5.738   8.117 -3.3417 -0.6998 -0.2040
10354TIP3   OH255256   0.738   5.194   8.601  0.0137 -0.1762 -0.4349
10354TIP3    H155257   0.648   5.177   8.575 -0.6779 -0.6425  2.0166
10354TIP3    H255258   0.735   5.277   8.648  1.3822  1.1354 -2.4615
10355TIP3   OH255259   1.751   4.654   6.653  0.1016 -0.7719  0.8657
10355TIP3    H155260   1.839   4.690   6.640  0.3049 -1.2387  0.9081
10355TIP3    H255261   1.760   4.597   6.729 -0.5735  0.2806  1.7669
10356TIP3   OH255262   3.477   0.451   7.845 -0.1981  0.1697  0.4859
10356TIP3    H155263   3.406   0.484   7.791  0.3959  0.0492 -0.3805
10356TIP3    H255264   3.434   0.391   7.907 -0.8355  0.0397 -0.0755
10357TIP3   OH255265   3.408   0.996   6.642 -0.5721 -0.1921 -0.1262
10357TIP3    H155266   3.427   0.991   6.736 -1.5349 -1.1299  0.0327
10357TIP3    H255267   3.486   1.036   6.605 -0.5885  1.1864  1.2014
10358TIP3   OH255268   1.080   2.311   7.066 -0.6145  0.4281 -0.0416
10358TIP3    H155269   1.015   2.362   7.115  0.6688  0.5802  1.5864
10358TIP3    H255270   1.164   2.349   7.091  0.1903 -0.4071 -1.3406
10359TIP3   OH255271   1.669   2.964   8.213  0.0440 -0.5338  0.2965
10359TIP3    H155272   1.638   2.895   8.154  0.9439 -0.0599 -0.7800
10359TIP3    H255273   1.745   3.001   8.168  0.5858  0.0430  1.6452
10360TIP3   OH255274   5.892   0.480   8.779 -0.0620 -0.4767  0.7137
10360TIP3    H155275   5.864   0.511   8.692  0.9111  0.9564  0.8715
10360TIP3    H255276   5.834   0.407   8.798 -1.7720  0.5670 -0.2045
10361TIP3   OH255277   1.857   3.229  10.163  0.0917 -0.0126  0.0165
10361TIP3    H155278   1.947   3.259  10.148  0.6269 -0.8190  1.4269
10361TIP3    H255279   1.804   3.308  10.153  1.3737  1.3628  2.8115
10362TIP3   OH255280   2.102   1.151   8.428  0.3097  0.2556  0.0395
10362TIP3    H155281   2.098   1.057   8.446 -0.9162  0.1544 -0.6824
10362TIP3    H255282   2.156   1.187   8.499 -1.0737 -0.6738  1.6152
10363TIP3   OH255283   2.419   4.895   9.224  0.1473 -0.4034  0.8700
10363TIP3    H155284   2.346   4.833   9.236  1.2877 -1.6161  1.8697
10363TIP3    H255285   2.419   4.914   9.131 -2.0910  0.4699  0.9689
10364TIP3   OH255286   2.619   2.794  10.137  0.4278  0.4259 -0.5000
10364TIP3    H155287   2.600   2.726  10.073  2.8784 -1.2366  0.4045
10364TIP3    H255288   2.673   2.751  10.203 -0.4138  2.5340  1.7228
10365TIP3   OH255289   4.307   3.541   7.804  0.0584  0.4077  0.4389
10365TIP3    H155290   4.340   3.629   7.824  1.9080 -0.1397 -0.0379
10365TIP3    H255291   4.280   3.505   7.889 -0.0908  1.1802  0.7272
10366TIP3   OH255292   4.704   5.234   8.877  0.1813  0.0155  0.3337
10366TIP3    H155293   4.780   5.224   8.934  0.8989  0.4101 -0.5366
10366TIP3    H255294   4.637   5.272   8.934  1.0773  0.9829  0.7703
10367TIP3   OH255295   3.770   5.320   6.703  0.4231  0.2643  0.7827
10367TIP3    H155296   3.710   5.386   6.736  1.5925  1.9306 -0.2203
10367TIP3    H255297   3.781   5.259   6.775 -1.6089  0.4984  1.3445
10368TIP3   OH255298   4.100   0.384   8.756  0.4422 -0.1469  0.1963
10368TIP3    H155299   4.088   0.382   8.661 -0.5610 -0.3744  0.3159
10368TIP3    H255300   4.194   0.393   8.768  0.5252  0.6097 -0.8318
10369TIP3   OH255301   2.753   1.265   6.311  0.3245 -0.7588 -0.1484
10369TIP3    H155302   2.664   1.261   6.347 -0.0307 -0.6140 -0.9921
10369TIP3    H255303   2.742   1.303   6.224  0.9666 -2.4654 -1.0254
10370TIP3   OH255304   3.751   6.641   7.394  0.0525 -0.3266  0.8076
10370TIP3    H155305   3.662   6.675   7.406  0.0736 -0.2993  0.8874
10370TIP3    H255306   3.799   6.712   7.351  0.0866 -0.2678  0.9412
10371TIP3   OH255307   1.328   3.058   7.349  0.5293  0.0940 -0.2697
10371TIP3    H155308   1.303   3.086   7.261  0.1857 -1.3933 -0.6771
10371TIP3    H255309   1.403   3.000   7.335  1.5082  1.1330  0.5763
10372TIP3   OH255310   5.962   4.919   9.106  0.1007 -0.7147  0.3119
10372TIP3    H155311   5.895   4.880   9.162  0.0727  0.0408  0.8173
10372TIP3    H255312   5.913   4.964   9.037  0.0902 -0.3417  0.5604
10373TIP3   OH255313   0.583   4.541   7.281 -0.1726 -0.0602  0.0308
10373TIP3    H155314   0.606   4.485   7.355  1.1670 -0.3617 -0.5907
10373TIP3    H255315   0.512   4.494   7.237 -1.3154  0.3503  1.3625
10374TIP3   OH255316   2.477   1.869   9.059 -0.5476 -0.6727  0.3825
10374TIP3    H155317   2.410   1.912   9.112  0.4467 -1.3198  2.2518
10374TIP3    H255318   2.506   1.936   8.996 -0.5522  0.7028  1.8051
10375TIP3   OH255319   4.301   3.214   7.933  0.2271 -0.0565 -0.8083
10375TIP3    H155320   4.392   3.194   7.914 -0.2057 -1.6319 -1.3062
10375TIP3    H255321   4.304   3.258   8.018  1.3337 -1.2308 -0.2137
10376TIP3   OH255322   2.708   2.545   7.877 -0.2216  0.3147 -0.3225
10376TIP3    H155323   2.660   2.506   7.950 -1.0650 -1.6007 -1.8083
10376TIP3    H255324   2.646   2.545   7.805  1.3432 -0.2567 -1.7267
10377TIP3   OH255325   2.074   6.430   7.434  0.0583 -0.0304  0.3787
10377TIP3    H155326   2.110   6.342   7.421 -1.3215 -0.7319  1.1331
10377TIP3    H255327   2.020   6.423   7.512 -1.2111  1.1207 -0.3504
10378TIP3   OH255328   5.360   0.097   6.616 -0.3920 -0.4925  0.2487
10378TIP3    H155329   5.443   0.105   6.663  0.6761 -1.6342 -1.3271
10378TIP3    H255330   5.356   0.176   6.562  1.5652 -2.0247 -2.3848
10379TIP3   OH255331   3.462   4.808   8.200  0.2972  0.6311  0.1663
10379TIP3    H155332   3.525   4.862   8.247  0.4690  1.2048 -0.6898
10379TIP3    H255333   3.404   4.872   8.156 -0.5830  0.1213  0.5515
10380TIP3   OH255334   4.993   1.853   8.393  0.3665 -0.1188  0.8795
10380TIP3    H155335   4.949   1.932   8.363 -0.4616 -0.1709  1.8615
10380TIP3    H255336   4.993   1.795   8.317  0.9548  0.7987  0.1619
10381TIP3   OH255337   6.156   3.631   7.671  0.1473  0.4938  0.2861
10381TIP3    H155338   6.163   3.674   7.586  0.5958 -1.6487 -0.8374
10381TIP3    H255339   6.241   3.590   7.684 -0.6646 -1.1684  0.6107
10382TIP3   OH255340   0.854   5.960   7.058 -0.1742 -0.4725 -0.1508
10382TIP3    H155341   0.869   6.044   7.102  1.5555 -0.8099 -0.0101
10382TIP3    H255342   0.862   5.895   7.128  1.0922 -0.9098 -0.6734
10383TIP3   OH255343   2.818   1.128   9.215 -0.0126 -0.4519  0.8734
10383TIP3    H155344   2.882   1.089   9.274 -0.3351 -0.5311  1.1707
10383TIP3    H255345   2.735   1.086   9.237  0.2250 -2.1765 -1.1530
10384TIP3   OH255346   0.213   0.847   8.914 -0.4069  0.0310 -0.5209
10384TIP3    H155347   0.234   0.769   8.863 -1.2938  0.3583 -1.4162
10384TIP3    H255348   0.123   0.831   8.945  0.1272 -0.1861  1.0047
10385TIP3   OH255349   5.060   4.236   7.019 -0.5508  0.6105 -0.4542
10385TIP3    H155350   4.976   4.280   7.034 -1.1159 -0.6970  0.3614
10385TIP3    H255351   5.125   4.302   7.040 -1.3608  0.6361  2.3889
10386TIP3   OH255352   2.206   4.384   9.304 -0.2303 -0.1099 -0.0193
10386TIP3    H155353   2.213   4.339   9.221  2.8273  1.5070 -0.7844
10386TIP3    H255354   2.296   4.408   9.327 -0.6972 -1.6879  4.5074
10387TIP3   OH255355   1.256   1.355   8.872  0.2351 -0.2238 -0.2216
10387TIP3    H155356   1.182   1.342   8.932  1.0702 -0.6110  0.7699
10387TIP3    H255357   1.284   1.266   8.849  0.0816 -0.0767 -0.9965
10388TIP3   OH255358   3.886   3.682   7.088  0.4604  0.5207 -0.0813
10388TIP3    H155359   3.813   3.717   7.038 -0.5580 -0.5003  0.6506
10388TIP3    H255360   3.899   3.594   7.052 -1.2429 -0.8143  2.3205
10389TIP3   OH255361   3.295   4.700   9.061  0.2001 -0.3192 -1.0932
10389TIP3    H155362   3.323   4.619   9.105  0.3742  0.5242  0.4089
10389TIP3    H255363   3.201   4.704   9.076  0.4689  0.7027  0.5334
10390TIP3   OH255364   3.033   1.662   8.238 -0.0466 -0.5596  0.0874
10390TIP3    H155365   2.981   1.583   8.254 -0.6029  0.0519  1.5090
10390TIP3    H255366   3.122   1.638   8.261 -0.1053 -0.9563 -0.1001
10391TIP3   OH255367   3.234   2.093   8.020 -0.3384 -0.1792 -0.4158
10391TIP3    H155368   3.171   2.093   8.092 -0.2092 -0.7228 -0.2999
10391TIP3    H255369   3.191   2.045   7.950  0.1653 -1.0664 -0.1348
10392TIP3   OH255370   6.458   1.076   8.503 -0.3456  0.2560 -0.1835
10392TIP3    H155371   6.387   1.065   8.440 -0.0850 -0.1711 -0.4047
10392TIP3    H255372   6.536   1.091   8.449  0.4447 -2.9579 -0.1213
10393TIP3   OH255373   2.276   1.581   8.857  0.6919 -0.5539 -0.6587
10393TIP3    H155374   2.365   1.567   8.892  0.1022  1.6828  2.1801
10393TIP3    H255375   2.276   1.673   8.829 -1.3974  0.4923  2.2445
10394TIP3   OH255376   5.736   5.709   6.729 -0.8309  0.3835  0.2088
10394TIP3    H155377   5.730   5.710   6.633 -1.4107 -0.5772  0.2206
10394TIP3    H255378   5.828   5.694   6.747 -0.7699  0.2402 -0.2045
10395TIP3   OH255379   2.569   3.654   9.603  0.1941 -0.4290 -0.5690
10395TIP3    H155380   2.645   3.645   9.661  0.1523  2.9811  0.2414
10395TIP3    H255381   2.604   3.695   9.524 -0.5672 -0.0463 -0.7209
10396TIP3   OH255382   3.312   0.443   9.297  0.4864 -0.8068  0.2040
10396TIP3    H155383   3.265   0.485   9.369 -1.0236  0.2681 -1.3207
10396TIP3    H255384   3.400   0.481   9.299  0.5189 -0.9173  1.5433
10397TIP3   OH255385   2.583   2.160   9.036  0.3820  0.1372  0.2366
10397TIP3    H155386   2.673   2.173   9.008  0.0273  1.0355 -0.5759
10397TIP3    H255387   2.582   2.184   9.128  0.5771  2.2921 -0.2556
10398TIP3   OH255388   0.096   4.096   9.765 -0.2068  0.0132 -0.1869
10398TIP3    H155389   0.162   4.125   9.702  1.3104 -0.7636  0.9789
10398TIP3    H255390   0.142   4.033   9.821 -1.1474  1.4834  2.4150
10399TIP3   OH255391   1.726   5.806   7.153  0.0527  0.0502  0.2485
10399TIP3    H155392   1.757   5.762   7.232 -1.7260 -0.0265  0.9499
10399TIP3    H255393   1.659   5.867   7.184 -0.9404 -0.2424 -1.2453
10400TIP3   OH255394   5.552   4.935   7.343  0.5876 -0.2273  0.2048
10400TIP3    H155395   5.616   4.916   7.411  1.6746 -1.7735 -1.1554
10400TIP3    H255396   5.468   4.908   7.381  0.6871  1.6761  1.9454
10401TIP3   OH255397   2.677   5.401   8.970  0.0294 -0.2044  0.0467
10401TIP3    H155398   2.652   5.492   8.989  1.7556  0.0401  1.4153
10401TIP3    H255399   2.770   5.397   8.991  0.3688 -1.9062 -1.5740
10402TIP3   OH255400   6.486   3.335   9.469 -0.5206 -0.2514  0.2522
10402TIP3    H155401   6.392   3.346   9.454 -0.2480  0.9360 -0.7109
10402TIP3    H255402   6.514   3.417   9.509  0.7754  1.0814 -3.0591
10403TIP3   OH255403   6.457   0.374   9.457 -0.1257  0.1869  0.2473
10403TIP3    H155404   6.370   0.408   9.436  0.5586  1.3708 -0.8122
10403TIP3    H255405   6.441   0.291   9.501 -1.7764  0.0254 -0.6054
10404TIP3   OH255406   0.655   2.382   9.090  0.3951  0.1604 -0.4195
10404TIP3    H155407   0.654   2.451   9.024  1.7114  1.0630  0.4482
10404TIP3    H255408   0.631   2.426   9.172  1.9304 -0.2072  0.2730
10405TIP3   OH255409   5.030   4.691   9.164 -0.6217  0.1546  0.4185
10405TIP3    H155410   5.058   4.757   9.227  0.1503  0.6575 -0.4374
10405TIP3    H255411   5.110   4.661   9.122 -1.0599 -0.6376  0.1094
10406TIP3   OH255412   1.100   2.061   9.955  0.4383 -0.1600 -0.1220
10406TIP3    H155413   1.040   2.136   9.951  0.9215  0.2958  0.8847
10406TIP3    H255414   1.047   1.987   9.925 -0.5682  0.2756  0.5261
10407TIP3   OH255415   2.330   5.233   8.646  0.0275  0.2160  0.5112
10407TIP3    H155416   2.409   5.279   8.673  0.2084 -0.2212  0.7281
10407TIP3    H255417   2.315   5.263   8.556  0.3038  0.4796  0.5517
10408TIP3   OH255418   4.150   1.610   6.537  0.4741  0.0412 -0.2041
10408TIP3    H155419   4.134   1.553   6.612  1.6117  2.1347  1.7727
10408TIP3    H255420   4.246   1.616   6.532  0.4060  2.4055  0.2456
10409TIP3   OH255421   5.037   2.328   7.294  0.0904 -0.3507  0.2651
10409TIP3    H155422   4.956   2.283   7.270 -0.6568 -0.6240  2.9659
10409TIP3    H255423   5.097   2.257   7.319 -0.5405 -0.0798  2.9248
10410TIP3   OH255424   4.904   3.099   8.783  0.1944 -0.2751 -0.1044
10410TIP3    H155425   4.973   3.166   8.788  0.9446 -1.0928  1.1632
10410TIP3    H255426   4.824   3.145   8.808  0.5700  0.3187  0.0155
10411TIP3   OH255427   5.350   2.136   7.911  0.4171  0.0585  0.6611
10411TIP3    H155428   5.347   2.230   7.894 -0.4527  0.5975  3.2620
10411TIP3    H255429   5.258   2.109   7.912  0.6991 -1.2949 -1.9533
10412TIP3   OH255430   4.773   1.051   7.196 -0.2541 -0.0424 -0.0482
10412TIP3    H155431   4.761   1.096   7.280 -1.5510  0.5904 -0.5487
10412TIP3    H255432   4.844   0.989   7.213 -2.3528 -1.9828  2.3534
10413TIP3   OH255433   2.838   5.879   9.189  0.0009 -0.1733 -0.1252
10413TIP3    H155434   2.836   5.792   9.227  1.6738 -0.3334 -0.3598
10413TIP3    H255435   2.893   5.930   9.249  0.8484  0.1357 -1.1408
10414TIP3   OH255436   5.548   0.249   7.565 -0.3579  0.3458 -0.0628
10414TIP3    H155437   5.533   0.313   7.495 -1.4500  1.8212  1.4578
10414TIP3    H255438   5.461   0.229   7.599  0.2323  0.8284  1.8561
10415TIP3   OH255439   6.344   4.134  10.388 -0.4244  0.4984  0.5921
10415TIP3    H155440   6.417   4.166  10.335  0.1324  0.7308  1.4797
10415TIP3    H255441   6.320   4.050  10.348  0.5891  0.2336  0.5298
10416TIP3   OH255442   5.981   1.612   8.134  0.0193 -0.3512 -0.0170
10416TIP3    H155443   5.979   1.555   8.057  2.1446  1.3965 -1.5125
10416TIP3    H255444   6.014   1.696   8.101 -1.9476  1.4773  2.2577
10417TIP3   OH255445   1.737   2.276   7.128 -0.3754 -0.6328  0.3814
10417TIP3    H155446   1.658   2.292   7.076  0.8467 -1.7262 -1.9637
10417TIP3    H255447   1.735   2.182   7.146  0.7981 -0.8435 -0.4830
10418TIP3   OH255448   4.161   1.784   7.694  0.1702  0.2283  0.5568
10418TIP3    H155449   4.245   1.796   7.738  0.5980 -1.1688  0.1832
10418TIP3    H255450   4.171   1.828   7.610 -0.1373  1.6506  1.2436
10419TIP3   OH255451   1.722   0.706   7.868 -0.0110 -0.4771 -0.4037
10419TIP3    H155452   1.632   0.734   7.885 -0.0558 -0.8307 -0.0242
10419TIP3    H255453   1.771   0.787   7.857 -0.5366 -0.2930 -1.4607
10420TIP3   OH255454   6.388   2.922   9.630 -0.6708 -0.4587 -0.0078
10420TIP3    H155455   6.454   2.859   9.658 -1.4079 -1.1317  0.2530
10420TIP3    H255456   6.409   3.002   9.677 -0.7258 -1.0062  0.9666
10421TIP3   OH255457   3.174   1.771   8.561  0.1467 -0.3952  0.1592
10421TIP3    H155458   3.094   1.793   8.514 -0.0862 -1.2107  0.1738
10421TIP3    H255459   3.244   1.784   8.497  0.1027  1.1173  0.3818
10422TIP3   OH255460   4.939   2.542   8.809 -0.6786  0.4079  0.2930
10422TIP3    H155461   4.997   2.611   8.778 -1.2043 -0.1166 -2.0600
10422TIP3    H255462   4.916   2.568   8.898  2.4132  1.0706  0.9947
10423TIP3   OH255463   5.832   4.717   7.508  0.1293  0.2707 -0.0109
10423TIP3    H155464   5.794   4.654   7.569  1.9337 -0.2930  0.5913
10423TIP3    H255465   5.850   4.666   7.429 -2.1887  0.9959 -1.0786
10424TIP3   OH255466   0.062   2.605   7.557  0.0986  0.6511 -0.6003
10424TIP3    H155467   0.126   2.553   7.605 -1.0204  0.1649  0.4011
10424TIP3    H255468   0.024   2.663   7.623 -2.2230 -0.7565 -0.5958
10425TIP3   OH255469   5.391   4.828   8.632  0.2387 -0.3076  0.2437
10425TIP3    H155470   5.328   4.866   8.693 -1.2661 -0.0125 -1.4059
10425TIP3    H255471   5.401   4.738   8.660 -0.8293 -0.3190  0.6351
10426TIP3   OH255472   1.723   1.404   9.470 -0.3062  0.2298  0.2111
10426TIP3    H155473   1.708   1.472   9.404 -0.2561  0.8463  0.8334
10426TIP3    H255474   1.787   1.346   9.429  0.9798  1.4999  0.3343
10427TIP3   OH255475   6.341   0.769   6.650 -0.1756  0.2038  0.2084
10427TIP3    H155476   6.309   0.745   6.563  1.2982 -0.5619 -0.1627
10427TIP3    H255477   6.302   0.705   6.708 -1.5069  0.9708  0.2057
10428TIP3   OH255478   3.750   3.079   6.619 -0.1160 -0.3581 -0.1098
10428TIP3    H155479   3.816   3.085   6.550  1.4799 -1.1271  1.2594
10428TIP3    H255480   3.761   2.991   6.655 -0.2452  0.3141  1.7138
10429TIP3   OH255481   1.536   4.618   7.002  0.5595  0.0133  0.4921
10429TIP3    H155482   1.498   4.605   7.089  0.1133  0.1696  0.3214
10429TIP3    H255483   1.509   4.706   6.976 -0.9866 -0.7396 -0.6263
10430TIP3   OH255484   4.043   1.378   8.226 -0.0246 -0.0614 -0.4878
10430TIP3    H155485   4.109   1.346   8.164  0.6876  0.1643  0.1403
10430TIP3    H255486   4.092   1.434   8.287 -0.1685 -2.3020  1.8706
10431TIP3   OH255487   3.764   2.778   7.010  0.3087  0.1676  0.3810
10431TIP3    H155488   3.858   2.785   6.999  0.2780  1.1702  0.6071
10431TIP3    H255489   3.746   2.828   7.090 -0.3353 -0.5780  0.7134
10432TIP3   OH255490   1.676   2.271   7.447  0.0608 -0.1357 -0.3523
10432TIP3    H155491   1.727   2.212   7.503 -0.6241  0.5320  1.0353
10432TIP3    H255492   1.669   2.225   7.364  0.5252 -1.4922  0.3220
10433TIP3   OH255493   5.232   1.867   7.622  0.5769  0.5597 -0.1943
10433TIP3    H155494   5.269   1.893   7.538 -0.4489 -0.5019 -1.0157
10433TIP3    H255495   5.174   1.939   7.647 -1.1485 -0.2111 -1.7330
10434TIP3   OH255496   2.936   2.680   6.399 -0.0947  0.0856  0.6609
10434TIP3    H155497   2.908   2.668   6.308  1.2487 -0.4626  0.3033
10434TIP3    H255498   2.927   2.594   6.438  2.2865 -0.4322  0.1753
10435TIP3   OH255499   0.733   6.135   6.861  0.2205 -0.1283 -0.1461
10435TIP3    H155500   0.793   6.143   6.936  1.0781  0.1895 -0.8415
10435TIP3    H255501   0.679   6.214   6.866 -1.6681 -1.4348  1.7285
10436TIP3   OH255502   6.116   1.344   9.540 -0.0122 -0.2984  0.1628
10436TIP3    H155503   6.122   1.358   9.446 -1.1884  0.1477  0.1433
10436TIP3    H255504   6.061   1.267   9.550 -1.1830  0.5551  0.5063
10437TIP3   OH255505   0.385   0.534   7.531  0.0607  0.2705  0.7315
10437TIP3    H155506   0.440   0.611   7.513  0.6069 -0.4493 -0.8258
10437TIP3    H255507   0.343   0.514   7.447 -0.5222 -0.7875  1.2619
10438TIP3   OH255508   0.970   3.428   7.373  0.3482  0.8302 -0.3334
10438TIP3    H155509   0.920   3.449   7.452  0.5257  1.5710 -0.4111
10438TIP3    H255510   1.025   3.505   7.358  2.4259 -0.4187  0.4387
10439TIP3   OH255511   2.167   5.802   9.489 -0.2097  0.2848 -0.1702
10439TIP3    H155512   2.260   5.790   9.472 -0.3513 -0.8768 -0.2172
10439TIP3    H255513   2.146   5.886   9.448  1.0809  1.2202  0.9701
   6.72186   6.72186  30.00000
