Title
55513
    1DOPE     N    1   4.921   4.749   7.023  0.5882 -0.6723 -0.2513
    1DOPE   HN1    2   4.930   4.836   6.966  3.2937 -1.7478 -1.6319
    1DOPE   HN2    3   4.859   4.777   7.102  1.3536  0.6608 -0.0981
    1DOPE   HN3    4   5.018   4.731   7.053  0.5531 -2.8090 -1.2673
    1DOPE   C12    5   4.855   4.640   6.945  0.0539  0.3672  0.1313
    1DOPE  H12A    6   4.906   4.544   6.968 -0.5742 -0.0453 -0.1687
    1DOPE  H12B    7   4.870   4.661   6.837  1.4084 -1.5528 -0.1115
    1DOPE   C11    8   4.702   4.639   6.969  0.2582  0.6360 -0.6526
    1DOPE  H11A    9   4.656   4.573   6.892 -2.5661 -0.8215  2.0584
    1DOPE  H11B   10   4.663   4.741   6.950 -0.6192  0.8064  1.7289
    1DOPE     P   11   4.654   4.662   7.226  0.0322 -0.2768 -0.0168
    1DOPE   O13   12   4.761   4.762   7.238 -0.0724  0.3696  0.1480
    1DOPE   O14   13   4.638   4.565   7.337  0.4931 -0.4869 -0.1862
    1DOPE   O11   14   4.525   4.732   7.178 -0.0397 -0.1577 -0.6325
    1DOPE   O12   15   4.672   4.582   7.097  0.1692 -0.4361 -0.0687
    1DOPE    C1   16   4.402   4.670   7.136 -0.7210 -0.0291 -0.1707
    1DOPE    HA   17   4.324   4.701   7.208  0.7290 -0.6370  1.7805
    1DOPE    HB   18   4.405   4.559   7.135 -0.4238 -0.0422  0.7454
    1DOPE    C2   19   4.356   4.725   6.997  0.6454 -0.0794  0.1985
    1DOPE    HS   20   4.434   4.680   6.932  0.2425  0.8926 -1.0106
    1DOPE   O21   21   4.359   4.874   6.989 -0.2462 -0.1734 -0.0728
    1DOPE   C21   22   4.375   4.919   6.863  0.2352  0.1904 -0.8480
    1DOPE   O22   23   4.439   4.856   6.778 -0.4776  0.1394 -0.3420
    1DOPE   C22   24   4.312   5.057   6.839 -0.0653  0.5323 -0.3591
    1DOPE   H2R   25   4.245   5.074   6.926 -1.2206 -1.1848 -0.8626
    1DOPE   H2S   26   4.252   5.042   6.747  1.0340 -2.5721 -0.7065
    1DOPE    C3   27   4.222   4.670   6.941 -0.0964  0.5424  0.5051
    1DOPE    HX   28   4.129   4.707   6.988 -1.8951 -1.5278 -1.1900
    1DOPE    HY   29   4.205   4.563   6.966 -1.9380  0.4703 -0.8926
    1DOPE   O31   30   4.212   4.689   6.799 -0.5407 -0.5417  0.2640
    1DOPE   C31   31   4.253   4.587   6.721 -0.2750  0.4924 -0.5479
    1DOPE   O32   32   4.297   4.481   6.762  0.3621 -0.0030  0.0053
    1DOPE   C32   33   4.251   4.634   6.576 -0.0198 -0.5583 -0.1844
    1DOPE   H2X   34   4.257   4.745   6.573  0.2856 -0.5694  0.0150
    1DOPE   H2Y   35   4.345   4.590   6.535  0.8036  2.7169 -2.1598
    1DOPE   C23   36   4.411   5.164   6.805 -0.1476  0.1640 -1.1687
    1DOPE   H3R   37   4.490   5.121   6.739  2.3911  0.3921  1.5135
    1DOPE   H3S   38   4.457   5.196   6.901 -1.1777  0.1787 -0.6674
    1DOPE   C24   39   4.340   5.286   6.738 -0.2259  0.2454 -0.2164
    1DOPE   H4R   40   4.374   5.383   6.779  1.9550 -0.1070 -1.0724
    1DOPE   H4S   41   4.232   5.267   6.754  0.1039  0.1104  2.1215
    1DOPE   C25   42   4.367   5.287   6.585  0.3441 -0.4824  0.2836
    1DOPE   H5R   43   4.294   5.353   6.535 -0.7392 -1.3637  0.6630
    1DOPE   H5S   44   4.354   5.183   6.547  1.9960 -0.9690  0.9350
    1DOPE   C26   45   4.516   5.330   6.557  0.4057 -0.6849  0.6289
    1DOPE   H6R   46   4.586   5.252   6.594  0.9317  0.2828  1.7373
    1DOPE   H6S   47   4.532   5.421   6.619 -2.6243 -0.1638  0.7788
    1DOPE   C27   48   4.550   5.364   6.413  0.1664  0.2135 -0.4696
    1DOPE   H7R   49   4.657   5.394   6.412  0.1929  0.1303 -0.0637
    1DOPE   H7S   50   4.482   5.444   6.377 -0.5311  1.6596  3.5642
    1DOPE   C28   51   4.527   5.242   6.318  0.9189 -0.1366  0.2826
    1DOPE   H8R   52   4.423   5.205   6.313  1.3974 -1.4283 -0.7482
    1DOPE   H8S   53   4.598   5.160   6.345  1.2745  0.2613  0.5757
    1DOPE   C29   54   4.564   5.280   6.184  1.0111  0.0984  0.2803
    1DOPE   H9R   55   4.578   5.389   6.170  0.0644 -0.0765 -2.6591
    1DOPE  C210   56   4.565   5.204   6.077  0.5544 -0.3978 -0.1480
    1DOPE  H10R   57   4.605   5.246   5.983  0.5332 -1.0665 -0.4647
    1DOPE  C211   58   4.522   5.059   6.072  0.3114 -0.4939  0.0600
    1DOPE  H11R   59   4.413   5.057   6.054  0.4437  0.1207 -0.8620
    1DOPE  H11S   60   4.543   5.003   6.166  1.8105  0.9869  0.6505
    1DOPE  C212   61   4.579   4.982   5.955  0.9649  0.1425  0.2162
    1DOPE  H12R   62   4.687   5.003   5.942  1.1185  1.8014  3.3435
    1DOPE  H12S   63   4.523   5.014   5.865 -0.6963  0.1674  1.2167
    1DOPE  C213   64   4.553   4.827   5.956  0.7149 -0.1611 -0.0337
    1DOPE  H13R   65   4.449   4.824   5.993 -0.3047  1.5473 -2.5098
    1DOPE  H13S   66   4.615   4.758   6.018 -0.4966  0.5731  2.1146
    1DOPE  C214   67   4.556   4.774   5.814  0.2284 -0.4179 -0.6120
    1DOPE  H14R   68   4.636   4.824   5.755 -1.0978  0.1529 -1.9990
    1DOPE  H14S   69   4.465   4.792   5.753  0.6336 -0.4643 -1.2450
    1DOPE  C215   70   4.580   4.624   5.788  0.3025 -0.0604 -0.6367
    1DOPE  H15R   71   4.484   4.577   5.818  0.5122 -0.4252 -0.5429
    1DOPE  H15S   72   4.657   4.579   5.853  0.0967  1.0332  0.4023
    1DOPE  C216   73   4.599   4.596   5.642 -0.8366 -0.2632 -0.5274
    1DOPE  H16R   74   4.700   4.632   5.614 -0.5037 -0.1855  0.7141
    1DOPE  H16S   75   4.527   4.655   5.582 -2.9626  0.5819  2.6390
    1DOPE  C217   76   4.598   4.438   5.620  0.8581 -0.1984 -0.8883
    1DOPE  H17R   77   4.509   4.402   5.675  1.7986 -0.3468  0.5794
    1DOPE  H17S   78   4.691   4.393   5.661 -0.6935 -1.6117  1.2522
    1DOPE  C218   79   4.581   4.398   5.475 -0.1407 -0.3414  0.6055
    1DOPE  H18R   80   4.589   4.288   5.456  1.4155 -0.1775  0.1657
    1DOPE  H18S   81   4.661   4.449   5.418 -0.5265 -0.8110 -0.3827
    1DOPE  H18T   82   4.483   4.439   5.442  0.5422  0.6045 -0.3100
    1DOPE   C33   83   4.123   4.585   6.516 -0.5395 -0.4788  0.2665
    1DOPE   H3X   84   4.042   4.628   6.580 -1.2020  0.2961 -1.0488
    1DOPE   H3Y   85   4.121   4.475   6.524 -2.8157 -0.3962  1.6627
    1DOPE   C34   86   4.105   4.621   6.373 -0.0940  0.1527  1.3484
    1DOPE   H4X   87   4.002   4.603   6.334  0.1559 -2.6980  1.7687
    1DOPE   H4Y   88   4.123   4.729   6.352  0.7800 -0.6938 -3.2498
    1DOPE   C35   89   4.194   4.533   6.282 -0.2224 -0.5649  0.2572
    1DOPE   H5X   90   4.184   4.429   6.319  0.2295 -0.6325  0.2046
    1DOPE   H5Y   91   4.297   4.574   6.289  0.4755 -2.3172  0.6358
    1DOPE   C36   92   4.144   4.552   6.142 -0.5826  0.1180  0.0228
    1DOPE   H6X   93   4.128   4.658   6.113 -0.3671  0.2760  0.4744
    1DOPE   H6Y   94   4.047   4.500   6.130 -0.2165 -0.4554 -0.5437
    1DOPE   C37   95   4.231   4.501   6.032 -0.1287  0.2972  0.0276
    1DOPE   H7X   96   4.323   4.562   6.026 -0.0994  0.4117  1.2948
    1DOPE   H7Y   97   4.252   4.396   6.062 -2.7105 -0.4604 -0.5159
    1DOPE   C38   98   4.153   4.512   5.896 -0.4821 -0.0378 -0.1399
    1DOPE   H8X   99   4.137   4.620   5.875 -0.4558 -0.0127 -0.0281
    1DOPE   H8Y  100   4.052   4.475   5.922 -0.3070 -0.5156 -0.1399
    1DOPE   C39  101   4.210   4.429   5.785 -0.3047  0.9720  0.2320
    1DOPE   H9X  102   4.217   4.324   5.815  0.0871  1.0856  0.5497
    1DOPE  C310  103   4.240   4.479   5.660 -0.8736  0.2710 -0.3529
    1DOPE  H10X  104   4.285   4.412   5.585 -1.5565  1.3700 -1.7871
    1DOPE  C311  105   4.236   4.616   5.609 -0.1329 -0.4722 -0.3914
    1DOPE  H11X  106   4.166   4.680   5.667 -0.6035 -1.6928  0.4066
    1DOPE  H11Y  107   4.337   4.663   5.609 -1.2257  2.1087 -1.1049
    1DOPE  C312  108   4.193   4.601   5.464  0.4574 -0.1017  0.0213
    1DOPE  H12X  109   4.088   4.566   5.456 -0.2435  2.3030 -3.1788
    1DOPE  H12Y  110   4.246   4.518   5.412 -0.4810 -0.8277  0.1996
    1DOPE  C313  111   4.213   4.724   5.373 -1.3273  0.0510 -0.8158
    1DOPE  H13X  112   4.127   4.793   5.390  0.0954  0.9870  3.7226
    1DOPE  H13Y  113   4.308   4.775   5.399 -0.8253 -0.2902 -1.8925
    1DOPE  C314  114   4.220   4.671   5.231  0.1078 -0.3224 -0.1058
    1DOPE  H14X  115   4.121   4.623   5.212  0.5942 -1.1182 -0.6823
    1DOPE  H14Y  116   4.305   4.602   5.212  1.0661  1.2426 -1.8593
    1DOPE  C315  117   4.246   4.781   5.134 -0.4264  0.0439  0.9218
    1DOPE  H15X  118   4.338   4.834   5.168 -0.6364  0.0321  1.5227
    1DOPE  H15Y  119   4.175   4.863   5.155  1.3571  1.8012  0.4270
    1DOPE  C316  120   4.260   4.740   4.988 -0.0628  0.4630  0.5133
    1DOPE  H16X  121   4.168   4.700   4.941  0.3269 -0.2683  0.3505
    1DOPE  H16Y  122   4.330   4.654   4.983  0.3550  0.8112  0.2398
    1DOPE  C317  123   4.333   4.840   4.901  0.6982  0.5806  0.5179
    1DOPE  H17X  124   4.426   4.869   4.954  1.5207 -0.3502 -0.3604
    1DOPE  H17Y  125   4.356   4.795   4.802 -3.3544 -1.2599  0.2098
    1DOPE  C318  126   4.247   4.960   4.868 -0.2002 -0.6241  0.8640
    1DOPE  H18X  127   4.200   5.007   4.958  0.7911 -0.9164  1.5566
    1DOPE  H18Y  128   4.302   5.046   4.826  0.2518 -0.7025  1.2840
    1DOPE  H18Z  129   4.178   4.936   4.785  0.2509  0.6293  0.1053
    2DOPE     N  130   4.044   6.117   7.438  1.1523 -0.0446  0.6315
    2DOPE   HN1  131   3.993   6.173   7.368  0.6018 -1.3673 -0.0651
    2DOPE   HN2  132   4.050   6.021   7.397  0.6808 -0.9998  2.6720
    2DOPE   HN3  133   3.984   6.114   7.523 -1.8415  1.4861 -1.2620
    2DOPE   C12  134   4.179   6.178   7.453  0.4209  0.0539  0.3403
    2DOPE  H12A  135   4.242   6.119   7.523  0.8961  1.6323  1.2944
    2DOPE  H12B  136   4.166   6.275   7.505  0.1592 -0.6475  1.6306
    2DOPE   C11  137   4.250   6.184   7.324  0.0283 -0.6514 -1.1234
    2DOPE  H11A  138   4.348   6.232   7.344 -0.7114 -0.2891  2.3008
    2DOPE  H11B  139   4.186   6.240   7.253 -1.4694 -0.3064  0.4207
    2DOPE     P  140   4.399   5.984   7.245 -0.2972 -0.1900 -0.1293
    2DOPE   O13  141   4.373   5.852   7.185  0.0041  0.7126 -0.2237
    2DOPE   O14  142   4.490   5.980   7.362 -0.0726 -0.3122  0.0681
    2DOPE   O11  143   4.463   6.075   7.140 -0.2338  0.1380 -0.1797
    2DOPE   O12  144   4.260   6.054   7.286  0.1000  0.3277 -0.1336
    2DOPE    C1  145   4.390   6.139   7.029  0.2041 -0.7119 -0.6659
    2DOPE    HA  146   4.414   6.247   7.024 -0.1574 -0.4772  1.6322
    2DOPE    HB  147   4.280   6.149   7.039  0.2755 -0.8056  0.2322
    2DOPE    C2  148   4.427   6.068   6.896  0.6853  0.5683 -0.1772
    2DOPE    HS  149   4.379   6.131   6.818 -0.2874  0.5538  0.4083
    2DOPE   O21  150   4.385   5.925   6.880  1.3114 -0.8439  0.2179
    2DOPE   C21  151   4.252   5.913   6.843 -0.2445 -0.4562  0.1676
    2DOPE   O22  152   4.182   6.007   6.803 -0.3772 -0.6144  0.0914
    2DOPE   C22  153   4.221   5.765   6.848  0.3663 -0.2111 -0.3552
    2DOPE   H2R  154   4.224   5.742   6.957  0.3275  1.2306 -0.0291
    2DOPE   H2S  155   4.304   5.705   6.805  0.1329 -1.6211  1.0490
    2DOPE    C3  156   4.576   6.067   6.872  0.5043  0.2525 -0.5147
    2DOPE    HX  157   4.612   5.993   6.946  0.7234  0.2088 -0.6638
    2DOPE    HY  158   4.615   6.168   6.897  0.7289  0.2903 -0.9986
    2DOPE   O31  159   4.609   6.020   6.736 -0.2311  0.3564 -0.5472
    2DOPE   C31  160   4.607   5.888   6.713 -0.2076 -0.7747  0.5298
    2DOPE   O32  161   4.609   5.799   6.796 -0.8540 -0.1596 -0.0366
    2DOPE   C32  162   4.590   5.872   6.561 -0.1494  0.2087  0.9215
    2DOPE   H2X  163   4.482   5.889   6.538 -0.4179  0.5823  2.3502
    2DOPE   H2Y  164   4.659   5.939   6.506 -0.5033 -1.4431 -1.6979
    2DOPE   C23  165   4.077   5.715   6.795  0.1098  0.2402  0.9194
    2DOPE   H3R  166   4.004   5.766   6.862 -2.0817 -2.5501  0.8190
    2DOPE   H3S  167   4.073   5.606   6.814  0.1766  0.1779  0.5907
    2DOPE   C24  168   4.057   5.750   6.644  0.1538 -0.1653  0.0772
    2DOPE   H4R  169   4.053   5.860   6.625 -2.1036 -0.5685 -2.2904
    2DOPE   H4S  170   3.954   5.718   6.622 -0.2736  0.5442  0.9594
    2DOPE   C25  171   4.159   5.681   6.551  0.0825  0.3468 -0.3508
    2DOPE   H5R  172   4.180   5.577   6.584 -0.2145 -0.2850 -2.0673
    2DOPE   H5S  173   4.259   5.725   6.571  0.3407 -0.0142 -0.8245
    2DOPE   C26  174   4.117   5.691   6.406  0.4176 -0.3924  0.0752
    2DOPE   H6R  175   4.044   5.774   6.394  2.3621  1.7835  2.1705
    2DOPE   H6S  176   4.069   5.596   6.377 -1.1105  0.1310  0.7982
    2DOPE   C27  177   4.245   5.718   6.326  0.3456  0.3184  0.5385
    2DOPE   H7R  178   4.310   5.632   6.354 -2.3394 -1.9857  0.1390
    2DOPE   H7S  179   4.300   5.807   6.364  1.1122 -0.2656  0.8340
    2DOPE   C28  180   4.228   5.734   6.169 -0.4797  0.1751 -0.3871
    2DOPE   H8R  181   4.330   5.769   6.143  0.1591 -0.3975  1.2056
    2DOPE   H8S  182   4.159   5.819   6.150  1.1160  1.7056  0.3737
    2DOPE   C29  183   4.192   5.597   6.104 -0.2526  0.0193  0.5228
    2DOPE   H9R  184   4.093   5.561   6.136  0.0338  0.2569  1.7529
    2DOPE  C210  185   4.263   5.517   6.023 -0.1123 -0.2911 -0.0834
    2DOPE  H10R  186   4.215   5.423   5.992 -1.7654  0.0625  1.2280
    2DOPE  C211  187   4.399   5.551   5.972 -0.3311 -0.1086 -0.7991
    2DOPE  H11R  188   4.479   5.480   6.001 -2.4256 -2.9714 -1.6079
    2DOPE  H11S  189   4.415   5.653   6.013 -3.6416  0.0765  0.3005
    2DOPE  C212  190   4.435   5.570   5.824 -0.4806  0.3952  0.0992
    2DOPE  H12R  191   4.535   5.616   5.810  0.0815 -0.7684  0.1809
    2DOPE  H12S  192   4.358   5.637   5.779 -2.7311 -1.2681  1.2928
    2DOPE  C213  193   4.435   5.438   5.739  0.1333 -0.3189  0.1145
    2DOPE  H13R  194   4.327   5.413   5.723  0.5909 -1.3117 -1.6395
    2DOPE  H13S  195   4.478   5.365   5.811 -0.3252 -0.3666  0.3485
    2DOPE  C214  196   4.499   5.452   5.604 -0.3014  0.5345  0.8143
    2DOPE  H14R  197   4.469   5.364   5.543 -2.3264  0.6845  1.5147
    2DOPE  H14S  198   4.607   5.469   5.620 -0.1776  0.8260 -0.2253
    2DOPE  C215  199   4.447   5.570   5.514 -0.4804  0.5364 -0.7075
    2DOPE  H15R  200   4.493   5.663   5.552 -1.4682  1.6956 -2.2469
    2DOPE  H15S  201   4.337   5.585   5.521 -1.0796 -2.9338 -0.6267
    2DOPE  C216  202   4.485   5.549   5.369 -0.1584 -0.5788  0.1027
    2DOPE  H16R  203   4.452   5.452   5.325 -2.8296  0.1573  0.2811
    2DOPE  H16S  204   4.596   5.552   5.370 -0.1405 -0.9090  1.9233
    2DOPE  C217  205   4.426   5.664   5.280  0.1138 -0.2350 -0.5526
    2DOPE  H17R  206   4.316   5.650   5.284  0.4180 -2.5480  1.2821
    2DOPE  H17S  207   4.450   5.638   5.174  0.7406 -0.3516 -0.3873
    2DOPE  C218  208   4.461   5.807   5.315  0.7414 -0.2398 -0.2990
    2DOPE  H18R  209   4.561   5.841   5.282  0.5028  0.5435 -0.2424
    2DOPE  H18S  210   4.449   5.810   5.425  0.4052 -1.9587 -0.2633
    2DOPE  H18T  211   4.383   5.878   5.281  0.5678 -0.6144 -0.6881
    2DOPE   C33  212   4.631   5.731   6.505 -0.5330 -0.0519 -0.1877
    2DOPE   H3X  213   4.575   5.655   6.564 -0.2582  0.6234  0.9750
    2DOPE   H3Y  214   4.739   5.707   6.508 -0.5371 -0.1324 -0.6183
    2DOPE   C34  215   4.617   5.717   6.347 -0.2135 -0.5210 -1.0155
    2DOPE   H4X  216   4.674   5.628   6.312  1.2006  0.8767 -2.4967
    2DOPE   H4Y  217   4.511   5.725   6.314 -0.4134  1.8307  0.0324
    2DOPE   C35  218   4.694   5.821   6.269 -0.1540 -0.3025  0.4627
    2DOPE   H5X  219   4.797   5.816   6.312  0.6268 -0.9644 -1.3789
    2DOPE   H5Y  220   4.663   5.927   6.276  1.2793  0.2944 -1.3440
    2DOPE   C36  221   4.688   5.787   6.119 -0.2247 -0.2543  0.1979
    2DOPE   H6X  222   4.587   5.818   6.083  0.9409  0.2055 -2.9838
    2DOPE   H6Y  223   4.696   5.678   6.101 -1.8269 -0.7437  2.1228
    2DOPE   C37  224   4.796   5.853   6.035  0.2294 -0.2694 -0.2098
    2DOPE   H7X  225   4.747   5.891   5.942 -0.7744 -1.6335 -0.2698
    2DOPE   H7Y  226   4.839   5.946   6.076 -0.0167  0.3090 -1.2272
    2DOPE   C38  227   4.901   5.751   5.981  0.2631  0.3975  0.2124
    2DOPE   H8X  228   4.832   5.674   5.940  1.1180  0.0916 -0.6997
    2DOPE   H8Y  229   4.947   5.710   6.074  0.6314 -0.4346 -0.3302
    2DOPE   C39  230   4.993   5.807   5.877 -0.5051  0.1059  0.3350
    2DOPE   H9X  231   5.059   5.887   5.914  0.3799  0.4956 -1.9140
    2DOPE  C310  232   4.992   5.785   5.743  0.1824 -0.5192  0.1315
    2DOPE  H10X  233   5.063   5.833   5.674  1.4637 -1.2004  0.9431
    2DOPE  C311  234   4.901   5.700   5.657 -0.0149  0.0752 -0.2564
    2DOPE  H11X  235   4.856   5.622   5.723 -0.6471  1.6677  1.2668
    2DOPE  H11Y  236   4.823   5.769   5.621  0.8877  0.5611 -1.3391
    2DOPE  C312  237   4.981   5.634   5.542  0.3219  0.4792 -0.1916
    2DOPE  H12X  238   5.041   5.548   5.581  0.8107  1.6595  1.8188
    2DOPE  H12Y  239   5.063   5.699   5.506  1.0905 -0.7561 -0.7302
    2DOPE  C313  240   4.893   5.594   5.426 -0.1000  0.5141  0.2858
    2DOPE  H13X  241   4.806   5.540   5.470 -0.7216  0.5866 -0.8347
    2DOPE  H13Y  242   4.847   5.688   5.389 -0.2278  0.0895 -0.6407
    2DOPE  C314  243   4.968   5.527   5.309 -0.6242 -0.1407  0.0151
    2DOPE  H14X  244   5.012   5.430   5.337 -1.5861 -0.9746 -1.2350
    2DOPE  H14Y  245   5.054   5.588   5.274 -0.0184  0.3978  2.2420
    2DOPE  C315  246   4.874   5.504   5.190  0.2098 -0.0575  0.2025
    2DOPE  H15X  247   4.824   5.594   5.148 -0.1460 -1.0177 -1.5471
    2DOPE  H15Y  248   4.796   5.428   5.214 -2.2079  1.5533 -1.9599
    2DOPE  C316  249   4.953   5.443   5.072  0.0617 -0.3045  0.1518
    2DOPE  H16X  250   4.996   5.343   5.095  0.7262 -0.3714 -1.2448
    2DOPE  H16Y  251   5.037   5.509   5.040 -0.1556  0.8412  1.8153
    2DOPE  C317  252   4.862   5.427   4.949  0.9435  0.8110  0.2481
    2DOPE  H17X  253   4.787   5.348   4.971  0.6895  1.4354  1.7764
    2DOPE  H17Y  254   4.801   5.520   4.939 -1.1664 -0.6795 -1.7383
    2DOPE  C318  255   4.934   5.389   4.825  0.1350  0.1230  0.1155
    2DOPE  H18X  256   4.998   5.302   4.850  0.3913  0.1252 -0.5256
    2DOPE  H18Y  257   4.874   5.370   4.734  0.5715  1.8224 -0.5760
    2DOPE  H18Z  258   5.012   5.462   4.794  2.2092 -1.6372  0.8949
    3DOPE     N  259   3.070   6.636   6.860  0.2261  0.4596  0.3289
    3DOPE   HN1  260   3.152   6.666   6.804  0.4233 -0.6608 -0.0046
    3DOPE   HN2  261   2.991   6.646   6.793 -1.0537  0.3727  1.7599
    3DOPE   HN3  262   3.066   6.702   6.940  0.9918 -0.2882  1.0087
    3DOPE   C12  263   3.082   6.493   6.907 -0.6596 -0.5400  0.9190
    3DOPE  H12A  264   3.156   6.487   6.990 -0.2804 -0.1135  0.6185
    3DOPE  H12B  265   3.111   6.432   6.819 -1.2778 -0.3105  0.5537
    3DOPE   C11  266   2.944   6.438   6.937  0.3033 -0.8094 -0.6661
    3DOPE  H11A  267   2.879   6.456   6.848 -0.3586  0.2303  0.0162
    3DOPE  H11B  268   2.898   6.490   7.023 -2.3218 -0.3824 -2.2114
    3DOPE     P  269   2.942   6.182   6.880 -0.3974  0.0330  0.1592
    3DOPE   O13  270   2.817   6.205   6.807  0.1480 -0.3031  0.2190
    3DOPE   O14  271   2.945   6.050   6.952  0.0444 -0.0661  0.7052
    3DOPE   O11  272   3.067   6.202   6.779  0.4269 -0.3380  0.1835
    3DOPE   O12  273   2.951   6.307   6.977  0.6390 -0.3346 -0.5067
    3DOPE    C1  274   3.197   6.165   6.809 -0.4136 -0.5792  0.5068
    3DOPE    HA  275   3.205   6.075   6.875  1.1282 -0.9833 -0.1984
    3DOPE    HB  276   3.255   6.239   6.867  0.6456 -1.6288  0.8333
    3DOPE    C2  277   3.264   6.127   6.678 -0.7260 -0.7042 -0.5508
    3DOPE    HS  278   3.368   6.105   6.709 -0.5142  0.0890 -0.6693
    3DOPE   O21  279   3.268   6.226   6.569  0.0704  0.2367  0.3049
    3DOPE   C21  280   3.307   6.344   6.600 -0.7390 -0.3772  0.7827
    3DOPE   O22  281   3.369   6.377   6.702  0.4062 -0.0200  0.7853
    3DOPE   C22  282   3.299   6.436   6.478 -0.5140  0.3536 -0.1505
    3DOPE   H2R  283   3.337   6.536   6.509 -2.0539  0.8973  0.1062
    3DOPE   H2S  284   3.191   6.451   6.456 -0.8583 -1.3938  0.2207
    3DOPE    C3  285   3.221   5.989   6.627  0.0157 -0.1928  0.1167
    3DOPE    HX  286   3.113   6.006   6.604  0.3895  0.9451 -0.9540
    3DOPE    HY  287   3.235   5.921   6.713  1.0743  1.1943  1.0772
    3DOPE   O31  288   3.289   5.938   6.514  0.1760  0.2657 -0.0182
    3DOPE   C31  289   3.221   5.843   6.444 -0.3029 -0.2598 -0.1912
    3DOPE   O32  290   3.103   5.816   6.464  0.3879 -0.5967  0.1897
    3DOPE   C32  291   3.309   5.796   6.324 -0.6316  0.1307 -0.8196
    3DOPE   H2X  292   3.385   5.877   6.310  1.6854 -1.2660  2.3601
    3DOPE   H2Y  293   3.359   5.702   6.355 -1.8003 -0.5096 -0.8310
    3DOPE   C23  294   3.377   6.391   6.360 -0.4520 -0.0466  0.8227
    3DOPE   H3R  295   3.330   6.302   6.312 -1.8567  0.6659  0.8282
    3DOPE   H3S  296   3.481   6.364   6.389 -0.1698  0.6535  0.4686
    3DOPE   C24  297   3.385   6.502   6.245 -0.2800  0.3933  0.0193
    3DOPE   H4R  298   3.396   6.603   6.291 -1.0136  0.3773  0.2401
    3DOPE   H4S  299   3.296   6.500   6.179  0.9085  0.1578 -1.6174
    3DOPE   C25  300   3.503   6.481   6.150 -0.0403 -0.5642  0.2094
    3DOPE   H5R  301   3.488   6.391   6.087  1.8720 -0.0703 -1.0545
    3DOPE   H5S  302   3.593   6.469   6.215 -1.4516 -2.0042  2.0228
    3DOPE   C26  303   3.515   6.594   6.052 -0.1179  0.3199 -0.2134
    3DOPE   H6R  304   3.562   6.683   6.098 -0.3615 -0.6639  2.0919
    3DOPE   H6S  305   3.411   6.618   6.020 -0.1574 -1.1094 -1.2393
    3DOPE   C27  306   3.604   6.557   5.930 -0.7911 -0.0947 -0.2558
    3DOPE   H7R  307   3.551   6.485   5.865 -0.4707  0.2859 -0.9555
    3DOPE   H7S  308   3.696   6.508   5.969 -0.1369  0.7811 -0.6557
    3DOPE   C28  309   3.644   6.681   5.846  0.3705 -0.7842 -1.2243
    3DOPE   H8R  310   3.695   6.651   5.752  2.8231  3.1201 -1.3478
    3DOPE   H8S  311   3.729   6.735   5.893  1.3677 -0.3787 -3.3637
    3DOPE   C29  312   3.526   6.760   5.816  0.4374  0.0665 -0.1193
    3DOPE   H9R  313   3.432   6.702   5.812  1.1615 -1.2220  0.6222
    3DOPE  C210  314   3.533   6.895   5.796  1.0636  0.2603 -0.4729
    3DOPE  H10R  315   3.445   6.952   5.761  2.3820  2.2526 -0.6964
    3DOPE  C211  316   3.653   6.989   5.808  0.1180 -0.3406  0.2191
    3DOPE  H11R  317   3.707   6.953   5.898 -0.3172 -0.6611  0.3552
    3DOPE  H11S  318   3.617   7.092   5.828 -1.2080  0.0318 -3.2711
    3DOPE  C212  319   3.749   6.996   5.689 -0.5200 -0.1295 -0.3513
    3DOPE  H12R  320   3.782   6.893   5.665  0.5764  0.0130  0.4606
    3DOPE  H12S  321   3.841   7.051   5.720 -0.7406 -0.8654  1.8257
    3DOPE  C213  322   3.698   7.068   5.559  0.2906  0.1688 -0.7804
    3DOPE  H13R  323   3.665   7.170   5.588  0.2472  0.4951 -1.9537
    3DOPE  H13S  324   3.603   7.017   5.535  0.6536 -0.8053 -0.2219
    3DOPE  C214  325   3.796   7.073   5.440  0.0695  0.3069 -0.5267
    3DOPE  H14R  326   3.824   6.968   5.414  1.6064  0.2359  1.1952
    3DOPE  H14S  327   3.880   7.142   5.464  0.9595  0.4178 -3.5210
    3DOPE  C215  328   3.724   7.139   5.325 -0.4253  0.1006 -0.6789
    3DOPE  H15R  329   3.799   7.204   5.275  0.9445 -0.5069  0.5006
    3DOPE  H15S  330   3.654   7.214   5.367  2.5983  3.8614 -1.7738
    3DOPE  C216  331   3.648   7.056   5.216  0.0943  0.6297 -0.1631
    3DOPE  H16R  332   3.555   7.031   5.272  0.6491  0.1489  0.5744
    3DOPE  H16S  333   3.687   6.958   5.181 -1.7276 -1.1071  2.2933
    3DOPE  C217  334   3.598   7.151   5.100 -0.6966 -0.1082 -0.2223
    3DOPE  H17R  335   3.680   7.213   5.059  0.1042  0.7551  2.5246
    3DOPE  H17S  336   3.523   7.214   5.151 -0.0356 -0.5084  1.2975
    3DOPE  C218  337   3.539   7.087   4.975  0.3470  0.7491  1.0219
    3DOPE  H18R  338   3.464   7.005   4.983  1.9692 -0.9792 -0.4505
    3DOPE  H18S  339   3.622   7.046   4.913  1.0591  1.4413  1.4956
    3DOPE  H18T  340   3.484   7.166   4.919 -1.3138 -1.5234 -0.7804
    3DOPE   C33  341   3.239   5.773   6.193  0.3361 -0.1450  0.2238
    3DOPE   H3X  342   3.195   5.865   6.149 -1.0606 -1.2276 -0.7173
    3DOPE   H3Y  343   3.169   5.689   6.213  1.6362 -1.4171 -0.4067
    3DOPE   C34  344   3.343   5.732   6.089 -0.4192 -0.0922 -0.9728
    3DOPE   H4X  345   3.436   5.788   6.114 -1.1182  1.3578 -1.5372
    3DOPE   H4Y  346   3.361   5.623   6.104 -1.5277 -0.0642  0.8370
    3DOPE   C35  347   3.321   5.758   5.943  0.1423 -0.3316 -0.6221
    3DOPE   H5X  348   3.321   5.867   5.926  2.0519 -0.2642 -0.4056
    3DOPE   H5Y  349   3.227   5.711   5.908  0.0963  0.1390 -1.1428
    3DOPE   C36  350   3.429   5.708   5.843 -0.1192 -0.0168  0.6480
    3DOPE   H6X  351   3.436   5.597   5.839  0.0872  0.0425 -1.8674
    3DOPE   H6Y  352   3.529   5.741   5.877 -0.2398  1.5492 -0.4359
    3DOPE   C37  353   3.394   5.745   5.699  0.1731 -0.4293  0.1518
    3DOPE   H7X  354   3.297   5.696   5.677  0.2118 -0.1638 -0.6368
    3DOPE   H7Y  355   3.377   5.854   5.698 -2.2186 -0.7369 -1.4704
    3DOPE   C38  356   3.510   5.700   5.612  0.3802  0.1147 -0.3541
    3DOPE   H8X  357   3.505   5.590   5.624 -1.8472  0.3435  1.5588
    3DOPE   H8Y  358   3.609   5.733   5.648  1.2466 -2.5891  0.0042
    3DOPE   C39  359   3.474   5.727   5.466 -0.0801 -0.0488 -0.4978
    3DOPE   H9X  360   3.410   5.653   5.417 -0.2840  0.5866 -1.1982
    3DOPE  C310  361   3.544   5.811   5.387 -0.0839 -0.2980 -0.8686
    3DOPE  H10X  362   3.514   5.817   5.281  2.6799  1.8899 -1.6620
    3DOPE  C311  363   3.657   5.901   5.427  0.8025 -1.6603  0.4138
    3DOPE  H11X  364   3.652   5.935   5.533 -0.0526  0.3230 -0.2133
    3DOPE  H11Y  365   3.758   5.859   5.407  1.9157  0.1455  1.8668
    3DOPE  C312  366   3.675   6.037   5.339  0.1027 -0.0590 -0.3418
    3DOPE  H12X  367   3.770   6.091   5.364 -0.1527  0.4610 -0.4837
    3DOPE  H12Y  368   3.593   6.110   5.356  0.9351  0.7462  0.3898
    3DOPE  C313  369   3.672   6.013   5.185  0.6850  0.4225  0.2757
    3DOPE  H13X  370   3.755   5.953   5.141  1.4303 -0.0895  2.2683
    3DOPE  H13Y  371   3.587   5.949   5.153  0.3492  1.4912 -1.0139
    3DOPE  C314  372   3.645   6.145   5.105  0.2007 -0.4182 -0.6850
    3DOPE  H14X  373   3.638   6.234   5.170 -1.0692  0.1391 -1.5411
    3DOPE  H14Y  374   3.543   6.148   5.059  0.9847  2.8379 -2.5169
    3DOPE  C315  375   3.745   6.153   4.992 -0.1539  0.1809 -0.1112
    3DOPE  H15X  376   3.726   6.080   4.910  0.3346  1.3966 -1.3478
    3DOPE  H15Y  377   3.845   6.137   5.039  0.1851  1.3311 -0.4196
    3DOPE  C316  378   3.734   6.300   4.940  0.3995  0.6760  0.2158
    3DOPE  H16X  379   3.759   6.379   5.014  0.1498  1.0107 -0.0548
    3DOPE  H16Y  380   3.627   6.316   4.913  0.4382 -2.1815 -2.1108
    3DOPE  C317  381   3.813   6.330   4.815  0.2850  0.3975 -0.8847
    3DOPE  H17X  382   3.809   6.245   4.743 -1.2255 -0.0971 -0.2615
    3DOPE  H17Y  383   3.765   6.417   4.767  0.7663  1.0247 -0.2506
    3DOPE  C318  384   3.960   6.351   4.845  0.9168 -0.1551 -0.0014
    3DOPE  H18X  385   4.017   6.387   4.757 -0.6168  3.4888  0.2881
    3DOPE  H18Y  386   3.980   6.436   4.913  3.6548 -1.1872  0.6182
    3DOPE  H18Z  387   4.001   6.255   4.881  2.5267  0.0765 -1.1233
    4DOPE     N  388   4.682   2.319   7.280  0.4050 -0.5837 -0.0486
    4DOPE   HN1  389   4.677   2.242   7.211 -1.5294 -0.7903  0.2671
    4DOPE   HN2  390   4.629   2.289   7.364 -0.0505  2.1581  0.7525
    4DOPE   HN3  391   4.633   2.402   7.242  0.0139 -0.4782  0.6655
    4DOPE   C12  392   4.826   2.339   7.312  0.6667 -0.0993 -0.5035
    4DOPE  H12A  393   4.858   2.243   7.358  2.3881 -0.0869 -1.5495
    4DOPE  H12B  394   4.829   2.412   7.395 -0.2557 -1.5077  0.8033
    4DOPE   C11  395   4.905   2.401   7.199 -0.2840 -0.6680  0.2887
    4DOPE  H11A  396   4.914   2.341   7.107  0.5257  1.5566 -1.1673
    4DOPE  H11B  397   5.008   2.418   7.238  0.4026 -1.1688 -1.2409
    4DOPE     P  398   4.877   2.660   7.234 -0.3787 -0.1827 -0.1524
    4DOPE   O13  399   5.014   2.659   7.297 -0.5175 -0.4461 -0.4781
    4DOPE   O14  400   4.776   2.693   7.338 -0.1206  0.4228 -0.2063
    4DOPE   O11  401   4.860   2.761   7.113  0.7355  0.0325  0.2765
    4DOPE   O12  402   4.857   2.527   7.157 -0.0368  0.2674  0.6714
    4DOPE    C1  403   4.946   2.745   6.998 -0.0974 -0.2059 -0.7466
    4DOPE    HA  404   5.016   2.659   6.998  2.6741  1.8977 -0.6701
    4DOPE    HB  405   5.024   2.825   7.006 -0.8942  0.5166  0.0466
    4DOPE    C2  406   4.873   2.742   6.866  0.6303  0.3372  0.5759
    4DOPE    HS  407   4.945   2.720   6.785 -0.0011  0.4345 -0.0210
    4DOPE   O21  408   4.817   2.877   6.838  0.4055  0.4509 -0.0030
    4DOPE   C21  409   4.912   2.970   6.810 -0.7287 -0.2860 -0.2147
    4DOPE   O22  410   5.030   2.954   6.809  0.0698  1.1929  0.0202
    4DOPE   C22  411   4.849   3.097   6.756  0.1791 -0.0877 -0.3773
    4DOPE   H2R  412   4.925   3.177   6.762  1.1529 -1.0630  1.0398
    4DOPE   H2S  413   4.761   3.116   6.821 -0.3214  2.4662 -1.6836
    4DOPE    C3  414   4.749   2.643   6.857 -0.2901  0.9383  0.4073
    4DOPE    HX  415   4.670   2.681   6.924 -0.2504  3.7057 -0.9723
    4DOPE    HY  416   4.789   2.543   6.887  0.6808  0.5145 -2.0179
    4DOPE   O31  417   4.692   2.632   6.720  0.3718  0.3628 -0.4715
    4DOPE   C31  418   4.767   2.551   6.637 -0.6866 -0.3319 -0.4552
    4DOPE   O32  419   4.881   2.514   6.663  0.1947  0.1399  0.3807
    4DOPE   C32  420   4.694   2.530   6.511 -0.5303 -0.8683  0.1871
    4DOPE   H2X  421   4.587   2.514   6.538 -0.5549 -1.1499 -0.0752
    4DOPE   H2Y  422   4.699   2.626   6.456 -0.4005 -1.0315 -0.0836
    4DOPE   C23  423   4.783   3.074   6.617  0.2218 -0.2724  0.5012
    4DOPE   H3R  424   4.730   2.976   6.616  1.6722 -1.1066  1.4925
    4DOPE   H3S  425   4.872   3.068   6.551 -0.0444 -0.6745  0.1750
    4DOPE   C24  426   4.693   3.190   6.573  0.0979  0.5632  0.0831
    4DOPE   H4R  427   4.751   3.283   6.590  0.1142  0.7953 -1.1343
    4DOPE   H4S  428   4.600   3.193   6.633 -0.8071  1.4429 -1.2999
    4DOPE   C25  429   4.669   3.192   6.417 -0.8393  0.0077  0.3935
    4DOPE   H5R  430   4.765   3.209   6.364 -0.0798  0.7442  1.9160
    4DOPE   H5S  431   4.598   3.277   6.411 -0.1113  0.6957  1.1434
    4DOPE   C26  432   4.597   3.068   6.369  0.4873 -0.3192  0.4142
    4DOPE   H6R  433   4.524   3.042   6.447  0.9962  0.5977  1.2233
    4DOPE   H6S  434   4.667   2.983   6.379  2.0658  1.1228  2.5064
    4DOPE   C27  435   4.515   3.073   6.236 -0.4809 -0.6166  0.1400
    4DOPE   H7R  436   4.505   3.174   6.193 -1.0100 -0.5104  0.4978
    4DOPE   H7S  437   4.411   3.039   6.256 -0.4953  0.7500  2.9346
    4DOPE   C28  438   4.587   2.985   6.135 -0.3923  0.1889  0.7421
    4DOPE   H8R  439   4.610   2.888   6.185  2.9013 -0.3974 -1.5807
    4DOPE   H8S  440   4.690   3.024   6.122 -0.8114  1.1885  0.2944
    4DOPE   C29  441   4.501   2.959   6.012  0.0307  0.4487  0.3436
    4DOPE   H9R  442   4.408   3.018   6.011 -0.1678  0.1693  1.0535
    4DOPE  C210  443   4.539   2.886   5.903  0.2802 -0.0310  0.3824
    4DOPE  H10R  444   4.459   2.875   5.828 -1.3411 -2.0184  2.2726
    4DOPE  C211  445   4.669   2.817   5.869  0.3261 -0.1802 -0.9029
    4DOPE  H11R  446   4.753   2.857   5.930  1.9980 -0.8977 -2.6459
    4DOPE  H11S  447   4.702   2.836   5.765  1.0573  2.6405 -0.2370
    4DOPE  C212  448   4.680   2.664   5.902 -0.1487  0.3928  0.1480
    4DOPE  H12R  449   4.667   2.655   6.012  0.2832  1.3684  0.2938
    4DOPE  H12S  450   4.779   2.633   5.863 -0.7249 -1.3452 -0.0061
    4DOPE  C213  451   4.564   2.592   5.825 -0.3984 -0.3919 -0.4674
    4DOPE  H13R  452   4.536   2.624   5.722  0.5055 -0.2430 -0.6715
    4DOPE  H13S  453   4.476   2.621   5.887  0.5141 -1.4051  1.3661
    4DOPE  C214  454   4.570   2.437   5.817  0.1008  0.3120  0.2896
    4DOPE  H14R  455   4.585   2.392   5.918 -1.1452 -1.2439 -0.1769
    4DOPE  H14S  456   4.661   2.413   5.757  0.4940  0.2738  0.8832
    4DOPE  C215  457   4.444   2.373   5.752 -0.0723  0.0778  0.0941
    4DOPE  H15R  458   4.472   2.267   5.738  0.2298  0.0856  0.6375
    4DOPE  H15S  459   4.436   2.434   5.658  1.1724  3.5529  2.0515
    4DOPE  C216  460   4.326   2.372   5.847 -0.0847 -0.4561  0.5545
    4DOPE  H16R  461   4.300   2.478   5.869 -0.5525 -0.3586 -0.4432
    4DOPE  H16S  462   4.365   2.328   5.941  1.3733  2.7069  1.5616
    4DOPE  C217  463   4.205   2.292   5.794 -0.3506  0.1142 -0.1379
    4DOPE  H17R  464   4.142   2.279   5.885 -3.1904 -1.5432 -2.1546
    4DOPE  H17S  465   4.246   2.200   5.745 -0.2710  0.9045 -1.6028
    4DOPE  C218  466   4.120   2.373   5.696  0.3758 -0.0778 -0.0957
    4DOPE  H18R  467   4.092   2.466   5.750  0.7290 -0.6280  1.0700
    4DOPE  H18S  468   4.030   2.324   5.653  0.0975  1.1375 -0.9507
    4DOPE  H18T  469   4.185   2.408   5.612 -1.1087 -0.3128 -1.3880
    4DOPE   C33  470   4.741   2.412   6.426 -0.2034 -0.5270 -0.3721
    4DOPE   H3X  471   4.735   2.318   6.485 -0.8572 -0.3963 -0.2206
    4DOPE   H3Y  472   4.845   2.427   6.391  1.0280 -0.1287  3.0858
    4DOPE   C34  473   4.644   2.401   6.306 -0.5045 -0.9895  1.0276
    4DOPE   H4X  474   4.540   2.388   6.342 -0.4445 -2.6206  0.6685
    4DOPE   H4Y  475   4.639   2.505   6.267 -0.3897 -0.0682  3.3074
    4DOPE   C35  476   4.672   2.296   6.198  0.1818 -0.1163 -0.0313
    4DOPE   H5X  477   4.603   2.304   6.111  0.2749 -3.3932 -0.5431
    4DOPE   H5Y  478   4.653   2.194   6.240 -1.1479 -0.6316 -1.7611
    4DOPE   C36  479   4.807   2.310   6.119 -0.6804 -1.2478 -0.4768
    4DOPE   H6X  480   4.890   2.288   6.189  0.9446  2.0439 -1.1796
    4DOPE   H6Y  481   4.816   2.419   6.102 -0.3107 -1.2362 -0.2242
    4DOPE   C37  482   4.834   2.232   5.990 -0.1989 -0.5801 -0.5188
    4DOPE   H7X  483   4.819   2.124   6.013 -0.7430  0.0068  2.2764
    4DOPE   H7Y  484   4.768   2.267   5.908  1.4703  0.5972 -1.4366
    4DOPE   C38  485   4.980   2.246   5.932  0.2931 -0.7225 -0.3287
    4DOPE   H8X  486   5.057   2.210   6.003  2.4091  0.5924 -1.8301
    4DOPE   H8Y  487   5.000   2.356   5.928  1.5945 -0.9685 -3.3547
    4DOPE   C39  488   4.991   2.183   5.796 -0.1663  0.7097  0.3007
    4DOPE   H9X  489   4.997   2.074   5.809  0.0176  0.4989 -1.2969
    4DOPE  C310  490   5.001   2.234   5.667  0.5049  0.8155 -0.7471
    4DOPE  H10X  491   5.006   2.162   5.583 -0.5664 -0.8145  0.5235
    4DOPE  C311  492   5.020   2.377   5.632 -0.0891 -0.4366  0.7758
    4DOPE  H11X  493   5.049   2.430   5.725 -3.1962 -1.5017  2.5073
    4DOPE  H11Y  494   5.100   2.384   5.555  1.0737 -1.7962  1.8131
    4DOPE  C312  495   4.894   2.452   5.589 -0.5966 -0.4723 -0.1628
    4DOPE  H12X  496   4.928   2.557   5.572  0.6143 -0.5235  1.6121
    4DOPE  H12Y  497   4.822   2.468   5.672  1.0885  1.2220  1.0649
    4DOPE  C313  498   4.828   2.401   5.456  0.3015  0.1783 -0.0765
    4DOPE  H13X  499   4.900   2.393   5.372 -1.6223  1.5460 -1.9556
    4DOPE  H13Y  500   4.800   2.296   5.480 -0.2242  0.0120 -1.3084
    4DOPE  C314  501   4.700   2.481   5.414  0.4431  0.6228  0.4305
    4DOPE  H14X  502   4.729   2.588   5.407 -0.1508  0.9218  2.0848
    4DOPE  H14Y  503   4.638   2.463   5.505 -0.3384 -2.1767 -0.5574
    4DOPE  C315  504   4.604   2.403   5.320  0.4250  0.1382  0.1448
    4DOPE  H15X  505   4.580   2.305   5.366 -1.1146  0.1631 -0.5566
    4DOPE  H15Y  506   4.651   2.383   5.221  0.3508 -1.1752  0.3654
    4DOPE  C316  507   4.476   2.487   5.295 -0.1253 -0.1742  0.2686
    4DOPE  H16X  508   4.497   2.595   5.278  1.7794 -0.9999 -3.7857
    4DOPE  H16Y  509   4.428   2.497   5.395  1.1375  0.8183  0.8131
    4DOPE  C317  510   4.386   2.452   5.173 -0.0500 -0.2690 -0.1673
    4DOPE  H17X  511   4.316   2.535   5.151  0.4185  0.5978  1.5274
    4DOPE  H17Y  512   4.464   2.442   5.094  1.3008  1.1013  0.9358
    4DOPE  C318  513   4.310   2.323   5.186 -0.0629 -0.7022  0.0089
    4DOPE  H18X  514   4.277   2.284   5.088 -3.1707 -0.6923  0.9445
    4DOPE  H18Y  515   4.369   2.239   5.228  0.3388 -0.4096  0.0357
    4DOPE  H18Z  516   4.217   2.334   5.247  0.1079 -0.5157  0.2388
    5DOPE     N  517   1.536   3.449   7.058 -0.1997  0.1614 -0.0517
    5DOPE   HN1  518   1.638   3.439   7.040  0.1074  0.8764  1.1706
    5DOPE   HN2  519   1.527   3.540   7.107 -1.3646  0.1503 -0.2175
    5DOPE   HN3  520   1.515   3.384   7.136 -1.9520  0.3769 -0.3006
    5DOPE   C12  521   1.444   3.444   6.934 -0.1005 -0.2568 -0.5763
    5DOPE  H12A  522   1.340   3.468   6.966  0.4241 -0.1831  1.1999
    5DOPE  H12B  523   1.438   3.336   6.910  3.7893 -1.3935  2.4129
    5DOPE   C11  524   1.481   3.530   6.813  1.0943 -0.5477 -0.2248
    5DOPE  H11A  525   1.397   3.525   6.741 -0.1950  0.6681  1.1040
    5DOPE  H11B  526   1.576   3.495   6.767  1.6976  0.0516  0.5238
    5DOPE     P  527   1.373   3.770   6.838 -0.2167  0.7332 -0.0735
    5DOPE   O13  528   1.409   3.896   6.907  0.0041 -0.4726  0.5939
    5DOPE   O14  529   1.244   3.706   6.873 -0.2610  0.1618  0.2174
    5DOPE   O11  530   1.366   3.793   6.681  0.2451 -0.3821  0.5293
    5DOPE   O12  531   1.498   3.667   6.855 -0.2892  0.1649 -0.1972
    5DOPE    C1  532   1.484   3.839   6.613 -0.3840 -1.0164  0.0122
    5DOPE    HA  533   1.575   3.793   6.657  0.7044  2.0247  1.2254
    5DOPE    HB  534   1.494   3.949   6.627 -1.0566 -0.9673  0.1456
    5DOPE    C2  535   1.487   3.805   6.460 -0.4952  0.6837 -0.7550
    5DOPE    HS  536   1.404   3.862   6.413 -2.5796 -1.2217  0.3978
    5DOPE   O21  537   1.474   3.665   6.423 -0.4511  0.3750 -0.0685
    5DOPE   C21  538   1.550   3.579   6.474 -0.2633  0.1486 -0.2853
    5DOPE   O22  539   1.661   3.590   6.526 -0.6302 -0.4578  0.3197
    5DOPE   C22  540   1.500   3.439   6.461 -0.1869 -0.2456 -0.2150
    5DOPE   H2R  541   1.390   3.428   6.454 -0.2463  0.1635  0.0885
    5DOPE   H2S  542   1.538   3.393   6.555  0.8069  3.4156  1.3213
    5DOPE    C3  543   1.611   3.864   6.401  0.3667  0.4712 -0.2787
    5DOPE    HX  544   1.699   3.831   6.461  1.4215  2.0052 -0.9224
    5DOPE    HY  545   1.613   3.974   6.417 -2.5894  0.4804  0.5925
    5DOPE   O31  546   1.634   3.828   6.258 -0.2935 -0.2714 -0.4579
    5DOPE   C31  547   1.571   3.899   6.171  0.3558 -0.4874  0.4835
    5DOPE   O32  548   1.500   3.998   6.197 -0.6228  0.2799 -0.0351
    5DOPE   C32  549   1.586   3.837   6.035 -0.0679  0.0251 -0.3040
    5DOPE   H2X  550   1.678   3.872   5.983 -0.4093  0.9212 -0.3121
    5DOPE   H2Y  551   1.583   3.727   6.054 -0.8952  0.0039 -0.5363
    5DOPE   C23  552   1.581   3.362   6.344  0.1731  0.1375  0.4448
    5DOPE   H3R  553   1.567   3.252   6.347 -1.8875  0.3823  1.7921
    5DOPE   H3S  554   1.689   3.376   6.368  0.3444 -0.1386 -0.1658
    5DOPE   C24  555   1.561   3.427   6.208 -0.7065 -0.7750 -0.1778
    5DOPE   H4R  556   1.592   3.533   6.219 -1.0843 -0.8234  1.5843
    5DOPE   H4S  557   1.453   3.432   6.182 -1.2933  1.8281  2.1901
    5DOPE   C25  558   1.638   3.364   6.090 -0.1750 -0.4027 -0.3547
    5DOPE   H5R  559   1.610   3.256   6.087  0.0000 -0.4519 -0.2639
    5DOPE   H5S  560   1.737   3.376   6.141 -0.4621  2.9305 -0.3773
    5DOPE   C26  561   1.614   3.430   5.954  0.2331 -0.3967 -0.0520
    5DOPE   H6R  562   1.646   3.537   5.957  0.1216 -0.3477 -0.5529
    5DOPE   H6S  563   1.504   3.435   5.939  0.1587  0.8365  0.7127
    5DOPE   C27  564   1.681   3.358   5.840  0.3285 -0.0739 -0.3411
    5DOPE   H7R  565   1.790   3.345   5.859  0.7514 -0.9583 -2.9954
    5DOPE   H7S  566   1.667   3.419   5.748  1.2566 -0.6647 -0.8842
    5DOPE   C28  567   1.622   3.217   5.819 -0.5464 -0.0837  0.0848
    5DOPE   H8R  568   1.512   3.205   5.828 -0.3384 -2.0964  0.5007
    5DOPE   H8S  569   1.655   3.144   5.895  0.9288 -0.0264 -0.4705
    5DOPE   C29  570   1.664   3.162   5.688  0.0532 -0.1612  0.5317
    5DOPE   H9R  571   1.765   3.195   5.660  0.1048  0.2639  1.1980
    5DOPE  C210  572   1.590   3.086   5.601  0.0906  0.6670 -0.7131
    5DOPE  H10R  573   1.638   3.049   5.509  1.3826 -1.4165  0.7371
    5DOPE  C211  574   1.444   3.048   5.626 -0.8136  0.1090  0.7938
    5DOPE  H11R  575   1.402   3.068   5.727 -1.6128  0.7691  0.3417
    5DOPE  H11S  576   1.447   2.937   5.618  0.8848  0.0365  1.9554
    5DOPE  C212  577   1.365   3.123   5.515 -0.4660  0.1690 -0.3873
    5DOPE  H12R  578   1.400   3.095   5.413  0.1425 -1.7784  0.3128
    5DOPE  H12S  579   1.383   3.233   5.516 -0.5233  0.1800 -0.4977
    5DOPE  C213  580   1.218   3.098   5.532  0.5949 -0.2692 -1.0469
    5DOPE  H13R  581   1.188   3.134   5.633  1.2843  0.0252 -0.9396
    5DOPE  H13S  582   1.192   2.990   5.530  0.3184 -0.1910 -1.6369
    5DOPE  C214  583   1.145   3.166   5.424 -0.6024 -0.4680  0.4095
    5DOPE  H14R  584   1.205   3.163   5.331  1.1148 -0.2157  1.4753
    5DOPE  H14S  585   1.137   3.274   5.450 -0.7517 -0.5960  0.9213
    5DOPE  C215  586   1.006   3.100   5.400 -0.5011 -0.3969  0.1063
    5DOPE  H15R  587   0.956   3.192   5.361  0.4500  0.4134  0.7720
    5DOPE  H15S  588   0.955   3.074   5.495 -0.3595 -1.6803 -0.1570
    5DOPE  C216  589   0.993   2.999   5.295 -0.8929  0.4850 -0.1370
    5DOPE  H16R  590   1.056   3.026   5.207 -0.0747 -0.8300  0.0249
    5DOPE  H16S  591   0.889   2.984   5.260 -0.0834 -1.1210 -2.0180
    5DOPE  C217  592   1.015   2.854   5.341  0.7742 -0.4180 -0.4169
    5DOPE  H17R  593   0.985   2.843   5.447  1.5939  0.1153 -0.1232
    5DOPE  H17S  594   1.124   2.833   5.339  0.6463 -1.0935 -0.7707
    5DOPE  C218  595   0.943   2.746   5.258 -0.0325 -0.3620 -0.2783
    5DOPE  H18R  596   0.993   2.647   5.262  1.9854  0.4386 -2.6811
    5DOPE  H18S  597   0.946   2.779   5.152 -0.4029  1.4860  0.2418
    5DOPE  H18T  598   0.835   2.752   5.284  0.3336 -0.8879  1.4739
    5DOPE   C33  599   1.465   3.868   5.937 -0.3465  0.3796 -0.0416
    5DOPE   H3X  600   1.432   3.973   5.950  1.2121  0.6848  1.9151
    5DOPE   H3Y  601   1.387   3.791   5.957 -0.1637  0.1917 -0.0431
    5DOPE   C34  602   1.510   3.845   5.795  0.9098 -0.2687 -0.5491
    5DOPE   H4X  603   1.598   3.907   5.765  1.9680 -1.5636 -0.2175
    5DOPE   H4Y  604   1.556   3.745   5.782  3.6208  1.0517 -2.0834
    5DOPE   C35  605   1.397   3.880   5.698  0.9215 -0.4971 -0.5226
    5DOPE   H5X  606   1.448   3.882   5.599  1.3365 -0.6484 -0.3120
    5DOPE   H5Y  607   1.360   3.983   5.718  0.3706 -0.0972 -3.2083
    5DOPE   C36  608   1.277   3.781   5.693 -0.1890  0.2789  0.4482
    5DOPE   H6X  609   1.214   3.797   5.783 -1.5576 -0.9824 -0.2457
    5DOPE   H6Y  610   1.306   3.674   5.689 -1.5447 -0.2026  2.0724
    5DOPE   C37  611   1.184   3.821   5.575 -0.5335  0.4229 -0.1397
    5DOPE   H7X  612   1.086   3.787   5.614  0.3090 -0.1507  1.6309
    5DOPE   H7Y  613   1.169   3.931   5.572 -0.4646  0.5292  1.8098
    5DOPE   C38  614   1.222   3.754   5.439 -0.9396  0.0065  0.1613
    5DOPE   H8X  615   1.127   3.744   5.382 -1.2040  1.6412  0.2686
    5DOPE   H8Y  616   1.256   3.650   5.458 -4.3492 -1.2183  0.2729
    5DOPE   C39  617   1.322   3.836   5.354 -0.2662  0.0164  0.1033
    5DOPE   H9X  618   1.290   3.937   5.325  1.4240 -0.2281 -3.0332
    5DOPE  C310  619   1.447   3.802   5.315 -0.4479  0.0601 -1.2496
    5DOPE  H10X  620   1.513   3.874   5.264  2.2274 -2.0203 -1.0026
    5DOPE  C311  621   1.514   3.673   5.339 -0.1675 -0.4682  0.1432
    5DOPE  H11X  622   1.446   3.603   5.391 -1.2441  0.4426  0.0026
    5DOPE  H11Y  623   1.529   3.614   5.246 -0.7735 -0.3513 -0.0327
    5DOPE  C312  624   1.643   3.671   5.415  0.8227 -0.1489 -0.2750
    5DOPE  H12X  625   1.630   3.707   5.519  1.2400 -0.9582  0.0666
    5DOPE  H12Y  626   1.720   3.741   5.374 -0.2773  3.3634  3.0124
    5DOPE  C313  627   1.717   3.535   5.421 -0.0524  0.6092 -0.3361
    5DOPE  H13X  628   1.777   3.536   5.515 -0.4120 -0.4367 -0.0800
    5DOPE  H13Y  629   1.648   3.450   5.437 -1.8342  2.3691  1.9684
    5DOPE  C314  630   1.806   3.517   5.300 -0.1264  1.1290  0.4465
    5DOPE  H14X  631   1.885   3.595   5.290  1.1726 -0.1125  0.5938
    5DOPE  H14Y  632   1.753   3.523   5.202 -0.2064  0.2065  0.4280
    5DOPE  C315  633   1.865   3.377   5.297  0.3167  0.4820 -0.1099
    5DOPE  H15X  634   1.779   3.312   5.323 -0.4085  0.6914 -1.8272
    5DOPE  H15Y  635   1.950   3.367   5.368 -0.5440 -1.9410  0.6742
    5DOPE  C316  636   1.937   3.345   5.165  0.2422  0.4291  0.1418
    5DOPE  H16X  637   2.027   3.409   5.158  1.4059 -1.1118  0.5210
    5DOPE  H16Y  638   1.877   3.362   5.073  0.9006  0.2392 -0.3258
    5DOPE  C317  639   1.999   3.207   5.182  0.0690 -0.8701  0.6295
    5DOPE  H17X  640   2.045   3.191   5.282  1.0928 -2.5805 -0.0685
    5DOPE  H17Y  641   1.925   3.123   5.180  0.5298 -1.2723 -1.3270
    5DOPE  C318  642   2.098   3.172   5.066 -1.0711 -0.1920  0.0939
    5DOPE  H18X  643   2.057   3.192   4.965  2.5839  0.2696 -1.4506
    5DOPE  H18Y  644   2.190   3.233   5.079  0.4957 -2.1878 -1.0163
    5DOPE  H18Z  645   2.126   3.065   5.075  0.0442  0.1607  1.1481
    6DOPE     N  646   2.406   3.880   7.132 -0.0250 -0.7161  0.0009
    6DOPE   HN1  647   2.323   3.928   7.094 -0.7467 -1.0065  1.1665
    6DOPE   HN2  648   2.484   3.944   7.156  1.7519 -1.7020 -2.6633
    6DOPE   HN3  649   2.448   3.817   7.061  2.2478 -0.2531  0.8288
    6DOPE   C12  650   2.376   3.801   7.264 -0.7495 -0.1877  0.2080
    6DOPE  H12A  651   2.334   3.876   7.335  0.3079  0.8081 -0.1864
    6DOPE  H12B  652   2.473   3.758   7.297 -0.8511  0.5852  1.5680
    6DOPE   C11  653   2.281   3.688   7.235  0.0823  0.1118 -0.1714
    6DOPE  H11A  654   2.182   3.735   7.216  0.5538  0.7769 -1.1193
    6DOPE  H11B  655   2.273   3.631   7.329 -1.0145  1.3299  0.5062
    6DOPE     P  656   2.233   3.481   7.078 -0.3279 -0.0229 -0.1512
    6DOPE   O13  657   2.094   3.523   7.091  0.0308 -0.2902  0.6489
    6DOPE   O14  658   2.275   3.353   7.143 -0.1150 -0.1254  0.5639
    6DOPE   O11  659   2.263   3.470   6.925  0.0317 -0.9144  0.8048
    6DOPE   O12  660   2.327   3.601   7.130  0.1676  0.1549  0.2855
    6DOPE    C1  661   2.402   3.483   6.892  0.4230  0.2955 -0.6665
    6DOPE    HA  662   2.460   3.411   6.953 -1.2452 -0.2182  0.3875
    6DOPE    HB  663   2.444   3.579   6.927 -1.9726  1.1027  0.2092
    6DOPE    C2  664   2.428   3.445   6.748  0.2783  0.0530 -0.0095
    6DOPE    HS  665   2.536   3.438   6.725  0.0014 -1.9516 -0.9614
    6DOPE   O21  666   2.356   3.540   6.664  0.6985  0.1721 -0.4996
    6DOPE   C21  667   2.427   3.644   6.643  0.7566 -0.2061 -0.0206
    6DOPE   O22  668   2.533   3.671   6.690 -0.4909  0.2582 -0.5341
    6DOPE   C22  669   2.344   3.743   6.558  0.5183 -0.0596  0.7513
    6DOPE   H2R  670   2.264   3.786   6.622  0.4135  1.1863 -0.1677
    6DOPE   H2S  671   2.304   3.681   6.475  0.8916 -4.5415  3.5655
    6DOPE    C3  672   2.383   3.297   6.718 -0.5309  0.1350 -0.4326
    6DOPE    HX  673   2.279   3.290   6.756 -0.8547  0.0802 -1.3050
    6DOPE    HY  674   2.435   3.220   6.779 -4.0940 -2.7721 -0.7355
    6DOPE   O31  675   2.404   3.253   6.585  0.1762  0.3160  0.6526
    6DOPE   C31  676   2.296   3.268   6.503 -0.4533  0.3867 -0.7327
    6DOPE   O32  677   2.192   3.313   6.538  0.3837 -0.7937 -0.2501
    6DOPE   C32  678   2.338   3.237   6.355  0.2046 -0.1113 -0.1385
    6DOPE   H2X  679   2.447   3.254   6.342  0.5673 -2.4360 -0.7146
    6DOPE   H2Y  680   2.318   3.128   6.351 -0.4010 -0.0544  0.9524
    6DOPE   C23  681   2.440   3.852   6.496  0.2882  0.0915  0.4418
    6DOPE   H3R  682   2.527   3.811   6.441  0.4895 -0.1245  0.9113
    6DOPE   H3S  683   2.481   3.902   6.587 -2.0564  0.0012  1.6382
    6DOPE   C24  684   2.357   3.959   6.416 -0.0505  0.2053 -0.5406
    6DOPE   H4R  685   2.272   3.988   6.481  0.5613 -1.2743  0.9959
    6DOPE   H4S  686   2.310   3.916   6.325 -1.2095 -0.9909  0.5772
    6DOPE   C25  687   2.444   4.093   6.387  0.4889 -0.1793 -0.1869
    6DOPE   H5R  688   2.535   4.061   6.333  0.2190  0.3632 -0.9834
    6DOPE   H5S  689   2.461   4.150   6.480  1.3591  0.2761 -0.6150
    6DOPE   C26  690   2.372   4.190   6.283  0.4668 -0.0309  0.0181
    6DOPE   H6R  691   2.452   4.262   6.257  0.5574 -0.2512 -0.3230
    6DOPE   H6S  692   2.293   4.244   6.339  0.1572 -0.5453  0.0797
    6DOPE   C27  693   2.327   4.125   6.149 -0.6422 -0.1705  0.1534
    6DOPE   H7R  694   2.261   4.038   6.170 -2.1674  0.0045 -3.3153
    6DOPE   H7S  695   2.411   4.082   6.091 -0.0557  1.5974 -0.3902
    6DOPE   C28  696   2.250   4.218   6.056 -0.2246 -0.4904 -0.2574
    6DOPE   H8R  697   2.168   4.267   6.112  1.1424  1.4242  0.1985
    6DOPE   H8S  698   2.198   4.161   5.976  0.9708 -0.5865 -1.0004
    6DOPE   C29  699   2.334   4.330   5.999  0.4548  0.0946  0.1371
    6DOPE   H9R  700   2.397   4.386   6.068  0.4256 -0.7981  0.9025
    6DOPE  C210  701   2.345   4.365   5.865 -0.8746 -0.3050 -0.1451
    6DOPE  H10R  702   2.406   4.455   5.846 -2.2247  0.6253 -0.2618
    6DOPE  C211  703   2.283   4.313   5.740 -0.8271  0.2625 -0.2417
    6DOPE  H11R  704   2.175   4.306   5.764 -1.4795  0.6003 -2.8250
    6DOPE  H11S  705   2.324   4.216   5.705  2.2338  1.7786 -1.2688
    6DOPE  C212  706   2.308   4.411   5.616  0.2192 -0.2370 -0.4161
    6DOPE  H12R  707   2.414   4.397   5.585  0.7153  0.2059  1.0203
    6DOPE  H12S  708   2.282   4.513   5.650 -1.2727 -1.7509  3.5786
    6DOPE  C213  709   2.219   4.371   5.497  0.0455 -0.3993 -0.3651
    6DOPE  H13R  710   2.111   4.361   5.521 -0.1642 -0.0118 -1.1380
    6DOPE  H13S  711   2.247   4.265   5.481  1.5167 -0.2360  0.8888
    6DOPE  C214  712   2.221   4.459   5.372 -0.0388  0.0859  0.3257
    6DOPE  H14R  713   2.322   4.505   5.360 -1.3034  2.5972 -1.3647
    6DOPE  H14S  714   2.152   4.545   5.379 -1.8243 -1.1762 -0.8237
    6DOPE  C215  715   2.195   4.383   5.241  1.1227 -0.4114  0.4171
    6DOPE  H15R  716   2.084   4.375   5.241  1.0964 -0.3611 -0.9499
    6DOPE  H15S  717   2.230   4.278   5.252  3.3842 -0.2564 -3.4414
    6DOPE  C216  718   2.240   4.432   5.103  0.2348 -0.1257  0.7177
    6DOPE  H16R  719   2.347   4.458   5.094  0.1153 -0.3944 -3.5706
    6DOPE  H16S  720   2.183   4.528   5.101  0.0256 -0.2554 -0.2069
    6DOPE  C217  721   2.197   4.341   4.981 -0.7475 -0.2978  0.0927
    6DOPE  H17R  722   2.091   4.311   4.991 -2.2364  4.0069 -0.7464
    6DOPE  H17S  723   2.257   4.247   4.972  1.4194  1.2058 -2.6270
    6DOPE  C218  724   2.208   4.419   4.848  0.3107  0.4495 -0.1151
    6DOPE  H18R  725   2.315   4.449   4.851  0.4028  0.2725 -1.0706
    6DOPE  H18S  726   2.143   4.509   4.849  1.1011  1.1780 -3.1546
    6DOPE  H18T  727   2.188   4.358   4.756  0.0025 -0.3467  0.4671
    6DOPE   C33  728   2.258   3.315   6.245  0.1914  0.6072 -0.6713
    6DOPE   H3X  729   2.269   3.425   6.255  1.6785  0.5105 -1.0407
    6DOPE   H3Y  730   2.147   3.302   6.242  0.2847 -1.9408  2.0229
    6DOPE   C34  731   2.296   3.272   6.101 -0.0425 -0.1414 -0.0123
    6DOPE   H4X  732   2.397   3.297   6.063  0.2738  0.3612  1.1145
    6DOPE   H4Y  733   2.289   3.161   6.101  1.3063 -0.2516  1.0149
    6DOPE   C35  734   2.195   3.332   5.997  1.0102  0.5377  0.5071
    6DOPE   H5X  735   2.199   3.443   6.003  2.0408  0.4772  1.0576
    6DOPE   H5Y  736   2.088   3.304   6.011  0.7180  1.8865  1.1426
    6DOPE   C36  737   2.223   3.292   5.843 -0.1187  0.2435  0.3744
    6DOPE   H6X  738   2.220   3.181   5.839 -0.6485  0.2702  0.0182
    6DOPE   H6Y  739   2.324   3.330   5.817 -0.9144  1.5719 -0.9226
    6DOPE   C37  740   2.129   3.354   5.736  0.2904 -0.3958  0.2292
    6DOPE   H7X  741   2.166   3.323   5.636  0.4700 -0.1803  0.2283
    6DOPE   H7Y  742   2.029   3.305   5.740 -0.2192  0.6516  0.7305
    6DOPE   C38  743   2.110   3.505   5.751 -0.1244 -0.3820 -0.0786
    6DOPE   H8X  744   2.209   3.555   5.754 -0.2105 -0.0747 -1.5027
    6DOPE   H8Y  745   2.055   3.528   5.845 -0.9102 -1.1332 -0.3442
    6DOPE   C39  746   2.032   3.570   5.643 -0.0529 -0.0282 -0.4189
    6DOPE   H9X  747   1.923   3.566   5.657 -0.1379  1.3667 -0.5654
    6DOPE  C310  748   2.083   3.621   5.528 -1.0870  1.4976  0.2666
    6DOPE  H10X  749   2.016   3.655   5.448 -2.1042  0.2026  0.5359
    6DOPE  C311  750   2.229   3.624   5.486  0.5342 -0.0110 -0.5839
    6DOPE  H11X  751   2.251   3.725   5.445  0.5603  0.5813  0.8192
    6DOPE  H11Y  752   2.305   3.604   5.565  0.2069 -2.1021 -0.7397
    6DOPE  C312  753   2.251   3.518   5.369 -0.3961  0.5589 -0.2621
    6DOPE  H12X  754   2.182   3.547   5.287 -2.3928  0.9185  1.4497
    6DOPE  H12Y  755   2.211   3.423   5.411  1.0424  0.1850  0.3384
    6DOPE  C313  756   2.400   3.499   5.330 -0.2302 -0.2369 -0.1542
    6DOPE  H13X  757   2.432   3.600   5.297 -2.3232 -0.0195 -1.7110
    6DOPE  H13Y  758   2.445   3.474   5.428  3.4837  2.9072 -0.8070
    6DOPE  C314  759   2.429   3.399   5.216  0.9220 -0.2111  0.5435
    6DOPE  H14X  760   2.394   3.450   5.124  2.1332 -0.6065 -0.1413
    6DOPE  H14Y  761   2.382   3.302   5.244  2.1892 -0.4292  2.0737
    6DOPE  C315  762   2.567   3.366   5.199 -0.8262  0.5800  0.8071
    6DOPE  H15X  763   2.606   3.321   5.292 -0.2035  0.9085  0.7094
    6DOPE  H15Y  764   2.629   3.458   5.188  1.1082 -0.5912  1.4463
    6DOPE  C316  765   2.590   3.268   5.081  0.0310  0.4967 -0.6442
    6DOPE  H16X  766   2.542   3.316   4.993 -0.5970  0.1331 -0.5038
    6DOPE  H16Y  767   2.528   3.178   5.097  0.1440  0.8284  2.0441
    6DOPE  C317  768   2.740   3.229   5.045  0.0751 -0.7878  0.8372
    6DOPE  H17X  769   2.747   3.152   4.966  0.3303 -0.4168  0.4889
    6DOPE  H17Y  770   2.773   3.319   4.989 -1.5340 -0.7831 -0.1724
    6DOPE  C318  771   2.835   3.193   5.160  0.6010 -0.3043  0.0345
    6DOPE  H18X  772   2.799   3.103   5.212  0.6969  0.0737  0.7625
    6DOPE  H18Y  773   2.939   3.167   5.129  0.1245 -1.0380 -1.0213
    6DOPE  H18Z  774   2.835   3.276   5.233  2.4069 -0.0492 -0.2082
    7DOPE     N  775   5.652   7.505   7.046  0.1671  0.1031 -0.1818
    7DOPE   HN1  776   5.691   7.418   7.089  1.5415 -0.7865 -2.9890
    7DOPE   HN2  777   5.719   7.581   7.025 -1.0233  1.1116 -0.4481
    7DOPE   HN3  778   5.576   7.542   7.107  0.6738  0.7584  0.0640
    7DOPE   C12  779   5.597   7.460   6.918  0.1440 -0.7721  0.0500
    7DOPE  H12A  780   5.683   7.409   6.869 -2.1142 -3.4120 -1.4299
    7DOPE  H12B  781   5.567   7.556   6.870 -1.1499 -1.3136 -0.2644
    7DOPE   C11  782   5.468   7.374   6.939  0.0621  0.0695 -0.1904
    7DOPE  H11A  783   5.496   7.283   6.996  4.1041  0.4717 -1.1818
    7DOPE  H11B  784   5.422   7.352   6.840  1.3579  0.0149 -0.8072
    7DOPE     P  785   5.251   7.529   6.954 -0.0656  0.1269  0.0902
    7DOPE   O13  786   5.308   7.657   6.910 -0.5875 -0.4692  0.1245
    7DOPE   O14  787   5.150   7.535   7.062  0.2035  0.4084 -0.0194
    7DOPE   O11  788   5.198   7.450   6.833  0.5466  0.1885 -0.7294
    7DOPE   O12  789   5.368   7.446   7.015  0.5570  0.2072 -0.5276
    7DOPE    C1  790   5.102   7.519   6.748 -0.2045 -0.4701 -0.1967
    7DOPE    HA  791   5.071   7.616   6.791 -0.5529  0.9721 -3.4660
    7DOPE    HB  792   5.015   7.456   6.722  1.5086 -2.2195 -2.0996
    7DOPE    C2  793   5.159   7.529   6.607  0.0656  0.8761 -0.0223
    7DOPE    HS  794   5.072   7.581   6.562 -0.4060  0.5696  0.5222
    7DOPE   O21  795   5.171   7.393   6.554  0.5154 -0.1516 -0.3663
    7DOPE   C21  796   5.143   7.381   6.424  0.7148  0.3183 -0.4237
    7DOPE   O22  797   5.078   7.466   6.354 -0.5406 -0.0282 -0.5890
    7DOPE   C22  798   5.191   7.245   6.385  0.0426  0.3695 -0.7708
    7DOPE   H2R  799   5.119   7.182   6.443 -0.4017  1.0791 -0.5298
    7DOPE   H2S  800   5.297   7.238   6.416  0.7008 -1.1937 -3.1268
    7DOPE    C3  801   5.290   7.616   6.597  0.6755  0.0860  0.7759
    7DOPE    HX  802   5.368   7.555   6.647  1.4658 -0.2634 -0.8248
    7DOPE    HY  803   5.262   7.706   6.655 -0.5202 -0.1339  0.5597
    7DOPE   O31  804   5.312   7.668   6.463 -0.7139  0.1238 -0.5282
    7DOPE   C31  805   5.430   7.634   6.417  0.1684 -0.3006  0.1903
    7DOPE   O32  806   5.516   7.575   6.476  0.3830  0.0024 -0.2838
    7DOPE   C32  807   5.445   7.678   6.269 -0.5476 -0.0681  0.4608
    7DOPE   H2X  808   5.371   7.629   6.202  0.5282  0.5052 -1.2179
    7DOPE   H2Y  809   5.418   7.786   6.271  0.4829  0.2333 -0.7419
    7DOPE   C23  810   5.182   7.220   6.230 -0.2705  0.1578 -0.5936
    7DOPE   H3R  811   5.085   7.261   6.193 -1.6963  0.0360  2.6445
    7DOPE   H3S  812   5.187   7.109   6.223  1.3903  0.1424  0.4208
    7DOPE   C24  813   5.305   7.283   6.158 -0.2219  0.8751 -0.2871
    7DOPE   H4R  814   5.394   7.240   6.209 -1.6126 -1.2955  0.4432
    7DOPE   H4S  815   5.318   7.390   6.184  1.0031  1.0109 -1.3428
    7DOPE   C25  816   5.312   7.246   6.008  0.1291  0.7183  0.3296
    7DOPE   H5R  817   5.240   7.302   5.945  0.0197 -1.2446 -1.3744
    7DOPE   H5S  818   5.278   7.141   6.009  0.6476  0.5241 -0.8402
    7DOPE   C26  819   5.456   7.255   5.949  0.0053 -0.2554  0.4297
    7DOPE   H6R  820   5.522   7.198   6.018  2.3671  1.0941 -0.5817
    7DOPE   H6S  821   5.487   7.361   5.957  0.9133 -0.6252  2.6167
    7DOPE   C27  822   5.471   7.204   5.806 -0.5534  0.3649 -0.3492
    7DOPE   H7R  823   5.410   7.258   5.730 -0.5161  1.0672  0.1123
    7DOPE   H7S  824   5.417   7.107   5.813 -1.9574  1.2455  3.0202
    7DOPE   C28  825   5.622   7.212   5.761 -0.1759 -0.0695 -0.2845
    7DOPE   H8R  826   5.671   7.129   5.816 -1.8645 -0.1044  1.2858
    7DOPE   H8S  827   5.668   7.301   5.809  0.2038 -0.9022  0.9521
    7DOPE   C29  828   5.638   7.196   5.613  0.0473 -0.4561  0.0177
    7DOPE   H9R  829   5.637   7.097   5.567 -1.6838 -1.5275  2.1782
    7DOPE  C210  830   5.688   7.290   5.533 -0.0165 -0.6190 -0.4849
    7DOPE  H10R  831   5.678   7.281   5.424 -0.9531  0.4832 -0.5103
    7DOPE  C211  832   5.713   7.431   5.574 -0.4130  0.2320 -0.4205
    7DOPE  H11R  833   5.817   7.439   5.614 -1.2328  1.8783  1.5673
    7DOPE  H11S  834   5.658   7.462   5.665 -0.1189  1.2570 -0.5793
    7DOPE  C212  835   5.692   7.542   5.469  0.6028  0.5091 -0.0141
    7DOPE  H12R  836   5.690   7.639   5.523 -0.6865  2.1383 -2.7837
    7DOPE  H12S  837   5.600   7.524   5.410  0.2212  0.3339  0.6214
    7DOPE  C213  838   5.825   7.545   5.389 -0.2763 -0.7497  0.7408
    7DOPE  H13R  839   5.813   7.458   5.322  0.2699 -1.0002  0.9539
    7DOPE  H13S  840   5.910   7.525   5.459 -0.6695 -0.8319  1.2040
    7DOPE  C214  841   5.836   7.669   5.299 -0.6026  0.0092  0.3302
    7DOPE  H14R  842   5.847   7.765   5.354  0.9181 -0.4141  0.8379
    7DOPE  H14S  843   5.736   7.688   5.256  0.3165  1.8790 -1.1738
    7DOPE  C215  844   5.931   7.656   5.179 -0.9058 -0.4425 -0.1217
    7DOPE  H15R  845   5.890   7.569   5.123 -2.2195 -0.5345  0.9418
    7DOPE  H15S  846   6.036   7.633   5.209 -0.2607 -0.0589 -1.9793
    7DOPE  C216  847   5.925   7.784   5.096 -0.0703  0.3950 -0.0762
    7DOPE  H16R  848   5.959   7.863   5.167  0.1143 -0.1457  0.4524
    7DOPE  H16S  849   5.826   7.806   5.052 -0.6349 -1.2142  0.3252
    7DOPE  C217  850   6.014   7.769   4.971  0.2527 -0.4547 -0.2788
    7DOPE  H17R  851   6.105   7.715   5.004 -0.0689 -1.5761 -1.1553
    7DOPE  H17S  852   6.054   7.869   4.946 -1.2177  0.8228  2.1515
    7DOPE  C218  853   5.939   7.697   4.860 -0.2147  0.4892  0.7811
    7DOPE  H18R  854   5.900   7.600   4.897  0.0455  0.5971  1.3472
    7DOPE  H18S  855   6.006   7.687   4.772 -0.6961  3.4263 -0.0301
    7DOPE  H18T  856   5.851   7.752   4.819  0.7620  2.1712  0.8496
    7DOPE   C33  857   5.584   7.647   6.213  0.1765 -0.1839 -0.6815
    7DOPE   H3X  858   5.599   7.538   6.202 -0.4760 -0.2971 -0.4761
    7DOPE   H3Y  859   5.659   7.690   6.283 -0.8785 -1.9567  1.6709
    7DOPE   C34  860   5.604   7.690   6.062 -0.6231  0.5887  0.5293
    7DOPE   H4X  861   5.691   7.642   6.012 -0.7655  1.5444 -0.6786
    7DOPE   H4Y  862   5.511   7.653   6.014 -0.1743  0.2012 -0.0581
    7DOPE   C35  863   5.604   7.844   6.023 -0.7555  0.3162 -0.3753
    7DOPE   H5X  864   5.703   7.894   6.031 -0.6892  0.2566 -0.7974
    7DOPE   H5Y  865   5.550   7.890   6.108  1.4545  0.7124  0.8907
    7DOPE   C36  866   5.537   7.878   5.893  0.4233  0.0435 -0.7389
    7DOPE   H6X  867   5.542   7.988   5.882 -0.8545  0.1007 -0.9359
    7DOPE   H6Y  868   5.427   7.862   5.897  0.5297 -1.0372 -1.7505
    7DOPE   C37  869   5.599   7.819   5.767 -0.4675  0.3104 -0.2178
    7DOPE   H7X  870   5.704   7.855   5.763 -0.5584  0.5302 -0.6754
    7DOPE   H7Y  871   5.611   7.709   5.778 -0.2121  0.1763 -1.6022
    7DOPE   C38  872   5.526   7.857   5.646 -0.5279  0.3862  0.1588
    7DOPE   H8X  873   5.593   7.861   5.557 -0.1027  0.3104  0.4698
    7DOPE   H8Y  874   5.502   7.963   5.668 -0.4754  0.0338  2.1757
    7DOPE   C39  875   5.412   7.765   5.618 -0.2317  0.0999 -0.7726
    7DOPE   H9X  876   5.350   7.744   5.706  1.1366  2.2354  0.7966
    7DOPE  C310  877   5.372   7.718   5.500 -0.1971 -0.1338  0.9448
    7DOPE  H10X  878   5.279   7.659   5.493  0.7984 -1.5216 -2.1842
    7DOPE  C311  879   5.428   7.763   5.364  0.3253  0.6590  0.0691
    7DOPE  H11X  880   5.496   7.851   5.358 -0.1683  0.9682 -1.7593
    7DOPE  H11Y  881   5.485   7.683   5.313  0.9757  0.2423  1.4025
    7DOPE  C312  882   5.310   7.814   5.278  0.2228 -0.7178  0.6980
    7DOPE  H12X  883   5.250   7.896   5.322 -0.0966 -1.1289  1.0439
    7DOPE  H12Y  884   5.230   7.741   5.253  0.5141 -0.4212 -1.2961
    7DOPE  C313  885   5.364   7.863   5.140  0.0713  0.2333 -0.1458
    7DOPE  H13X  886   5.428   7.950   5.167  0.4361 -0.7385  2.3997
    7DOPE  H13Y  887   5.424   7.779   5.100  0.9565  1.2906 -1.0935
    7DOPE  C314  888   5.277   7.900   5.029  1.1515  0.4189  0.3580
    7DOPE  H14X  889   5.219   7.818   4.980  3.3116  0.3227 -2.2769
    7DOPE  H14Y  890   5.341   7.951   4.954  1.0106  0.2038  0.0897
    7DOPE  C315  891   5.173   8.006   5.073  0.1491  0.8576  0.2941
    7DOPE  H15X  892   5.212   8.107   5.099 -1.2765  1.6238 -0.4332
    7DOPE  H15Y  893   5.122   7.985   5.169  1.4512  2.6362  1.4475
    7DOPE  C316  894   5.066   8.043   4.964  0.0534 -0.3776 -0.1086
    7DOPE  H16X  895   4.995   8.124   4.991  0.0339 -0.0779 -1.0491
    7DOPE  H16Y  896   5.017   7.945   4.947  0.1588 -0.3346 -0.6646
    7DOPE  C317  897   5.124   8.091   4.826  0.1566  0.1202  0.7551
    7DOPE  H17X  898   5.200   8.170   4.843 -0.3994  0.4522  1.7889
    7DOPE  H17Y  899   5.170   8.007   4.769 -1.4737 -0.9692  0.9764
    7DOPE  C318  900   5.004   8.136   4.739  0.1620 -0.7978 -0.8003
    7DOPE  H18X  901   4.937   8.051   4.715 -0.3821 -0.5809 -0.0428
    7DOPE  H18Y  902   4.938   8.212   4.785 -0.5370 -1.0934 -1.2908
    7DOPE  H18Z  903   5.031   8.184   4.642  1.8077  0.3608  0.1731
    8DOPE     N  904   6.860   6.120   6.722  0.1336  0.2895 -0.3035
    8DOPE   HN1  905   6.931   6.188   6.686 -1.9814  2.4898 -0.5592
    8DOPE   HN2  906   6.875   6.110   6.824  0.6194  1.5252 -0.2264
    8DOPE   HN3  907   6.872   6.031   6.670  1.5401  0.7401 -0.8102
    8DOPE   C12  908   6.722   6.174   6.704  0.2979 -0.0057 -0.3382
    8DOPE  H12A  909   6.704   6.193   6.596  0.2300  0.6879 -0.2123
    8DOPE  H12B  910   6.708   6.268   6.762  1.2981  1.5564 -2.4973
    8DOPE   C11  911   6.621   6.061   6.751  0.2627 -0.3983  0.4375
    8DOPE  H11A  912   6.524   6.113   6.739  0.9144  0.4417 -1.7244
    8DOPE  H11B  913   6.642   6.022   6.853  0.2649  1.3925  1.1471
    8DOPE     P  914   6.538   5.823   6.674 -0.5312  0.1591 -0.0721
    8DOPE   O13  915   6.400   5.836   6.627 -0.9608  1.0270  0.0913
    8DOPE   O14  916   6.561   5.776   6.814 -0.5522  0.0081 -0.1822
    8DOPE   O11  917   6.604   5.704   6.581  0.5071 -0.3928  0.2229
    8DOPE   O12  918   6.619   5.957   6.650  0.5141  0.3956 -0.4131
    8DOPE    C1  919   6.699   5.748   6.483 -0.0718 -0.6420  0.1247
    8DOPE    HA  920   6.765   5.662   6.459  0.9528  0.1467  0.0913
    8DOPE    HB  921   6.766   5.834   6.501 -1.6534  1.4376 -2.8984
    8DOPE    C2  922   6.634   5.772   6.342 -0.5042 -0.1942  0.5588
    8DOPE    HS  923   6.721   5.794   6.276  1.7327  0.0848  3.4108
    8DOPE   O21  924   6.542   5.881   6.349 -0.0624 -0.2832  0.0179
    8DOPE   C21  925   6.594   6.001   6.349 -0.1348  0.1984 -0.8388
    8DOPE   O22  926   6.715   6.030   6.348  0.0543  0.4718  1.0264
    8DOPE   C22  927   6.480   6.100   6.364  0.5358  0.7528  0.3910
    8DOPE   H2R  928   6.523   6.200   6.344 -2.1776  2.1076  0.9273
    8DOPE   H2S  929   6.451   6.085   6.471 -2.7426  0.2633 -0.4486
    8DOPE    C3  930   6.559   5.647   6.304 -0.3232  0.4968  0.3843
    8DOPE    HX  931   6.482   5.625   6.380 -0.1505  0.8387  0.6599
    8DOPE    HY  932   6.630   5.562   6.299  1.0673  1.6468 -0.1955
    8DOPE   O31  933   6.498   5.660   6.174  0.6737  0.1047 -0.2273
    8DOPE   C31  934   6.372   5.637   6.168 -0.0512  0.8713 -0.1021
    8DOPE   O32  935   6.287   5.615   6.255  0.2626  0.3768 -0.0496
    8DOPE   C32  936   6.338   5.639   6.018  0.4465  0.1725 -0.2364
    8DOPE   H2X  937   6.230   5.656   5.997 -0.0366 -1.4973  0.7379
    8DOPE   H2Y  938   6.394   5.722   5.970  0.6685 -0.3304 -0.8702
    8DOPE   C23  939   6.354   6.077   6.266  0.1202  0.6138 -1.0417
    8DOPE   H3R  940   6.286   6.153   6.310 -0.4388  0.3932 -1.5123
    8DOPE   H3S  941   6.308   5.977   6.280 -2.1560  1.7691  0.3541
    8DOPE   C24  942   6.381   6.120   6.120  0.2116 -0.3092  0.0895
    8DOPE   H4R  943   6.461   6.048   6.095 -0.8477 -1.4636 -0.0937
    8DOPE   H4S  944   6.426   6.221   6.113 -0.7551  0.0793 -1.0349
    8DOPE   C25  945   6.256   6.097   6.031 -0.2556  0.3536 -0.0579
    8DOPE   H5R  946   6.169   6.139   6.086 -0.5958 -2.0164  1.3156
    8DOPE   H5S  947   6.235   5.989   6.039  0.2260  0.2129 -0.6655
    8DOPE   C26  948   6.290   6.144   5.888 -0.6745  0.4144  0.2386
    8DOPE   H6R  949   6.398   6.150   5.865 -0.9106  0.7541 -0.8077
    8DOPE   H6S  950   6.237   6.239   5.868  1.4007  1.6286  0.3101
    8DOPE   C27  951   6.221   6.060   5.772 -0.4718 -0.2243 -0.7682
    8DOPE   H7R  952   6.118   6.032   5.802 -0.1857  1.7056  2.5423
    8DOPE   H7S  953   6.288   5.972   5.762 -0.9543 -1.1481  2.6112
    8DOPE   C28  954   6.222   6.140   5.640 -0.1638 -0.8207 -0.0703
    8DOPE   H8R  955   6.321   6.185   5.616 -0.2317  1.5470  3.3996
    8DOPE   H8S  956   6.149   6.224   5.648  2.2721  1.3195  1.1987
    8DOPE   C29  957   6.168   6.058   5.529 -0.7487  0.3256  0.0072
    8DOPE   H9R  958   6.075   6.005   5.557  0.3067 -1.8954 -0.4643
    8DOPE  C210  959   6.227   6.026   5.414  0.5040 -0.8271 -0.0590
    8DOPE  H10R  960   6.172   5.953   5.352  0.3295 -0.1422 -0.7211
    8DOPE  C211  961   6.348   6.094   5.353  0.4452  0.1779 -0.6320
    8DOPE  H11R  962   6.403   6.168   5.415 -0.7496  2.2324 -1.9149
    8DOPE  H11S  963   6.312   6.152   5.265 -1.3584  0.0067 -0.0500
    8DOPE  C212  964   6.452   5.974   5.328 -0.4409 -0.6059  0.4271
    8DOPE  H12R  965   6.405   5.926   5.239 -2.1701  2.1074 -0.2156
    8DOPE  H12S  966   6.471   5.914   5.420 -2.1901  1.9816  2.6046
    8DOPE  C213  967   6.588   6.025   5.267  0.8669  0.6489 -0.1395
    8DOPE  H13R  968   6.652   6.068   5.347  3.1020 -1.8274 -0.4688
    8DOPE  H13S  969   6.577   6.115   5.203  0.8787  0.6920 -0.0817
    8DOPE  C214  970   6.678   5.917   5.213 -0.4504 -0.0103  0.6443
    8DOPE  H14R  971   6.757   5.944   5.139  1.2755 -2.2476  1.5634
    8DOPE  H14S  972   6.609   5.847   5.160 -0.8245  0.4687  0.4928
    8DOPE  C215  973   6.744   5.836   5.325  0.3729  0.1608 -0.1127
    8DOPE  H15R  974   6.665   5.812   5.400  0.7995  1.4183  0.7707
    8DOPE  H15S  975   6.813   5.900   5.383  0.3433 -0.4754  0.6450
    8DOPE  C216  976   6.817   5.716   5.270  0.0930  0.0656 -0.1316
    8DOPE  H16R  977   6.914   5.757   5.234 -0.5295  2.3901  0.6071
    8DOPE  H16S  978   6.756   5.659   5.197 -1.3210  1.2389  0.0791
    8DOPE  C217  979   6.868   5.616   5.383 -0.3021 -0.4215 -0.2981
    8DOPE  H17R  980   6.783   5.606   5.453  0.8333  0.0317  1.1995
    8DOPE  H17S  981   6.950   5.674   5.431  1.3968 -0.9186 -2.4561
    8DOPE  C218  982   6.927   5.490   5.329 -0.9472 -0.9482  0.5645
    8DOPE  H18R  983   7.028   5.505   5.284 -0.3068 -1.0308  1.9213
    8DOPE  H18S  984   6.871   5.442   5.246 -0.0386 -0.9059 -0.0893
    8DOPE  H18T  985   6.940   5.418   5.413 -0.6126  1.9537  3.1770
    8DOPE   C33  986   6.385   5.520   5.933  0.8085  0.3345 -0.2790
    8DOPE   H3X  987   6.306   5.446   5.910  1.4718  0.3060 -2.7351
    8DOPE   H3Y  988   6.467   5.456   5.972 -0.8092 -2.5142 -1.2421
    8DOPE   C34  989   6.429   5.563   5.791 -1.2390 -0.0437  0.1200
    8DOPE   H4X  990   6.502   5.646   5.798 -0.7805 -0.5717  2.2558
    8DOPE   H4Y  991   6.475   5.490   5.721 -0.7377 -0.6667  1.0689
    8DOPE   C35  992   6.311   5.630   5.708 -0.6395  0.9992 -0.1011
    8DOPE   H5X  993   6.262   5.702   5.777  0.4684  1.6014  0.0916
    8DOPE   H5Y  994   6.242   5.548   5.680 -0.9793  0.7508  1.3949
    8DOPE   C36  995   6.363   5.709   5.587 -0.1699 -0.2131  0.1404
    8DOPE   H6X  996   6.427   5.790   5.628 -0.2516  0.3466 -0.8164
    8DOPE   H6Y  997   6.284   5.758   5.526  1.6811  0.5048 -1.8100
    8DOPE   C37  998   6.459   5.632   5.492  0.2976  0.2985  0.3931
    8DOPE   H7X  999   6.470   5.698   5.403 -1.1803  0.7628  0.5230
    8DOPE   H7Y 1000   6.557   5.617   5.542  1.1649  1.7773 -0.7892
    8DOPE   C38 1001   6.403   5.491   5.457 -0.1476  0.1702 -0.1750
    8DOPE   H8X 1002   6.378   5.427   5.545 -3.1530  1.1406 -0.2262
    8DOPE   H8Y 1003   6.480   5.440   5.395  0.0753 -1.7909  1.5709
    8DOPE   C39 1004   6.269   5.504   5.374 -0.1373  0.0159  0.4385
    8DOPE   H9X 1005   6.180   5.506   5.438 -0.3880 -2.0932  0.2186
    8DOPE  C310 1006   6.260   5.521   5.243  0.1343  0.3839 -0.0748
    8DOPE  H10X 1007   6.156   5.541   5.214 -0.2255 -0.2067  0.7798
    8DOPE  C311 1008   6.363   5.516   5.131  0.0482  0.7906  0.4962
    8DOPE  H11X 1009   6.463   5.484   5.167  0.6721  0.0946 -1.7199
    8DOPE  H11Y 1010   6.331   5.439   5.058 -0.2403  0.5908  0.8302
    8DOPE  C312 1011   6.388   5.663   5.083 -0.3493 -0.0885 -0.1771
    8DOPE  H12X 1012   6.468   5.655   5.007  0.0272 -0.3299  0.2390
    8DOPE  H12Y 1013   6.410   5.732   5.167 -1.9704  0.2185  0.0218
    8DOPE  C313 1014   6.269   5.728   5.004 -0.2794 -0.5856  0.3564
    8DOPE  H13X 1015   6.227   5.652   4.935  0.8128 -1.1913  0.3295
    8DOPE  H13Y 1016   6.201   5.758   5.086  1.4611 -1.9277  2.3636
    8DOPE  C314 1017   6.312   5.851   4.916  0.3422 -0.8452  0.0689
    8DOPE  H14X 1018   6.405   5.900   4.952  0.3243  0.4251 -1.4746
    8DOPE  H14Y 1019   6.235   5.930   4.923  1.9446  0.8004 -0.1161
    8DOPE  C315 1020   6.348   5.806   4.778 -0.3088 -0.0112  0.2347
    8DOPE  H15X 1021   6.270   5.745   4.728 -1.4308 -0.0787  1.9935
    8DOPE  H15Y 1022   6.434   5.736   4.787  0.7822  1.3877  1.0898
    8DOPE  C316 1023   6.396   5.921   4.691  0.1449  0.0902  0.2086
    8DOPE  H16X 1024   6.479   5.974   4.743 -0.0604 -0.9719  1.6807
    8DOPE  H16Y 1025   6.310   5.992   4.692 -0.3766 -0.5271  1.9041
    8DOPE  C317 1026   6.421   5.895   4.542  0.5766 -0.2346  0.5956
    8DOPE  H17X 1027   6.492   5.965   4.492 -0.6917  0.1497 -0.7467
    8DOPE  H17Y 1028   6.473   5.798   4.540  0.8098 -0.1984  2.6765
    8DOPE  C318 1029   6.296   5.880   4.460 -0.4618 -0.2600  0.5204
    8DOPE  H18X 1030   6.231   5.970   4.455  0.8893  0.6943 -0.5258
    8DOPE  H18Y 1031   6.222   5.809   4.502 -2.5984  1.4137 -0.2649
    8DOPE  H18Z 1032   6.311   5.850   4.354 -1.6013 -1.2653  0.6182
    9DOPE     N 1033   1.713   4.257   7.043 -0.2944  0.3537  0.0537
    9DOPE   HN1 1034   1.791   4.300   6.990 -0.7527 -1.2214 -1.9938
    9DOPE   HN2 1035   1.703   4.158   7.016  0.7351 -0.3112  1.9512
    9DOPE   HN3 1036   1.626   4.302   7.009 -0.0616  0.2097 -0.7533
    9DOPE   C12 1037   1.742   4.267   7.194  0.2468 -0.5748  0.0627
    9DOPE  H12A 1038   1.651   4.254   7.256 -0.1439  1.4698  0.0034
    9DOPE  H12B 1039   1.774   4.373   7.205 -3.1724  0.5715  0.1097
    9DOPE   C11 1040   1.845   4.167   7.238 -0.7408 -0.3288  0.5394
    9DOPE  H11A 1041   1.794   4.068   7.243  2.7334 -2.2246  1.6252
    9DOPE  H11B 1042   1.877   4.192   7.341  0.5468  0.9427 -0.1362
    9DOPE     P 1043   2.049   4.023   7.157 -0.1135 -0.1487 -0.3269
    9DOPE   O13 1044   1.994   3.909   7.232  0.3748  0.0885 -0.6250
    9DOPE   O14 1045   2.185   4.059   7.197  0.4346 -0.6316 -0.0528
    9DOPE   O11 1046   2.058   3.985   7.003  0.1622 -0.6804  0.6710
    9DOPE   O12 1047   1.963   4.158   7.155 -0.0320  0.2695 -0.6978
    9DOPE    C1 1048   2.098   4.088   6.911 -0.2090  0.5012  0.2511
    9DOPE    HA 1049   2.204   4.070   6.883 -0.7108 -1.8767 -0.3017
    9DOPE    HB 1050   2.112   4.190   6.954  2.2676  0.0737  0.6526
    9DOPE    C2 1051   2.028   4.082   6.776  0.5675  0.2147 -0.1572
    9DOPE    HS 1052   1.928   4.130   6.781  0.3106 -0.3257 -0.0102
    9DOPE   O21 1053   2.016   3.949   6.726 -0.1323 -0.1154 -0.0450
    9DOPE   C21 1054   1.925   3.913   6.636  0.6112  0.4700 -0.0596
    9DOPE   O22 1055   1.833   3.983   6.594  0.2198 -0.5391 -0.0858
    9DOPE   C22 1056   1.960   3.778   6.592  0.6238  0.8031  0.3677
    9DOPE   H2R 1057   1.878   3.705   6.611  0.4548  0.8182 -0.2839
    9DOPE   H2S 1058   2.046   3.737   6.648  0.1264  0.1217  0.6521
    9DOPE    C3 1059   2.109   4.169   6.674 -0.5707  0.0156 -1.1140
    9DOPE    HX 1060   2.209   4.122   6.679 -1.8632 -2.7834  1.6403
    9DOPE    HY 1061   2.110   4.272   6.717 -0.7384 -0.8862  1.2072
    9DOPE   O31 1062   2.064   4.171   6.536  0.4580 -0.4276 -0.4344
    9DOPE   C31 1063   1.964   4.259   6.515 -0.2228  0.0318 -0.2667
    9DOPE   O32 1064   1.907   4.331   6.595 -0.0011  0.4377 -0.0265
    9DOPE   C32 1065   1.942   4.253   6.364 -0.1529  0.5195  0.0108
    9DOPE   H2X 1066   2.035   4.288   6.315  1.8242 -2.0008  1.7009
    9DOPE   H2Y 1067   1.929   4.148   6.329  1.5306  1.1228 -2.6648
    9DOPE   C23 1068   1.991   3.767   6.444  0.5068  0.3597 -1.1050
    9DOPE   H3R 1069   2.097   3.792   6.423  0.7699 -0.2279 -0.5065
    9DOPE   H3S 1070   1.936   3.845   6.386  2.1537 -0.4920 -4.0061
    9DOPE   C24 1071   1.970   3.634   6.377  0.0332  0.6664 -0.3108
    9DOPE   H4R 1072   1.859   3.624   6.374 -0.2435  2.1146  2.1263
    9DOPE   H4S 1073   2.021   3.545   6.420  2.2647  0.8658 -2.3414
    9DOPE   C25 1074   2.029   3.633   6.227  0.1170 -0.2017 -0.4314
    9DOPE   H5R 1075   1.981   3.549   6.172 -1.0169 -0.8310  1.3973
    9DOPE   H5S 1076   2.137   3.612   6.238 -0.2657 -1.6539  1.0034
    9DOPE   C26 1077   2.010   3.771   6.153 -0.1759  0.1399  0.0384
    9DOPE   H6R 1078   2.073   3.848   6.200  2.1757 -0.0521 -2.5649
    9DOPE   H6S 1079   1.901   3.791   6.161 -0.8084 -3.3818  3.7841
    9DOPE   C27 1080   2.047   3.768   6.007  0.0562  0.1897 -0.1405
    9DOPE   H7R 1081   1.992   3.689   5.952 -0.0903 -0.0101  0.2872
    9DOPE   H7S 1082   2.150   3.726   6.000  0.0050 -0.3573  1.7899
    9DOPE   C28 1083   2.024   3.904   5.949 -0.1019  0.0145 -0.1469
    9DOPE   H8R 1084   2.055   3.988   6.015 -1.6195 -0.0644  0.7071
    9DOPE   H8S 1085   1.915   3.922   5.951  0.0116  1.0335 -1.5486
    9DOPE   C29 1086   2.094   3.916   5.818 -0.7047  0.3765  0.1587
    9DOPE   H9R 1087   2.203   3.901   5.821 -0.8805 -1.0063  0.2953
    9DOPE  C210 1088   2.033   3.960   5.704 -0.0032  0.4829 -0.8058
    9DOPE  H10R 1089   2.094   3.969   5.613  1.9752  0.8538  0.5026
    9DOPE  C211 1090   1.887   3.996   5.686  0.4374  0.1184  0.2010
    9DOPE  H11R 1091   1.860   4.103   5.675 -0.9347 -0.0538  1.4614
    9DOPE  H11S 1092   1.828   3.976   5.779 -2.3383  1.4448 -1.1703
    9DOPE  C212 1093   1.824   3.923   5.569  0.0326 -0.2839  0.2630
    9DOPE  H12R 1094   1.714   3.926   5.587 -0.5396  0.9115 -2.8549
    9DOPE  H12S 1095   1.855   3.816   5.569 -0.2506 -0.4264  2.6195
    9DOPE  C213 1096   1.862   3.992   5.432  0.0062  0.0692 -0.0244
    9DOPE  H13R 1097   1.872   4.102   5.440 -2.6008  0.4176 -0.4860
    9DOPE  H13S 1098   1.780   3.972   5.359  1.5492 -2.6223 -1.1594
    9DOPE  C214 1099   1.989   3.944   5.363 -1.0231  0.3614 -0.4561
    9DOPE  H14R 1100   1.980   3.834   5.349  3.5743 -0.5844  1.9470
    9DOPE  H14S 1101   2.086   3.949   5.418 -0.4786 -2.2096 -1.0298
    9DOPE  C215 1102   1.986   4.014   5.226  0.4039  0.2326 -0.2667
    9DOPE  H15R 1103   2.002   4.124   5.232 -2.6004  0.7469  0.1197
    9DOPE  H15S 1104   1.882   4.005   5.186  0.5087 -1.1091 -0.2810
    9DOPE  C216 1105   2.078   3.941   5.129 -0.6919 -0.0984 -0.0573
    9DOPE  H16R 1106   2.177   3.932   5.177  0.0053  3.1923 -0.6448
    9DOPE  H16S 1107   2.094   3.992   5.032  0.2438 -1.5039 -0.6680
    9DOPE  C217 1108   2.042   3.794   5.095  0.7183 -0.4252  0.1958
    9DOPE  H17R 1109   2.055   3.726   5.182  2.0827 -1.0829 -0.4902
    9DOPE  H17S 1110   2.121   3.762   5.025  0.5584  2.5249 -1.5217
    9DOPE  C218 1111   1.907   3.787   5.028 -0.4583 -0.5419  0.1927
    9DOPE  H18R 1112   1.889   3.684   4.989  0.5066 -0.0614 -1.6069
    9DOPE  H18S 1113   1.915   3.855   4.941 -0.6094  0.0289  0.6180
    9DOPE  H18T 1114   1.819   3.809   5.092 -0.5561 -3.5346  1.2692
    9DOPE   C33 1115   1.810   4.332   6.321 -0.2860 -0.5977 -0.3063
    9DOPE   H3X 1116   1.819   4.441   6.341  0.8724 -0.8536  0.6902
    9DOPE   H3Y 1117   1.727   4.288   6.381  1.8293 -1.0012  2.5604
    9DOPE   C34 1118   1.776   4.313   6.171 -0.5596 -0.3828  0.7382
    9DOPE   H4X 1119   1.774   4.208   6.135  0.0443 -0.0533 -0.2983
    9DOPE   H4Y 1120   1.672   4.350   6.167 -0.6658 -0.7473 -0.2080
    9DOPE   C35 1121   1.871   4.401   6.079  0.1607 -0.5117 -0.5223
    9DOPE   H5X 1122   1.980   4.380   6.082  0.2668 -0.2363 -1.9132
    9DOPE   H5Y 1123   1.865   4.505   6.119  0.3761 -0.5052 -0.5015
    9DOPE   C36 1124   1.827   4.414   5.931 -0.8253  1.5063  0.3092
    9DOPE   H6X 1125   1.722   4.447   5.917 -0.9151  1.0389 -0.1406
    9DOPE   H6Y 1126   1.833   4.314   5.883  0.9153  2.9334 -2.7496
    9DOPE   C37 1127   1.917   4.509   5.847  1.0128  0.5294 -0.5277
    9DOPE   H7X 1128   1.889   4.616   5.862 -0.2826 -0.0447  1.5052
    9DOPE   H7Y 1129   2.019   4.503   5.892  0.5849 -1.0778  0.2814
    9DOPE   C38 1130   1.918   4.468   5.700 -0.0683 -0.5866  0.0620
    9DOPE   H8X 1131   1.934   4.359   5.686 -0.8597 -0.8212  0.8248
    9DOPE   H8Y 1132   2.005   4.525   5.663 -1.3022  1.9881  0.8374
    9DOPE   C39 1133   1.789   4.509   5.636  0.3648  0.3771  0.7399
    9DOPE   H9X 1134   1.701   4.454   5.672 -0.2360 -1.1165 -2.5963
    9DOPE  C310 1135   1.765   4.598   5.533 -0.5196 -0.0952 -0.2154
    9DOPE  H10X 1136   1.659   4.602   5.501 -1.3998 -1.2551  2.3003
    9DOPE  C311 1137   1.867   4.672   5.451 -0.6654 -0.9542  0.5681
    9DOPE  H11X 1138   1.858   4.780   5.475  0.8278 -0.5069 -0.8036
    9DOPE  H11Y 1139   1.972   4.641   5.467 -0.5679 -0.2279  1.3896
    9DOPE  C312 1140   1.847   4.648   5.304 -0.7910  0.7405 -0.6646
    9DOPE  H12X 1141   1.740   4.669   5.284 -0.7531 -0.4087 -2.2958
    9DOPE  H12Y 1142   1.871   4.542   5.283  0.6304  0.5800  1.5405
    9DOPE  C313 1143   1.942   4.727   5.222  0.3029 -0.3286  0.6389
    9DOPE  H13X 1144   1.910   4.833   5.224  0.9042 -0.1360  0.2457
    9DOPE  H13Y 1145   2.051   4.719   5.241  0.4551  0.7479  0.2976
    9DOPE  C314 1146   1.924   4.693   5.069  0.2597  0.1623 -0.0264
    9DOPE  H14X 1147   1.936   4.584   5.057 -3.1381 -0.1947 -1.4029
    9DOPE  H14Y 1148   1.994   4.749   5.002 -0.4318  0.7248 -0.2948
    9DOPE  C315 1149   1.783   4.726   5.000  0.4223  0.3505 -0.0637
    9DOPE  H15X 1150   1.749   4.830   5.019  0.5165  0.7262 -1.7623
    9DOPE  H15Y 1151   1.702   4.666   5.047 -0.3880  1.6775  0.2805
    9DOPE  C316 1152   1.787   4.682   4.854 -0.0164 -0.4883 -0.3758
    9DOPE  H16X 1153   1.808   4.573   4.850  3.3149  0.0782 -2.1657
    9DOPE  H16Y 1154   1.873   4.730   4.802  1.9208 -0.4784  2.6368
    9DOPE  C317 1155   1.654   4.689   4.766 -0.1206 -0.4987 -0.1409
    9DOPE  H17X 1156   1.677   4.653   4.663 -0.4899 -0.8440 -0.1004
    9DOPE  H17Y 1157   1.573   4.624   4.803 -1.1268 -0.7509 -2.5877
    9DOPE  C318 1158   1.598   4.830   4.763  0.1926 -0.2177  0.7158
    9DOPE  H18X 1159   1.565   4.875   4.859  0.1515  0.4150  0.4097
    9DOPE  H18Y 1160   1.676   4.901   4.726  0.6311 -1.1674 -0.2240
    9DOPE  H18Z 1161   1.508   4.840   4.700  0.1238  1.6886  1.0568
   10DOPE     N 1162   1.683   6.396   7.335  0.5463 -0.3357  1.0499
   10DOPE   HN1 1163   1.660   6.331   7.413  1.1138 -1.8745 -0.0243
   10DOPE   HN2 1164   1.717   6.483   7.379  0.4679 -0.1877  0.8178
   10DOPE   HN3 1165   1.593   6.427   7.294  1.3030 -0.7192 -1.0142
   10DOPE   C12 1166   1.784   6.336   7.240  0.2559  0.4824  0.3719
   10DOPE  H12A 1167   1.740   6.258   7.175  0.9512  0.2907  0.1223
   10DOPE  H12B 1168   1.859   6.274   7.294 -1.4501 -2.1340 -0.0870
   10DOPE   C11 1169   1.837   6.449   7.149  0.0167  0.4653  0.3303
   10DOPE  H11A 1170   1.763   6.485   7.075 -1.3014  1.7945  2.1995
   10DOPE  H11B 1171   1.909   6.400   7.081 -0.6963 -0.7905  0.4334
   10DOPE     P 1172   2.053   6.580   7.224 -0.4123  0.2627 -0.3489
   10DOPE   O13 1173   2.129   6.470   7.291  0.4179  0.3842  0.1705
   10DOPE   O14 1174   2.073   6.709   7.292  0.5917  0.2864 -0.1996
   10DOPE   O11 1175   2.094   6.596   7.069 -0.2294  0.0862  0.0598
   10DOPE   O12 1176   1.896   6.560   7.217  0.1198 -0.0243 -0.5255
   10DOPE    C1 1177   2.077   6.722   7.012  0.0974 -0.0184  0.8244
   10DOPE    HA 1178   2.171   6.746   6.959  0.9382  3.5806  3.4716
   10DOPE    HB 1179   2.081   6.813   7.076  1.3820 -0.9622  2.1414
   10DOPE    C2 1180   1.961   6.729   6.904  0.0419 -0.3670  0.5544
   10DOPE    HS 1181   1.867   6.708   6.959 -0.8539 -0.6334 -0.9983
   10DOPE   O21 1182   1.994   6.631   6.799  0.6515 -0.0143 -0.2055
   10DOPE   C21 1183   1.889   6.592   6.733  0.7500 -0.3652  0.5089
   10DOPE   O22 1184   1.773   6.588   6.771  0.3257 -0.2878  0.2272
   10DOPE   C22 1185   1.933   6.516   6.609 -0.4930 -0.6258 -0.0556
   10DOPE   H2R 1186   1.941   6.409   6.638  1.0261 -0.6105 -0.3221
   10DOPE   H2S 1187   2.035   6.546   6.578 -0.7147  0.9380  0.5976
   10DOPE    C3 1188   1.944   6.878   6.847  0.5354 -0.7512  0.4233
   10DOPE    HX 1189   2.041   6.917   6.810  0.0154  2.3506  2.0124
   10DOPE    HY 1190   1.918   6.927   6.943  0.4789 -2.6812  1.4551
   10DOPE   O31 1191   1.845   6.883   6.740  0.1331 -0.3098 -0.0030
   10DOPE   C31 1192   1.715   6.888   6.771  0.2184 -0.0745 -1.1439
   10DOPE   O32 1193   1.671   6.894   6.886 -0.1046  0.4779 -0.0880
   10DOPE   C32 1194   1.635   6.895   6.642  0.0370  0.2640  0.4435
   10DOPE   H2X 1195   1.669   6.804   6.587 -0.4298  0.1656  0.3109
   10DOPE   H2Y 1196   1.529   6.874   6.666  0.1364 -3.3268 -1.3935
   10DOPE   C23 1197   1.841   6.531   6.486  0.0003  0.9020  0.1532
   10DOPE   H3R 1198   1.735   6.543   6.517  0.3409  3.2814  0.6047
   10DOPE   H3S 1199   1.859   6.438   6.428  1.9959  0.3326  1.5740
   10DOPE   C24 1200   1.878   6.659   6.402 -0.0612  0.5716  0.5781
   10DOPE   H4R 1201   1.984   6.654   6.369 -0.1755  2.5937 -0.2429
   10DOPE   H4S 1202   1.854   6.741   6.474 -1.9467 -1.6110  2.6187
   10DOPE   C25 1203   1.785   6.675   6.279  0.0231 -0.5960 -0.0215
   10DOPE   H5R 1204   1.681   6.688   6.315  0.9732  0.7231  2.4911
   10DOPE   H5S 1205   1.789   6.580   6.221 -1.7282 -1.2260  0.8440
   10DOPE   C26 1206   1.834   6.769   6.175 -0.4093 -0.0456  0.2518
   10DOPE   H6R 1207   1.939   6.754   6.144 -0.9954 -1.5389 -1.0999
   10DOPE   H6S 1208   1.830   6.867   6.228 -1.1816 -0.1774  0.4567
   10DOPE   C27 1209   1.753   6.774   6.045 -0.6151 -0.1560 -0.1626
   10DOPE   H7R 1210   1.655   6.816   6.074  0.3556  1.9824  0.1876
   10DOPE   H7S 1211   1.746   6.671   6.004 -2.0810  0.5185 -1.6972
   10DOPE   C28 1212   1.810   6.868   5.934  0.3701 -0.5885 -0.2411
   10DOPE   H8R 1213   1.919   6.848   5.931  0.6120  0.6508 -0.1071
   10DOPE   H8S 1214   1.796   6.972   5.968  2.1862 -0.5315  0.4306
   10DOPE   C29 1215   1.740   6.844   5.804 -0.2715  0.1276  0.1573
   10DOPE   H9R 1216   1.685   6.749   5.792 -2.0232  1.0107  0.8569
   10DOPE  C210 1217   1.741   6.932   5.701 -0.4404 -1.1363  0.6309
   10DOPE  H10R 1218   1.696   6.900   5.606 -2.1816 -1.0987  1.4036
   10DOPE  C211 1219   1.815   7.065   5.695 -0.2972  0.0484 -0.6646
   10DOPE  H11R 1220   1.875   7.078   5.602  0.0899  0.6783 -0.3333
   10DOPE  H11S 1221   1.887   7.085   5.777  1.7427  3.1515 -3.0004
   10DOPE  C212 1222   1.717   7.186   5.699 -0.4152  1.0895 -0.9433
   10DOPE  H12R 1223   1.657   7.174   5.791  0.8024 -2.1406 -0.4311
   10DOPE  H12S 1224   1.659   7.172   5.606 -1.3967  1.0579 -0.3334
   10DOPE  C213 1225   1.783   7.321   5.710  0.1007 -0.3554 -0.7153
   10DOPE  H13R 1226   1.854   7.336   5.625  0.3034 -1.4019 -0.7490
   10DOPE  H13S 1227   1.844   7.323   5.803 -1.1685 -0.7826  0.1492
   10DOPE  C214 1228   1.674   7.433   5.714 -0.4110  0.0031  0.0932
   10DOPE  H14R 1229   1.618   7.428   5.810  0.1666  0.2864  0.4570
   10DOPE  H14S 1230   1.599   7.405   5.637  0.6146 -2.0395 -0.2433
   10DOPE  C215 1231   1.720   7.581   5.687 -0.4656  0.1076  0.0642
   10DOPE  H15R 1232   1.780   7.616   5.774  1.2727  0.9132 -1.3790
   10DOPE  H15S 1233   1.623   7.633   5.672  0.2999  1.4237 -0.5433
   10DOPE  C216 1234   1.806   7.600   5.556  0.1156  0.5006  0.2219
   10DOPE  H16R 1235   1.741   7.541   5.488 -0.1573  1.6531 -0.5358
   10DOPE  H16S 1236   1.908   7.557   5.564 -0.4258 -0.7821  0.5457
   10DOPE  C217 1237   1.813   7.750   5.518 -0.2831 -0.2395 -0.4363
   10DOPE  H17R 1238   1.720   7.799   5.555 -0.4498 -0.9383  0.0864
   10DOPE  H17S 1239   1.821   7.763   5.408 -0.4584 -2.5164 -0.7654
   10DOPE  C218 1240   1.942   7.817   5.572  0.4420 -0.2634  0.4780
   10DOPE  H18R 1241   1.967   7.920   5.539  1.1017  0.5749  3.2532
   10DOPE  H18S 1242   2.026   7.756   5.531 -0.8159 -1.4760 -0.3686
   10DOPE  H18T 1243   1.934   7.810   5.683  0.4358 -0.2600  0.4774
   10DOPE   C33 1244   1.642   7.019   6.551  0.0851  0.0870  0.3486
   10DOPE   H3X 1245   1.745   7.021   6.511 -0.1093 -0.8992 -0.2370
   10DOPE   H3Y 1246   1.613   7.112   6.605  0.7955  1.2086 -1.1250
   10DOPE   C34 1247   1.551   7.007   6.426  0.2553 -0.2132  0.1111
   10DOPE   H4X 1248   1.569   6.911   6.374 -0.7820  1.0536 -2.7811
   10DOPE   H4Y 1249   1.443   7.000   6.451 -0.2228 -5.0229 -2.1203
   10DOPE   C35 1250   1.584   7.111   6.321 -0.6799  0.0069 -0.1060
   10DOPE   H5X 1251   1.679   7.083   6.272  0.1168  0.9713  0.8478
   10DOPE   H5Y 1252   1.597   7.216   6.353  2.5539 -0.4003  0.2085
   10DOPE   C36 1253   1.485   7.099   6.201  0.9429 -0.0184  0.1112
   10DOPE   H6X 1254   1.385   7.058   6.228  1.0068 -0.2151  0.0495
   10DOPE   H6Y 1255   1.538   7.032   6.130  0.2651 -0.2737 -0.1567
   10DOPE   C37 1256   1.472   7.234   6.131 -0.2080 -0.4501 -0.0767
   10DOPE   H7X 1257   1.427   7.300   6.208 -1.0342 -0.8363 -0.2162
   10DOPE   H7Y 1258   1.576   7.270   6.115  0.3418 -1.9089  0.0546
   10DOPE   C38 1259   1.393   7.219   5.995 -0.5126  0.0799  0.2602
   10DOPE   H8X 1260   1.321   7.135   6.003  1.5149 -1.7786 -0.2060
   10DOPE   H8Y 1261   1.462   7.176   5.920 -0.9759  1.7245 -1.2064
   10DOPE   C39 1262   1.328   7.353   5.971 -0.2188 -0.7670  1.0077
   10DOPE   H9X 1263   1.296   7.416   6.055  0.3748  0.6618  0.1840
   10DOPE  C310 1264   1.302   7.408   5.855 -0.6428  0.0869 -0.6909
   10DOPE  H10X 1265   1.258   7.508   5.853  0.5830  0.8100  2.6465
   10DOPE  C311 1266   1.336   7.344   5.721  0.0217 -0.3154 -0.1982
   10DOPE  H11X 1267   1.362   7.416   5.641  0.8835  0.5034  0.7960
   10DOPE  H11Y 1268   1.433   7.290   5.716  1.2036  1.7905 -4.3052
   10DOPE  C312 1269   1.226   7.243   5.674 -0.7264  0.0843 -0.2096
   10DOPE  H12X 1270   1.126   7.291   5.667 -0.2346  1.8039  2.6078
   10DOPE  H12Y 1271   1.219   7.176   5.762 -0.3605  0.2818 -0.0264
   10DOPE  C313 1272   1.282   7.140   5.571 -0.1614  0.0067 -0.1945
   10DOPE  H13X 1273   1.328   7.198   5.488 -0.8764  0.9054  0.0251
   10DOPE  H13Y 1274   1.358   7.075   5.621  0.8235 -0.4460 -2.1705
   10DOPE  C314 1275   1.174   7.049   5.524 -0.2607 -0.9314  0.0962
   10DOPE  H14X 1276   1.134   6.987   5.607  1.8105 -0.0256  1.8767
   10DOPE  H14Y 1277   1.213   6.973   5.453  1.0189  0.1910 -0.4442
   10DOPE  C315 1278   1.056   7.116   5.456  0.5746  0.7542 -0.3448
   10DOPE  H15X 1279   1.094   7.193   5.385  0.4837  0.1108 -1.0973
   10DOPE  H15Y 1280   1.005   7.168   5.541  1.7068  2.0933 -0.4554
   10DOPE  C316 1281   0.968   7.014   5.381 -0.4789 -0.0815  0.6309
   10DOPE  H16X 1282   0.934   6.936   5.452  3.0653 -1.0384  1.4715
   10DOPE  H16Y 1283   1.025   6.947   5.313 -2.4025  0.6267 -1.8228
   10DOPE  C317 1284   0.857   7.089   5.310 -0.1575 -0.7075 -0.5352
   10DOPE  H17X 1285   0.798   7.142   5.389  1.3537 -0.5332  0.5211
   10DOPE  H17Y 1286   0.905   7.154   5.234 -0.7707 -1.5313 -1.6612
   10DOPE  C318 1287   0.768   6.997   5.233  0.3599 -0.1044  0.3570
   10DOPE  H18X 1288   0.821   6.925   5.168  0.4883  0.8012 -0.5644
   10DOPE  H18Y 1289   0.698   6.935   5.294 -0.5643 -0.5060 -1.0588
   10DOPE  H18Z 1290   0.701   7.053   5.165  0.4740  0.8136  0.9888
   11DOPE     N 1291   4.013   2.948   7.049  0.6821 -0.1964  0.6798
   11DOPE   HN1 1292   4.049   2.999   7.132 -2.2540  1.0614  1.3011
   11DOPE   HN2 1293   3.926   2.908   7.087  0.6973 -0.1213  0.7943
   11DOPE   HN3 1294   4.089   2.880   7.026 -0.4007 -1.4181  0.6202
   11DOPE   C12 1295   3.983   3.055   6.946  0.1140 -0.2282  0.3215
   11DOPE  H12A 1296   3.921   3.011   6.865  0.2002 -3.1667  1.7268
   11DOPE  H12B 1297   4.082   3.087   6.906 -0.2949 -0.8505 -1.2665
   11DOPE   C11 1298   3.919   3.181   7.004  0.1833  0.1206  0.1667
   11DOPE  H11A 1299   3.906   3.252   6.920  1.8194  0.4965  0.2085
   11DOPE  H11B 1300   3.991   3.233   7.071 -2.2259  2.0350  1.4318
   11DOPE     P 1301   3.670   3.239   7.054  0.2842 -0.0429 -0.2970
   11DOPE   O13 1302   3.696   3.381   7.083 -0.7564 -0.1831 -0.3461
   11DOPE   O14 1303   3.555   3.178   7.129 -0.0146  0.7820  0.1735
   11DOPE   O11 1304   3.649   3.223   6.896  0.5427 -0.2166 -0.0345
   11DOPE   O12 1305   3.803   3.154   7.079  0.0621 -0.5120 -0.6484
   11DOPE    C1 1306   3.646   3.098   6.831 -0.1498 -0.2421  0.3516
   11DOPE    HA 1307   3.677   3.016   6.900 -1.8740 -0.8555  0.4370
   11DOPE    HB 1308   3.721   3.099   6.749  0.5579 -1.1015  0.9631
   11DOPE    C2 1309   3.507   3.074   6.773 -0.5304 -0.1664  0.5777
   11DOPE    HS 1310   3.521   2.996   6.695  0.9993 -0.3921  1.0592
   11DOPE   O21 1311   3.440   3.188   6.716 -0.2945 -0.0280 -0.4619
   11DOPE   C21 1312   3.491   3.219   6.599  0.0037 -0.6915 -0.2035
   11DOPE   O22 1313   3.590   3.174   6.550  0.1130  0.0849  0.7352
   11DOPE   C22 1314   3.410   3.327   6.534 -0.0793  0.5856 -1.2775
   11DOPE   H2R 1315   3.471   3.409   6.490  1.3456 -0.7885 -1.9840
   11DOPE   H2S 1316   3.337   3.368   6.607 -1.1273 -3.3394  0.1323
   11DOPE    C3 1317   3.407   3.010   6.871 -0.4361  0.5609 -0.2535
   11DOPE    HX 1318   3.384   3.090   6.944  1.9950  1.5101 -0.4387
   11DOPE    HY 1319   3.449   2.930   6.937  0.2993  0.5724 -0.7015
   11DOPE   O31 1320   3.278   2.973   6.821 -0.1489 -0.3532  0.6247
   11DOPE   C31 1321   3.276   2.887   6.726 -0.1677  0.0277  0.0656
   11DOPE   O32 1322   3.362   2.802   6.704  0.0839 -0.1208 -0.1026
   11DOPE   C32 1323   3.151   2.912   6.644  0.2637  0.5234 -0.0482
   11DOPE   H2X 1324   3.068   2.927   6.717 -1.1969 -0.1611 -1.5062
   11DOPE   H2Y 1325   3.159   3.013   6.598 -0.5443  0.2574 -0.7978
   11DOPE   C23 1326   3.328   3.269   6.418 -0.3135 -0.7646  0.2653
   11DOPE   H3R 1327   3.272   3.178   6.449  1.6296 -3.3304 -3.0724
   11DOPE   H3S 1328   3.404   3.237   6.344 -0.7503 -0.7340 -0.2017
   11DOPE   C24 1329   3.241   3.379   6.367 -0.1690  0.0448  0.3341
   11DOPE   H4R 1330   3.184   3.425   6.451 -0.1401 -0.8531  0.8685
   11DOPE   H4S 1331   3.166   3.330   6.301  2.0826  1.3933 -3.5520
   11DOPE   C25 1332   3.297   3.486   6.268  0.4129  0.1581  0.0425
   11DOPE   H5R 1333   3.395   3.517   6.310  0.1403  0.4794  0.4570
   11DOPE   H5S 1334   3.232   3.575   6.255  1.1251  0.9918  1.7930
   11DOPE   C26 1335   3.339   3.425   6.126  0.5058  0.6574  0.2146
   11DOPE   H6R 1336   3.413   3.343   6.140 -1.0433 -0.2532  4.9127
   11DOPE   H6S 1337   3.390   3.513   6.082  1.6028  0.7076  1.5041
   11DOPE   C27 1338   3.235   3.373   6.026  0.3011  0.4735 -0.2650
   11DOPE   H7R 1339   3.176   3.283   6.055 -0.3516  0.3061 -1.9925
   11DOPE   H7S 1340   3.279   3.335   5.932 -0.7614 -0.9788 -0.2189
   11DOPE   C28 1341   3.132   3.481   5.989 -0.4622  0.4462 -0.3910
   11DOPE   H8R 1342   3.092   3.501   6.090  1.2538 -1.0297  0.6435
   11DOPE   H8S 1343   3.058   3.427   5.926 -0.2600  0.0303 -0.2752
   11DOPE   C29 1344   3.178   3.608   5.918 -0.4667 -0.3209  0.2872
   11DOPE   H9R 1345   3.261   3.655   5.974 -0.0104 -4.3957  3.5572
   11DOPE  C210 1346   3.116   3.653   5.810 -0.1235  0.0860 -1.0833
   11DOPE  H10R 1347   3.139   3.755   5.774  1.5452 -0.0435 -0.4815
   11DOPE  C211 1348   3.003   3.591   5.736 -0.6914  0.1718 -0.5272
   11DOPE  H11R 1349   2.919   3.599   5.809 -1.0499  2.9266 -1.1289
   11DOPE  H11S 1350   3.008   3.485   5.702  1.1874 -0.3643  1.2205
   11DOPE  C212 1351   2.961   3.679   5.619 -0.7124  0.6085 -0.2465
   11DOPE  H12R 1352   3.045   3.704   5.550 -0.6715  3.0849  0.5936
   11DOPE  H12S 1353   2.929   3.781   5.649  1.6639  1.0981  0.8806
   11DOPE  C213 1354   2.846   3.626   5.539  0.2492  0.7092  0.9920
   11DOPE  H13R 1355   2.757   3.608   5.604 -1.2869 -0.8945 -1.3892
   11DOPE  H13S 1356   2.865   3.519   5.515 -1.8863  0.5139 -0.0727
   11DOPE  C214 1357   2.801   3.694   5.418 -0.6042 -0.2836 -0.3323
   11DOPE  H14R 1358   2.808   3.803   5.435  0.8947 -0.5169  0.8258
   11DOPE  H14S 1359   2.694   3.672   5.396 -0.4494  0.3407 -1.8480
   11DOPE  C215 1360   2.884   3.652   5.298 -0.2640  0.3372  0.1346
   11DOPE  H15R 1361   2.883   3.543   5.280  0.1366  0.0471  1.6866
   11DOPE  H15S 1362   2.987   3.678   5.330  0.1946 -0.0970 -0.9694
   11DOPE  C216 1363   2.864   3.732   5.174 -0.6757  0.0653  0.3299
   11DOPE  H16R 1364   2.857   3.840   5.200 -0.8792  0.1092  0.0964
   11DOPE  H16S 1365   2.775   3.698   5.117 -0.0008 -1.3262  0.0683
   11DOPE  C217 1366   2.989   3.740   5.079 -0.1797 -0.2509  0.1005
   11DOPE  H17R 1367   3.028   3.646   5.034  1.8868  0.9806 -0.8245
   11DOPE  H17S 1368   3.069   3.780   5.144 -0.2408  0.9815 -0.5508
   11DOPE  C218 1369   2.968   3.846   4.973 -0.0831  0.1133 -0.4114
   11DOPE  H18R 1370   2.873   3.828   4.919 -0.0288 -1.7515  0.0275
   11DOPE  H18S 1371   3.055   3.839   4.904 -0.0759 -1.7595 -0.2650
   11DOPE  H18T 1372   2.957   3.944   5.022 -1.7755  0.1404 -0.8094
   11DOPE   C33 1373   3.096   2.800   6.540  0.1171 -0.3126  0.1149
   11DOPE   H3X 1374   2.986   2.817   6.547  0.2222  0.3292  0.2212
   11DOPE   H3Y 1375   3.117   2.699   6.582  0.2264 -0.5755 -0.5649
   11DOPE   C34 1376   3.154   2.822   6.398  0.2953  0.0724  0.6603
   11DOPE   H4X 1377   3.109   2.912   6.351 -0.4205 -0.3523  0.5088
   11DOPE   H4Y 1378   3.264   2.837   6.407  0.8293 -1.2852 -2.3690
   11DOPE   C35 1379   3.154   2.695   6.305  0.3189  0.0017 -0.5573
   11DOPE   H5X 1380   3.197   2.615   6.369 -1.3780  0.1998  0.8859
   11DOPE   H5Y 1381   3.234   2.712   6.230  1.6990 -0.8516  0.6827
   11DOPE   C36 1382   3.018   2.670   6.239  0.4374 -0.2702 -0.2388
   11DOPE   H6X 1383   2.971   2.762   6.199 -0.4738 -0.9728 -0.8548
   11DOPE   H6Y 1384   2.940   2.640   6.312 -2.1941 -1.5419 -3.3156
   11DOPE   C37 1385   3.024   2.566   6.122 -0.4190 -0.3854 -0.3098
   11DOPE   H7X 1386   3.127   2.553   6.083 -1.2356 -1.1845 -2.3771
   11DOPE   H7Y 1387   2.992   2.468   6.164 -0.9631  0.1937  0.6545
   11DOPE   C38 1388   2.925   2.608   6.011  0.8006  0.7719 -0.1147
   11DOPE   H8X 1389   2.842   2.658   6.065 -0.6398 -1.0239 -0.6065
   11DOPE   H8Y 1390   2.878   2.516   5.972  1.7632 -0.0027  0.5158
   11DOPE   C39 1391   2.987   2.696   5.911 -0.3126 -0.1994 -0.4611
   11DOPE   H9X 1392   3.097   2.693   5.918 -0.2761 -1.4381 -1.3323
   11DOPE  C310 1393   2.917   2.761   5.820 -0.3006 -0.3452  0.6248
   11DOPE  H10X 1394   2.965   2.830   5.749  0.8164  0.2572  1.9193
   11DOPE  C311 1395   2.765   2.755   5.798 -0.2242 -0.4266 -0.2600
   11DOPE  H11X 1396   2.731   2.650   5.810  0.0296 -0.7172 -1.8415
   11DOPE  H11Y 1397   2.731   2.825   5.878 -0.5794 -1.3077  0.3772
   11DOPE  C312 1398   2.714   2.811   5.668 -0.4379 -0.0139  0.2688
   11DOPE  H12X 1399   2.734   2.919   5.658 -2.0818  0.1939 -1.4207
   11DOPE  H12Y 1400   2.603   2.801   5.675 -0.2556 -2.1601  1.0020
   11DOPE  C313 1401   2.774   2.741   5.539 -0.5885 -0.1968 -0.8005
   11DOPE  H13X 1402   2.752   2.809   5.455 -0.9884 -0.1014 -0.6220
   11DOPE  H13Y 1403   2.883   2.726   5.547 -0.3017  0.8963 -2.3716
   11DOPE  C314 1404   2.706   2.613   5.493  0.3087  0.0965 -0.1639
   11DOPE  H14X 1405   2.596   2.625   5.503 -0.1186 -1.1914 -2.5201
   11DOPE  H14Y 1406   2.733   2.526   5.556 -0.7251  0.9651  1.5477
   11DOPE  C315 1407   2.728   2.582   5.347  0.8363  1.2395 -0.0409
   11DOPE  H15X 1408   2.835   2.575   5.318  0.0831 -1.1849 -2.6526
   11DOPE  H15Y 1409   2.692   2.670   5.290  0.4526 -0.2624 -2.2479
   11DOPE  C316 1410   2.643   2.470   5.298 -0.6210  0.3584 -0.1343
   11DOPE  H16X 1411   2.534   2.482   5.320 -1.2264  1.3983 -3.1841
   11DOPE  H16Y 1412   2.660   2.367   5.336 -1.5273 -0.1284 -0.9791
   11DOPE  C317 1413   2.644   2.456   5.140  0.2807  0.2734 -0.0781
   11DOPE  H17X 1414   2.630   2.557   5.096 -0.0391  0.1657 -0.2257
   11DOPE  H17Y 1415   2.743   2.415   5.111  0.5185  0.6375  0.2139
   11DOPE  C318 1416   2.529   2.366   5.091  0.3524 -0.4376  0.1197
   11DOPE  H18X 1417   2.433   2.413   5.120  0.7139  0.8810 -0.7169
   11DOPE  H18Y 1418   2.530   2.347   4.981  2.4337 -1.4003  0.2449
   11DOPE  H18Z 1419   2.536   2.266   5.139 -2.1166 -0.3941  0.6749
   12DOPE     N 1420   3.561   7.314   7.208 -0.3126 -0.6029  0.8220
   12DOPE   HN1 1421   3.552   7.286   7.108 -1.0226 -1.1585  1.0320
   12DOPE   HN2 1422   3.470   7.325   7.256 -0.6200  0.6583 -0.0130
   12DOPE   HN3 1423   3.608   7.406   7.221  1.1790 -1.3818  1.2384
   12DOPE   C12 1424   3.649   7.210   7.273 -0.2547  0.0304 -0.0806
   12DOPE  H12A 1425   3.590   7.131   7.322  0.8772  0.5034  2.1897
   12DOPE  H12B 1426   3.697   7.254   7.363  2.4268 -1.0721 -0.8710
   12DOPE   C11 1427   3.752   7.138   7.186 -0.0777 -0.3469  0.2478
   12DOPE  H11A 1428   3.802   7.070   7.258 -2.6096 -2.1480  0.4216
   12DOPE  H11B 1429   3.827   7.207   7.141 -0.5866  0.1207  0.1124
   12DOPE     P 1430   3.625   6.929   7.086  0.0972 -0.6229  0.1599
   12DOPE   O13 1431   3.487   6.940   7.131  0.5138 -0.1597  0.0123
   12DOPE   O14 1432   3.710   6.840   7.169  0.4131  0.0450 -0.3569
   12DOPE   O11 1433   3.622   6.886   6.931  0.5832 -0.4486 -0.0478
   12DOPE   O12 1434   3.688   7.072   7.070  0.3592 -0.5968 -0.4133
   12DOPE    C1 1435   3.648   6.977   6.825  0.5005  0.4033  0.3794
   12DOPE    HA 1436   3.757   6.994   6.811  0.7303 -0.7911  0.5487
   12DOPE    HB 1437   3.591   7.070   6.840 -0.7246 -0.3109  0.2666
   12DOPE    C2 1438   3.602   6.928   6.689  0.2282  0.3971  0.4835
   12DOPE    HS 1439   3.499   6.889   6.700  0.2790 -0.2651 -1.1184
   12DOPE   O21 1440   3.696   6.831   6.635  0.5253 -0.7187  0.2651
   12DOPE   C21 1441   3.636   6.724   6.585  0.7575 -0.5014 -0.2847
   12DOPE   O22 1442   3.518   6.692   6.609  0.4361  0.1796  0.5975
   12DOPE   C22 1443   3.735   6.654   6.493 -0.0184  0.3809 -0.5188
   12DOPE   H2R 1444   3.671   6.581   6.438  0.4991 -0.8713  0.4836
   12DOPE   H2S 1445   3.811   6.604   6.556  0.3732  2.1144  0.4368
   12DOPE    C3 1446   3.583   7.047   6.591  0.1733  0.3279  0.8965
   12DOPE    HX 1447   3.671   7.112   6.576 -1.5257  3.1266  2.2875
   12DOPE    HY 1448   3.501   7.111   6.631 -0.0136 -0.3140  1.5746
   12DOPE   O31 1449   3.556   6.998   6.457 -0.1643 -0.3054 -0.3267
   12DOPE   C31 1450   3.433   6.966   6.434  0.1716  0.3140 -0.6006
   12DOPE   O32 1451   3.340   6.970   6.514 -0.8591  0.5510 -0.0970
   12DOPE   C32 1452   3.416   6.925   6.285 -0.7461 -0.1580  0.0014
   12DOPE   H2X 1453   3.436   7.019   6.229 -0.4831 -1.3961 -2.1247
   12DOPE   H2Y 1454   3.498   6.852   6.268 -0.8781 -0.3546  0.1949
   12DOPE   C23 1455   3.801   6.750   6.386  0.5474  0.3047  0.3157
   12DOPE   H3R 1456   3.885   6.807   6.432  0.0068 -0.4950  2.3753
   12DOPE   H3S 1457   3.729   6.830   6.358  0.5600  0.2385  0.0932
   12DOPE   C24 1458   3.837   6.663   6.257  0.4200 -0.2384 -0.6213
   12DOPE   H4R 1459   3.755   6.589   6.238 -0.7278  0.1489  2.3518
   12DOPE   H4S 1460   3.921   6.595   6.284  0.9486  0.8201  0.4744
   12DOPE   C25 1461   3.877   6.751   6.132  0.1437 -0.0806 -1.1279
   12DOPE   H5R 1462   3.784   6.812   6.124 -0.6409 -1.0960 -0.1028
   12DOPE   H5S 1463   3.884   6.680   6.047 -1.6993 -0.1793 -1.2467
   12DOPE   C26 1464   3.999   6.843   6.147  0.1060  1.0508 -0.4455
   12DOPE   H6R 1465   4.095   6.789   6.158  0.4740  1.9692  1.1859
   12DOPE   H6S 1466   3.984   6.906   6.237  2.4384  0.2023  0.6213
   12DOPE   C27 1467   4.010   6.922   6.020  0.7774  0.0677 -0.0020
   12DOPE   H7R 1468   3.915   6.981   6.021  1.1390  0.7134  2.0333
   12DOPE   H7S 1469   4.016   6.850   5.936 -0.2691  0.0849 -0.1110
   12DOPE   C28 1470   4.133   7.021   6.023 -0.3827  0.0703  0.8107
   12DOPE   H8R 1471   4.229   6.967   6.008 -0.9444 -0.2942 -2.1501
   12DOPE   H8S 1472   4.139   7.071   6.122  1.3247  0.3757  0.5820
   12DOPE   C29 1473   4.114   7.121   5.917 -0.4733 -0.2099 -0.8691
   12DOPE   H9R 1474   4.031   7.191   5.934 -0.0875 -0.1475  0.9280
   12DOPE  C210 1475   4.185   7.143   5.807  0.4897  0.7553  0.6137
   12DOPE  H10R 1476   4.158   7.225   5.739  1.7723  2.2757  1.8467
   12DOPE  C211 1477   4.300   7.060   5.752 -0.4410 -0.3680  1.3179
   12DOPE  H11R 1478   4.317   6.970   5.815 -0.5720 -0.4429  1.2460
   12DOPE  H11S 1479   4.397   7.114   5.764 -0.8034  0.9969 -1.2349
   12DOPE  C212 1480   4.275   7.038   5.602 -0.1898 -0.0779  1.1250
   12DOPE  H12R 1481   4.372   6.993   5.571 -0.8133  0.1299 -1.3421
   12DOPE  H12S 1482   4.246   7.132   5.551  0.8099 -0.8521 -0.9988
   12DOPE  C213 1483   4.156   6.943   5.569 -0.1073 -0.7062 -0.3294
   12DOPE  H13R 1484   4.066   6.989   5.616  1.1257  1.6033 -0.0425
   12DOPE  H13S 1485   4.168   6.850   5.628  1.6203  0.5682  1.4511
   12DOPE  C214 1486   4.142   6.922   5.419  0.0471 -0.1594  0.1042
   12DOPE  H14R 1487   4.246   6.909   5.383  1.2049  2.1772  2.3111
   12DOPE  H14S 1488   4.099   7.014   5.372 -2.0022 -1.0580  0.1131
   12DOPE  C215 1489   4.055   6.793   5.383 -0.4999 -0.3493  0.0692
   12DOPE  H15R 1490   3.955   6.796   5.432 -0.7186 -0.5464 -0.3625
   12DOPE  H15S 1491   4.099   6.701   5.428 -0.9131 -1.5099 -1.8092
   12DOPE  C216 1492   4.038   6.756   5.237  0.2099  0.1440 -0.0660
   12DOPE  H16R 1493   3.956   6.817   5.194  1.5514  0.4184 -2.4041
   12DOPE  H16S 1494   4.008   6.649   5.237 -0.8249  0.4231 -0.2990
   12DOPE  C217 1495   4.165   6.770   5.147 -0.0617  0.0280 -0.4629
   12DOPE  H17R 1496   4.217   6.867   5.165  1.6823 -0.8660 -0.5339
   12DOPE  H17S 1497   4.135   6.761   5.041 -0.7608  0.1691 -0.2864
   12DOPE  C218 1498   4.258   6.651   5.164  0.5517  0.1798  0.2567
   12DOPE  H18R 1499   4.226   6.566   5.101  0.3079 -0.4517  1.2055
   12DOPE  H18S 1500   4.260   6.618   5.270  1.8289 -0.0790  0.1594
   12DOPE  H18T 1501   4.366   6.672   5.151  0.4341  0.0294 -1.0546
   12DOPE   C33 1502   3.271   6.882   6.251 -1.0442 -0.7244  0.1778
   12DOPE   H3X 1503   3.196   6.963   6.265 -1.5818 -0.9494 -1.2652
   12DOPE   H3Y 1504   3.235   6.799   6.317 -2.6446  1.5836  2.4265
   12DOPE   C34 1505   3.255   6.840   6.103  0.5640  0.4989 -0.7646
   12DOPE   H4X 1506   3.347   6.859   6.044  0.8516  2.0460  0.1146
   12DOPE   H4Y 1507   3.243   6.730   6.105 -0.3708  0.5881 -0.8162
   12DOPE   C35 1508   3.129   6.890   6.034  0.3313  0.0028 -0.0245
   12DOPE   H5X 1509   3.137   6.842   5.934  0.0149 -3.1888  1.3627
   12DOPE   H5Y 1510   3.133   7.000   6.020  0.4545 -0.2469 -2.2160
   12DOPE   C36 1511   2.992   6.853   6.094 -0.3562 -0.2762 -0.6276
   12DOPE   H6X 1512   2.978   6.901   6.193  0.2802  0.5625 -0.9380
   12DOPE   H6Y 1513   2.993   6.745   6.124  0.9586 -0.0966  0.0415
   12DOPE   C37 1514   2.881   6.875   5.999 -0.3115 -0.5917 -0.5372
   12DOPE   H7X 1515   2.897   6.975   5.952 -1.6074  1.3599  2.8561
   12DOPE   H7Y 1516   2.888   6.804   5.913 -0.2494  0.4865 -1.4484
   12DOPE   C38 1517   2.745   6.868   6.063  0.5490  0.0942  0.8595
   12DOPE   H8X 1518   2.735   6.924   6.158  2.0154 -1.5803  2.0709
   12DOPE   H8Y 1519   2.713   6.763   6.081 -2.1670  0.7479  0.3474
   12DOPE   C39 1520   2.642   6.928   5.975 -0.1882  0.1639  0.2096
   12DOPE   H9X 1521   2.620   7.033   5.999  1.4680  0.7281 -0.6275
   12DOPE  C310 1522   2.574   6.856   5.881  0.1939  0.0900  0.3643
   12DOPE  H10X 1523   2.492   6.900   5.823  0.2510 -2.0634 -1.4900
   12DOPE  C311 1524   2.582   6.709   5.840 -0.7408  0.1317 -0.1803
   12DOPE  H11X 1525   2.685   6.671   5.860 -0.7561 -0.4562 -1.1355
   12DOPE  H11Y 1526   2.511   6.642   5.893  1.0966 -1.0708  0.8723
   12DOPE  C312 1527   2.567   6.701   5.681 -0.0474  0.1468 -0.2706
   12DOPE  H12X 1528   2.655   6.757   5.641  0.3054 -0.8719 -0.9631
   12DOPE  H12Y 1529   2.483   6.763   5.642  1.4919  2.9756  0.5955
   12DOPE  C313 1530   2.569   6.558   5.628 -0.3632 -0.0015  0.4962
   12DOPE  H13X 1531   2.638   6.506   5.698 -1.5659  0.4014  2.0498
   12DOPE  H13Y 1532   2.472   6.505   5.641 -2.2294  3.3778  1.6471
   12DOPE  C314 1533   2.626   6.543   5.485 -0.1045 -0.3953 -0.4843
   12DOPE  H14X 1534   2.725   6.592   5.494 -0.2372 -0.3972  1.5892
   12DOPE  H14Y 1535   2.560   6.605   5.421 -0.8853  1.1674  1.6924
   12DOPE  C315 1536   2.622   6.392   5.448  0.3783  0.3460 -0.0510
   12DOPE  H15X 1537   2.537   6.345   5.501  0.1737  0.7917  0.0258
   12DOPE  H15Y 1538   2.719   6.354   5.485 -0.6032 -2.0749  0.2253
   12DOPE  C316 1539   2.619   6.357   5.300 -0.0129  0.3455  0.4835
   12DOPE  H16X 1540   2.530   6.405   5.254 -0.5721 -0.2145  0.9693
   12DOPE  H16Y 1541   2.608   6.248   5.282 -2.3784  0.8972 -2.1016
   12DOPE  C317 1542   2.746   6.403   5.218  0.0419  0.2334  0.3041
   12DOPE  H17X 1543   2.722   6.458   5.124 -0.1409  2.0155  1.3614
   12DOPE  H17Y 1544   2.803   6.479   5.275  0.1680  1.2874 -1.1508
   12DOPE  C318 1545   2.832   6.282   5.179 -0.0784 -0.2184 -0.5392
   12DOPE  H18X 1546   2.881   6.230   5.264 -0.7439 -1.4036 -0.8422
   12DOPE  H18Y 1547   2.764   6.203   5.139 -1.3513  0.3822  0.3735
   12DOPE  H18Z 1548   2.912   6.318   5.111 -0.8959 -1.0849 -2.0270
   13DOPE     N 1549   3.277   1.777   7.363 -0.0463  0.2795  0.3892
   13DOPE   HN1 1550   3.316   1.681   7.376 -2.4579 -0.4849  2.9668
   13DOPE   HN2 1551   3.216   1.776   7.279  1.2768 -0.5860 -0.6010
   13DOPE   HN3 1552   3.350   1.850   7.355 -0.0447  0.2817  0.4220
   13DOPE   C12 1553   3.184   1.778   7.479  0.2016 -0.1564 -0.1151
   13DOPE  H12A 1554   3.212   1.866   7.540  1.8156 -1.0290  0.4744
   13DOPE  H12B 1555   3.203   1.692   7.548  1.0553  0.8225  0.8916
   13DOPE   C11 1556   3.039   1.788   7.431  0.4318 -0.4940 -0.3969
   13DOPE  H11A 1557   3.013   1.881   7.376 -2.1490  0.0636  1.5324
   13DOPE  H11B 1558   2.979   1.797   7.525 -0.4207  1.0524 -1.0592
   13DOPE     P 1559   2.867   1.662   7.281  0.0100 -0.0159 -0.2511
   13DOPE   O13 1560   2.759   1.710   7.374  0.0656 -0.4343 -0.3109
   13DOPE   O14 1561   2.848   1.535   7.217 -0.2645 -0.3237  0.0773
   13DOPE   O11 1562   2.880   1.778   7.169 -0.1924  0.1894 -0.0459
   13DOPE   O12 1563   3.006   1.669   7.360 -0.3880 -0.1334  0.2425
   13DOPE    C1 1564   2.770   1.811   7.083  0.1009 -0.3741 -0.7547
   13DOPE    HA 1565   2.692   1.868   7.139  0.9885  0.2289 -0.0919
   13DOPE    HB 1566   2.727   1.713   7.056  1.5644 -1.8076  1.7448
   13DOPE    C2 1567   2.795   1.902   6.956  0.0065 -0.5692 -0.4855
   13DOPE    HS 1568   2.694   1.927   6.917  1.4161  0.8522 -3.5629
   13DOPE   O21 1569   2.875   1.845   6.854 -0.9220 -0.4219  0.5412
   13DOPE   C21 1570   2.827   1.750   6.779 -0.5665  0.0907  0.8525
   13DOPE   O22 1571   2.709   1.728   6.759  0.2597 -0.1529  0.6557
   13DOPE   C22 1572   2.942   1.691   6.693  0.0493 -0.6508 -0.2131
   13DOPE   H2R 1573   2.957   1.595   6.747  2.3561 -0.3560 -0.2322
   13DOPE   H2S 1574   3.040   1.742   6.703  0.1656 -0.8957 -0.0847
   13DOPE    C3 1575   2.861   2.042   6.995  0.8955  0.4111  0.2613
   13DOPE    HX 1576   2.951   2.021   7.057  0.2142 -1.3672  0.7246
   13DOPE    HY 1577   2.782   2.079   7.064 -0.4014 -2.9935  0.8021
   13DOPE   O31 1578   2.884   2.127   6.881  0.0003  0.1708 -0.0259
   13DOPE   C31 1579   3.008   2.131   6.827  0.3251 -0.6654 -0.2185
   13DOPE   O32 1580   3.101   2.068   6.871 -0.5855  0.3599  0.2958
   13DOPE   C32 1581   3.016   2.209   6.696  0.5822 -0.1717  0.1835
   13DOPE   H2X 1582   2.916   2.251   6.671  0.7260 -0.5096 -1.0314
   13DOPE   H2Y 1583   3.087   2.292   6.719 -0.0050  0.1913  0.7119
   13DOPE   C23 1584   2.907   1.666   6.551 -0.2662 -0.3391 -0.0832
   13DOPE   H3R 1585   2.886   1.765   6.505 -0.7418  0.1650  1.1747
   13DOPE   H3S 1586   2.816   1.603   6.544 -1.2156  1.0924 -1.5099
   13DOPE   C24 1587   3.019   1.611   6.465  0.2291  0.4120 -0.2803
   13DOPE   H4R 1588   3.115   1.663   6.481 -0.1153  0.5222  1.5818
   13DOPE   H4S 1589   3.002   1.616   6.355 -0.0672  1.7890 -0.1795
   13DOPE   C25 1590   3.044   1.466   6.492 -0.1374  0.9066 -0.3696
   13DOPE   H5R 1591   3.087   1.446   6.592  2.3381 -1.1349 -1.7324
   13DOPE   H5S 1592   3.112   1.433   6.411 -1.1062  0.7959 -1.1627
   13DOPE   C26 1593   2.921   1.368   6.466  0.2358  0.0790  0.1156
   13DOPE   H6R 1594   2.848   1.372   6.549  1.5479 -2.9186  1.5855
   13DOPE   H6S 1595   2.956   1.262   6.475  0.1780 -0.0855 -1.3611
   13DOPE   C27 1596   2.859   1.380   6.325 -0.0437 -0.3742 -0.8305
   13DOPE   H7R 1597   2.938   1.372   6.248  0.1710  3.0322 -1.1205
   13DOPE   H7S 1598   2.804   1.476   6.313  3.1197  1.7283  0.1874
   13DOPE   C28 1599   2.756   1.272   6.291  0.1227  0.0669 -0.6093
   13DOPE   H8R 1600   2.693   1.312   6.209 -2.1529 -1.6389  0.1908
   13DOPE   H8S 1601   2.696   1.288   6.383  1.1538  2.0812 -0.2162
   13DOPE   C29 1602   2.820   1.141   6.276  1.1248 -0.1001 -0.5348
   13DOPE   H9R 1603   2.868   1.095   6.364  3.3795 -0.5619 -1.9183
   13DOPE  C210 1604   2.813   1.072   6.163  0.3629 -0.1692 -0.0733
   13DOPE  H10R 1605   2.875   0.981   6.161  1.1744  0.3866 -1.7012
   13DOPE  C211 1606   2.753   1.118   6.033  0.9290 -0.0424  0.1575
   13DOPE  H11R 1607   2.833   1.173   5.980  1.3934  0.1464  1.0262
   13DOPE  H11S 1608   2.659   1.178   6.042 -0.5340 -2.2357  0.3180
   13DOPE  C212 1609   2.693   1.010   5.935  0.3700  0.1483 -0.0586
   13DOPE  H12R 1610   2.665   0.920   5.993 -0.9109  0.1274 -0.6719
   13DOPE  H12S 1611   2.774   0.977   5.867  0.6760  0.6278  0.0675
   13DOPE  C213 1612   2.567   1.034   5.860 -0.9620  0.2334  0.1219
   13DOPE  H13R 1613   2.487   1.049   5.935 -1.6374 -0.9502 -0.3317
   13DOPE  H13S 1614   2.539   0.942   5.803 -0.9650  1.3372 -1.7213
   13DOPE  C214 1615   2.585   1.142   5.759  0.0733  0.1859  0.0786
   13DOPE  H14R 1616   2.660   1.118   5.681  0.1619 -2.3796  0.8513
   13DOPE  H14S 1617   2.622   1.232   5.813 -1.1511  1.4250 -1.0726
   13DOPE  C215 1618   2.449   1.185   5.688 -0.1611  0.1100 -0.3582
   13DOPE  H15R 1619   2.464   1.244   5.595 -3.2634  1.6178 -0.0157
   13DOPE  H15S 1620   2.404   1.239   5.774  0.1776 -1.2872  0.7285
   13DOPE  C216 1621   2.358   1.069   5.646 -0.2495  0.9800 -0.4213
   13DOPE  H16R 1622   2.313   1.017   5.734  0.6407 -0.6475 -0.8837
   13DOPE  H16S 1623   2.414   1.001   5.579  2.6334  2.4356  0.3404
   13DOPE  C217 1624   2.241   1.113   5.565  0.3489 -0.0297 -0.8504
   13DOPE  H17R 1625   2.192   1.021   5.526  0.0195  0.7751 -2.4487
   13DOPE  H17S 1626   2.271   1.175   5.477  0.4655  1.6108  0.2966
   13DOPE  C218 1627   2.137   1.201   5.641  0.3500  0.2750 -0.4266
   13DOPE  H18R 1628   2.053   1.223   5.572 -0.7100  0.9420  1.0320
   13DOPE  H18S 1629   2.186   1.297   5.667  1.9857 -0.3942 -0.8797
   13DOPE  H18T 1630   2.107   1.146   5.733  0.0208  1.2412  0.0474
   13DOPE   C33 1631   3.069   2.118   6.591 -0.5342 -0.3331  0.0733
   13DOPE   H3X 1632   3.006   2.027   6.589  2.5513 -2.6620  0.6426
   13DOPE   H3Y 1633   3.167   2.074   6.620 -2.0747 -2.6100  2.2417
   13DOPE   C34 1634   3.062   2.190   6.454 -0.2140  0.0737 -0.2653
   13DOPE   H4X 1635   2.960   2.227   6.431 -0.8232 -1.3439  0.0456
   13DOPE   H4Y 1636   3.117   2.285   6.470 -0.7484  0.4478 -0.6427
   13DOPE   C35 1637   3.115   2.116   6.332  0.3359 -0.1401  0.3722
   13DOPE   H5X 1638   3.063   2.019   6.317  0.9260 -0.3192 -0.5494
   13DOPE   H5Y 1639   3.222   2.090   6.340  0.1072 -0.9573  0.8913
   13DOPE   C36 1640   3.088   2.191   6.200  0.2763  0.2225  0.6649
   13DOPE   H6X 1641   3.153   2.281   6.204  0.5371  0.0667  0.1503
   13DOPE   H6Y 1642   2.985   2.228   6.186 -0.3325 -1.8994 -1.2178
   13DOPE   C37 1643   3.126   2.111   6.074 -0.2607  0.1300 -0.1696
   13DOPE   H7X 1644   3.231   2.081   6.092  0.0175  0.1822 -1.6089
   13DOPE   H7Y 1645   3.053   2.028   6.069 -0.6717  0.5339 -1.0458
   13DOPE   C38 1646   3.148   2.190   5.950  1.1224  0.2412 -0.5267
   13DOPE   H8X 1647   3.211   2.134   5.877  2.0121 -0.3245  0.6457
   13DOPE   H8Y 1648   3.197   2.286   5.978  1.4280 -0.0274 -0.1479
   13DOPE   C39 1649   3.018   2.226   5.885 -0.3508  0.8169 -0.1008
   13DOPE   H9X 1650   2.930   2.219   5.952 -0.6936 -0.6622 -0.6764
   13DOPE  C310 1651   3.004   2.262   5.756  0.4601  0.2370 -0.3646
   13DOPE  H10X 1652   2.903   2.297   5.730  0.6579 -0.2568 -1.8731
   13DOPE  C311 1653   3.111   2.288   5.654 -0.1826 -0.1894 -0.7376
   13DOPE  H11X 1654   3.083   2.384   5.605 -0.3657 -0.9898 -2.2735
   13DOPE  H11Y 1655   3.212   2.300   5.699 -0.7552  2.2498  0.0942
   13DOPE  C312 1656   3.123   2.187   5.537  0.3493  0.4976  0.5428
   13DOPE  H12X 1657   3.023   2.200   5.490  0.0702  0.0522  0.9934
   13DOPE  H12Y 1658   3.120   2.080   5.566  0.8780 -0.3792 -2.3197
   13DOPE  C313 1659   3.240   2.203   5.441  0.5652 -0.1741 -0.0355
   13DOPE  H13X 1660   3.233   2.125   5.362  1.0125  2.3322 -2.7649
   13DOPE  H13Y 1661   3.245   2.301   5.387 -2.4979  0.6164  0.9054
   13DOPE  C314 1662   3.369   2.174   5.508  0.2788 -0.8807  0.5051
   13DOPE  H14X 1663   3.371   2.070   5.548 -0.0202 -0.8289  0.6530
   13DOPE  H14Y 1664   3.382   2.231   5.602  2.8583  0.9394 -0.8450
   13DOPE  C315 1665   3.504   2.200   5.436  0.1545 -0.1802  0.2055
   13DOPE  H15X 1666   3.491   2.304   5.402  0.0256  0.2392  1.4795
   13DOPE  H15Y 1667   3.535   2.133   5.353  1.5519 -0.1366  0.6618
   13DOPE  C316 1668   3.631   2.203   5.534  0.2422  0.2603 -0.6962
   13DOPE  H16X 1669   3.649   2.098   5.565 -0.2571  0.8898  2.0077
   13DOPE  H16Y 1670   3.593   2.263   5.619 -0.6217  1.3397 -1.8083
   13DOPE  C317 1671   3.771   2.250   5.492  0.0264  0.0320 -0.3678
   13DOPE  H17X 1672   3.836   2.222   5.578 -2.4843 -1.5819  1.1349
   13DOPE  H17Y 1673   3.808   2.189   5.407  2.7536  1.1662 -0.1022
   13DOPE  C318 1674   3.781   2.398   5.445 -0.6624 -0.2163 -0.2858
   13DOPE  H18X 1675   3.888   2.423   5.463 -1.1149 -0.5158  3.6441
   13DOPE  H18Y 1676   3.746   2.424   5.342  1.2738 -1.1223 -1.2405
   13DOPE  H18Z 1677   3.722   2.465   5.510 -1.3571 -1.2313  0.1625
   14DOPE     N 1678   0.782   4.549   7.017  0.0709  0.5146 -0.4312
   14DOPE   HN1 1679   0.879   4.513   7.022 -1.4257 -4.0544  1.2534
   14DOPE   HN2 1680   0.745   4.545   7.114  1.3566 -2.2233  0.0267
   14DOPE   HN3 1681   0.731   4.476   6.962  0.2620  0.4108 -0.4699
   14DOPE   C12 1682   0.753   4.687   6.965 -0.0648  0.2179 -0.2545
   14DOPE  H12A 1683   0.764   4.681   6.854 -1.4632 -0.4568 -0.3774
   14DOPE  H12B 1684   0.829   4.758   7.003 -0.3922  1.6411 -2.0866
   14DOPE   C11 1685   0.607   4.733   6.995 -0.0883  0.1657 -0.3505
   14DOPE  H11A 1686   0.594   4.832   6.947  1.2065  0.5816  0.1087
   14DOPE  H11B 1687   0.584   4.743   7.103  1.3113  0.7984 -0.0805
   14DOPE     P 1688   0.391   4.686   6.848 -0.2783  0.3059 -0.2686
   14DOPE   O13 1689   0.354   4.824   6.894  0.6092  0.2561 -0.0161
   14DOPE   O14 1690   0.285   4.584   6.850 -0.3487 -0.2606 -0.5122
   14DOPE   O11 1691   0.450   4.690   6.708  0.1058  0.0122  0.2440
   14DOPE   O12 1692   0.516   4.634   6.934 -0.4477 -0.0964 -0.6366
   14DOPE    C1 1693   0.550   4.777   6.658  0.5935 -0.6919  0.1916
   14DOPE    HA 1694   0.641   4.717   6.639  0.8569  0.2244 -1.6477
   14DOPE    HB 1695   0.580   4.856   6.730 -2.2503 -0.4234  1.2254
   14DOPE    C2 1696   0.513   4.838   6.516 -0.0814 -0.1735 -0.0826
   14DOPE    HS 1697   0.460   4.935   6.527  0.2382 -0.2776  3.2107
   14DOPE   O21 1698   0.444   4.738   6.436  0.0428 -0.0681  0.1837
   14DOPE   C21 1699   0.315   4.733   6.448  0.0527  0.4131  0.0464
   14DOPE   O22 1700   0.242   4.808   6.506  0.6376 -0.6118 -0.1408
   14DOPE   C22 1701   0.266   4.603   6.373 -0.4647  0.1175  0.6742
   14DOPE   H2R 1702   0.157   4.610   6.352 -0.4893 -1.6125  0.0123
   14DOPE   H2S 1703   0.290   4.505   6.418  1.7292  0.8318  1.1633
   14DOPE    C3 1704   0.651   4.865   6.445 -0.0120 -0.0516  0.4579
   14DOPE    HX 1705   0.714   4.775   6.457 -0.2969 -0.4881 -1.1664
   14DOPE    HY 1706   0.701   4.949   6.498  0.0859  0.3787 -0.3074
   14DOPE   O31 1707   0.650   4.886   6.301  0.0479  0.0709  0.4338
   14DOPE   C31 1708   0.606   5.004   6.257  0.2240  0.0218 -0.4478
   14DOPE   O32 1709   0.563   5.095   6.327 -0.0667  0.1148  0.6147
   14DOPE   C32 1710   0.601   5.001   6.109  0.1202  0.0237  0.2193
   14DOPE   H2X 1711   0.701   4.968   6.074  0.6757  1.5456  0.3221
   14DOPE   H2Y 1712   0.524   4.924   6.084  2.4040 -1.9762 -1.1098
   14DOPE   C23 1713   0.317   4.604   6.221 -0.2970  0.5536 -0.2737
   14DOPE   H3R 1714   0.299   4.502   6.183 -0.5213  0.9560 -1.2600
   14DOPE   H3S 1715   0.426   4.626   6.212  0.1918 -0.9164  1.3709
   14DOPE   C24 1716   0.228   4.706   6.142 -0.6168  0.3224 -0.5612
   14DOPE   H4R 1717   0.231   4.805   6.192  0.9857 -0.8643  1.8772
   14DOPE   H4S 1718   0.118   4.693   6.148 -0.6162  1.0331  2.7947
   14DOPE   C25 1719   0.296   4.734   6.005  0.5624 -0.3229 -0.1105
   14DOPE   H5R 1720   0.405   4.734   6.025  0.4271  1.7325  0.8620
   14DOPE   H5S 1721   0.269   4.836   5.970  2.5464  0.5176  0.6871
   14DOPE   C26 1722   0.253   4.630   5.900 -0.1226  0.2101  0.7717
   14DOPE   H6R 1723   0.143   4.621   5.889 -0.3022  2.6820  0.0168
   14DOPE   H6S 1724   0.301   4.532   5.920 -1.2383 -0.6503 -0.5411
   14DOPE   C27 1725   0.298   4.668   5.754  0.5958 -0.1708  0.2371
   14DOPE   H7R 1726   0.404   4.640   5.739  0.9682  1.8772 -1.4333
   14DOPE   H7S 1727   0.283   4.777   5.746  1.5079 -0.1650 -2.6571
   14DOPE   C28 1728   0.206   4.601   5.650  0.3120 -0.3868 -0.2952
   14DOPE   H8R 1729   0.100   4.618   5.677  0.2414 -3.0044  1.4371
   14DOPE   H8S 1730   0.215   4.491   5.662  2.1055 -0.4540 -1.7643
   14DOPE   C29 1731   0.245   4.648   5.509 -0.6941 -0.3982 -0.0695
   14DOPE   H9R 1732   0.195   4.743   5.483 -0.8238 -0.3131  0.4837
   14DOPE  C210 1733   0.328   4.587   5.419  0.1852 -0.0021 -0.0663
   14DOPE  H10R 1734   0.354   4.644   5.329 -1.1339 -0.3613 -0.7027
   14DOPE  C211 1735   0.399   4.456   5.429 -0.2166 -0.1890 -0.5272
   14DOPE  H11R 1736   0.374   4.403   5.523  0.4016 -3.0488 -1.8704
   14DOPE  H11S 1737   0.509   4.471   5.418 -0.2000 -0.2590 -0.4475
   14DOPE  C212 1738   0.358   4.346   5.322  0.5975  0.7965  0.2842
   14DOPE  H12R 1739   0.248   4.328   5.323  0.6262  0.6392  0.5807
   14DOPE  H12S 1740   0.404   4.248   5.344  0.8516  0.7335 -0.5010
   14DOPE  C213 1741   0.410   4.377   5.182 -0.0849 -0.2010  0.1580
   14DOPE  H13R 1742   0.509   4.427   5.188 -0.3993  0.3696  0.8143
   14DOPE  H13S 1743   0.352   4.450   5.122  1.6850 -0.6414 -2.2352
   14DOPE  C214 1744   0.433   4.246   5.095 -0.3475 -0.9752  0.1376
   14DOPE  H14R 1745   0.403   4.259   4.989 -3.3770  0.3181  1.0370
   14DOPE  H14S 1746   0.361   4.165   5.123 -1.5524  0.1706  0.4521
   14DOPE  C215 1747   0.573   4.175   5.100 -0.3958 -0.5313  0.7810
   14DOPE  H15R 1748   0.582   4.093   5.026 -0.4330 -1.1749  1.4679
   14DOPE  H15S 1749   0.570   4.110   5.191 -0.6774 -1.6537 -0.0136
   14DOPE  C216 1750   0.697   4.276   5.094  0.8640  0.4761 -0.5836
   14DOPE  H16R 1751   0.787   4.210   5.090  1.4625  1.2746 -0.5292
   14DOPE  H16S 1752   0.702   4.340   5.184  2.6946 -0.2858 -0.0852
   14DOPE  C217 1753   0.714   4.359   4.973 -0.3290 -0.4446 -0.1025
   14DOPE  H17R 1754   0.639   4.437   4.997  1.5799  1.9391 -1.4418
   14DOPE  H17S 1755   0.686   4.300   4.883  2.3994  1.3534 -2.3363
   14DOPE  C218 1756   0.856   4.411   4.970 -0.1701  0.0316 -0.0133
   14DOPE  H18R 1757   0.930   4.329   4.982  0.3697  0.8827  3.2253
   14DOPE  H18S 1758   0.888   4.477   5.053  0.1621  0.5414 -0.5393
   14DOPE  H18T 1759   0.875   4.478   4.883 -1.5682 -1.9877 -2.0032
   14DOPE   C33 1760   0.568   5.143   6.043 -0.4020  0.4462  0.3868
   14DOPE   H3X 1761   0.654   5.213   6.056 -1.1104  1.7920 -1.6353
   14DOPE   H3Y 1762   0.485   5.184   6.104  0.1621  1.8032  0.2935
   14DOPE   C34 1763   0.534   5.129   5.896  0.0890  0.7313 -0.1620
   14DOPE   H4X 1764   0.469   5.040   5.884  0.9226  0.3852 -2.5703
   14DOPE   H4Y 1765   0.477   5.221   5.869  0.1396  1.6652  2.5382
   14DOPE   C35 1766   0.648   5.115   5.791  0.2775 -0.3239 -0.0218
   14DOPE   H5X 1767   0.693   5.014   5.803 -0.8542 -0.7893  0.4129
   14DOPE   H5Y 1768   0.725   5.194   5.809 -0.3356 -0.0013  1.3369
   14DOPE   C36 1769   0.601   5.143   5.645  0.3478 -0.5949  0.5364
   14DOPE   H6X 1770   0.683   5.149   5.570  0.1939 -0.3930  0.3827
   14DOPE   H6Y 1771   0.557   5.245   5.653 -0.6802 -1.0454  0.6742
   14DOPE   C37 1772   0.511   5.032   5.593 -0.2043 -0.1905 -0.3480
   14DOPE   H7X 1773   0.560   4.935   5.566 -0.9581 -0.2020 -1.7652
   14DOPE   H7Y 1774   0.443   5.005   5.677  0.3027 -2.0957 -0.4884
   14DOPE   C38 1775   0.417   5.069   5.482  0.5607 -0.5709 -0.2355
   14DOPE   H8X 1776   0.481   5.126   5.411 -1.9859 -0.3041 -2.4817
   14DOPE   H8Y 1777   0.340   5.143   5.512 -0.3460 -0.2810 -2.9867
   14DOPE   C39 1778   0.357   4.959   5.402  0.5306 -0.6787 -0.5887
   14DOPE   H9X 1779   0.429   4.876   5.390  1.2719  0.2100 -2.9801
   14DOPE  C310 1780   0.235   4.969   5.343 -0.0695 -0.3328 -0.0111
   14DOPE  H10X 1781   0.194   4.886   5.283 -1.8776  0.3873  0.1707
   14DOPE  C311 1782   0.152   5.095   5.331  0.8383  0.2089 -0.0927
   14DOPE  H11X 1783   0.201   5.194   5.338 -0.2947  0.7899 -0.1793
   14DOPE  H11Y 1784   0.098   5.110   5.235 -2.0505  0.5533  1.4879
   14DOPE  C312 1785   0.031   5.088   5.431  0.1201 -0.0386 -0.0582
   14DOPE  H12X 1786  -0.059   5.054   5.377 -0.7772  1.2563  0.5792
   14DOPE  H12Y 1787   0.006   5.193   5.457 -0.8568 -0.2914  0.0566
   14DOPE  C313 1788   0.040   5.003   5.556 -0.7863  0.0072  0.5917
   14DOPE  H13X 1789   0.041   4.895   5.529  0.7505 -0.2362  1.4861
   14DOPE  H13Y 1790   0.139   5.027   5.601 -0.9168  2.6214 -0.3440
   14DOPE  C314 1791  -0.064   5.030   5.657 -0.4472 -0.0352 -0.1743
   14DOPE  H14X 1792  -0.159   4.985   5.619  0.8658 -3.5309  0.2722
   14DOPE  H14Y 1793  -0.077   5.140   5.663  1.6269  0.2821 -0.7407
   14DOPE  C315 1794  -0.037   4.968   5.797  0.5520  0.4842  0.2512
   14DOPE  H15X 1795  -0.022   4.858   5.787  0.4864  0.4686  0.3274
   14DOPE  H15Y 1796  -0.131   4.989   5.853 -0.5075 -0.0047 -1.2934
   14DOPE  C316 1797   0.083   5.034   5.862 -0.0579 -0.3149 -0.0743
   14DOPE  H16X 1798   0.086   5.130   5.808  1.2764  0.0348  0.5764
   14DOPE  H16Y 1799   0.177   4.982   5.835 -0.7046 -1.3613 -0.3654
   14DOPE  C317 1800   0.080   5.036   6.011 -0.0582 -0.5111 -0.2520
   14DOPE  H17X 1801  -0.017   5.081   6.040  1.0549  3.0479 -1.4693
   14DOPE  H17Y 1802   0.084   4.931   6.046  0.2601 -0.2559  0.4824
   14DOPE  C318 1803   0.192   5.114   6.087 -0.4754 -0.5167  0.5960
   14DOPE  H18X 1804   0.195   5.223   6.066 -0.7480 -0.2166  1.9874
   14DOPE  H18Y 1805   0.168   5.109   6.196 -0.7131 -0.6142  0.5409
   14DOPE  H18Z 1806   0.294   5.070   6.089  0.2334  1.0409  2.3199
   15DOPE     N 1807   3.385   3.046   7.280 -0.2673 -0.2417 -0.6971
   15DOPE   HN1 1808   3.421   3.130   7.231  1.9565 -0.4814  0.3921
   15DOPE   HN2 1809   3.385   3.076   7.379  0.2051 -1.3306 -0.3523
   15DOPE   HN3 1810   3.449   2.963   7.282 -2.9966 -2.4989  1.3625
   15DOPE   C12 1811   3.261   2.988   7.216  0.4854  0.2223 -0.2778
   15DOPE  H12A 1812   3.254   2.888   7.264  4.5610 -0.8997 -1.5590
   15DOPE  H12B 1813   3.279   2.974   7.107  1.6125 -1.1378  0.0594
   15DOPE   C11 1814   3.145   3.074   7.242 -0.9484  0.0825 -0.5324
   15DOPE  H11A 1815   3.118   3.060   7.349 -1.6950  1.9834 -0.4343
   15DOPE  H11B 1816   3.052   3.031   7.200 -3.0772  3.1695  0.6646
   15DOPE     P 1817   3.053   3.326   7.223  0.1389 -0.1996  0.0414
   15DOPE   O13 1818   3.118   3.425   7.311 -0.3393 -0.0233  0.2359
   15DOPE   O14 1819   2.922   3.269   7.262 -0.0026  0.3820  0.6204
   15DOPE   O11 1820   3.046   3.384   7.075 -0.3338  0.5522 -0.2901
   15DOPE   O12 1821   3.160   3.214   7.201 -0.0269  0.4080 -0.0674
   15DOPE    C1 1822   3.154   3.412   6.996 -0.2988 -0.6032  0.0880
   15DOPE    HA 1823   3.240   3.345   7.018  0.1134  0.2917  1.3279
   15DOPE    HB 1824   3.192   3.514   7.016  0.1883 -0.8990  0.7246
   15DOPE    C2 1825   3.120   3.397   6.847 -0.7017 -0.0039 -0.7869
   15DOPE    HS 1826   3.215   3.402   6.789  0.2246 -0.1048  0.6651
   15DOPE   O21 1827   3.024   3.493   6.801  0.7032  0.3135  0.0702
   15DOPE   C21 1828   3.074   3.621   6.800  0.2661 -0.3590  0.0396
   15DOPE   O22 1829   3.193   3.650   6.809 -0.2669  0.2305  0.2149
   15DOPE   C22 1830   2.957   3.715   6.778 -0.5635  0.3301  0.3637
   15DOPE   H2R 1831   2.987   3.816   6.741 -3.4394  0.0671 -3.4470
   15DOPE   H2S 1832   2.911   3.731   6.878  2.3883 -2.6545  2.3959
   15DOPE    C3 1833   3.063   3.260   6.823 -0.9732  0.4492  0.5156
   15DOPE    HX 1834   2.983   3.237   6.897  0.2705  0.0393  1.7711
   15DOPE    HY 1835   3.145   3.190   6.850 -1.1352  0.0521 -0.0054
   15DOPE   O31 1836   3.027   3.245   6.685 -0.0882  0.1839 -0.8375
   15DOPE   C31 1837   2.899   3.262   6.652 -0.4432 -0.2140 -0.3296
   15DOPE   O32 1838   2.806   3.269   6.729 -0.1717  0.4181 -0.2201
   15DOPE   C32 1839   2.884   3.274   6.497 -0.1245 -0.3461  0.0168
   15DOPE   H2X 1840   2.825   3.360   6.461  1.0585 -0.0417 -1.2312
   15DOPE   H2Y 1841   2.988   3.290   6.460 -0.4200 -0.8187 -1.0456
   15DOPE   C23 1842   2.860   3.659   6.672  0.2796  0.9097  0.2721
   15DOPE   H3R 1843   2.771   3.726   6.679 -0.2894 -0.0016  2.9239
   15DOPE   H3S 1844   2.824   3.562   6.711 -1.6625  2.2010  1.8787
   15DOPE   C24 1845   2.916   3.649   6.524 -0.1046  0.1786 -0.3580
   15DOPE   H4R 1846   2.972   3.554   6.509  1.0343  0.9203 -0.9242
   15DOPE   H4S 1847   2.978   3.740   6.513 -0.3950  0.6297  1.4568
   15DOPE   C25 1848   2.811   3.648   6.418  0.4563 -0.9779 -0.1145
   15DOPE   H5R 1849   2.731   3.724   6.430  0.7046 -0.8508  0.8252
   15DOPE   H5S 1850   2.755   3.555   6.439  0.7617 -1.0247  0.5383
   15DOPE   C26 1851   2.871   3.672   6.279 -0.1582  0.5171 -0.2262
   15DOPE   H6R 1852   2.967   3.616   6.271 -1.3049 -1.3725 -1.5735
   15DOPE   H6S 1853   2.889   3.778   6.251 -1.1342  1.1163  1.3060
   15DOPE   C27 1854   2.783   3.606   6.169  0.0625  0.4961  0.4045
   15DOPE   H7R 1855   2.765   3.497   6.179 -2.1629  0.6047 -1.4173
   15DOPE   H7S 1856   2.834   3.612   6.070 -2.9432  1.1361 -1.2352
   15DOPE   C28 1857   2.633   3.659   6.157  0.0328  0.8825 -0.2658
   15DOPE   H8R 1858   2.594   3.658   6.261 -0.2347 -0.9652 -0.3518
   15DOPE   H8S 1859   2.576   3.587   6.096 -0.4941  0.3124  0.8762
   15DOPE   C29 1860   2.630   3.804   6.104 -0.2400  0.2302  0.1080
   15DOPE   H9R 1861   2.686   3.869   6.173 -0.6962 -0.0194  0.7265
   15DOPE  C210 1862   2.564   3.851   5.995 -0.0441 -0.2371  0.2473
   15DOPE  H10R 1863   2.568   3.958   5.973  0.1889  0.2883  2.5772
   15DOPE  C211 1864   2.480   3.772   5.907  0.3879  0.1154 -0.2512
   15DOPE  H11R 1865   2.374   3.802   5.897  0.4080  0.7861  1.3303
   15DOPE  H11S 1866   2.463   3.667   5.939  1.5116 -0.1994 -0.6382
   15DOPE  C212 1867   2.531   3.786   5.757  0.1149  0.6474  0.1630
   15DOPE  H12R 1868   2.488   3.700   5.701 -0.6108  1.0520  0.0919
   15DOPE  H12S 1869   2.641   3.777   5.743  0.1864  1.1790  0.3779
   15DOPE  C213 1870   2.470   3.905   5.674  0.2099  0.5318  0.2198
   15DOPE  H13R 1871   2.477   4.000   5.730 -2.5274  0.9085  0.0465
   15DOPE  H13S 1872   2.362   3.891   5.649  0.4185 -1.1704  0.1153
   15DOPE  C214 1873   2.544   3.915   5.538 -0.0069  0.5629  0.3671
   15DOPE  H14R 1874   2.546   3.819   5.483 -0.8618  1.3918 -1.1791
   15DOPE  H14S 1875   2.647   3.945   5.567  0.2877  2.1436 -2.0495
   15DOPE  C215 1876   2.483   4.015   5.435  0.0718 -0.0814 -0.0560
   15DOPE  H15R 1877   2.452   4.111   5.481 -0.0230  0.8906 -2.0277
   15DOPE  H15S 1878   2.385   3.979   5.398 -1.6529  2.7632  1.4661
   15DOPE  C216 1879   2.585   4.037   5.327  0.2319  0.3844  0.1983
   15DOPE  H16R 1880   2.618   3.936   5.293 -1.6851 -0.7321  1.4287
   15DOPE  H16S 1881   2.662   4.105   5.367  1.7566 -1.0364 -0.1777
   15DOPE  C217 1882   2.546   4.114   5.198  0.8561  0.2754  0.3688
   15DOPE  H17R 1883   2.440   4.085   5.182  1.2255 -1.2360  0.5815
   15DOPE  H17S 1884   2.612   4.089   5.113  1.5394  0.2715  0.8950
   15DOPE  C218 1885   2.558   4.265   5.219 -0.3288 -0.1258  0.4749
   15DOPE  H18R 1886   2.475   4.311   5.277 -1.8473  0.7599 -2.2154
   15DOPE  H18S 1887   2.549   4.312   5.119  1.1095 -1.5854 -0.3937
   15DOPE  H18T 1888   2.654   4.297   5.264  0.1829 -1.5681  0.4511
   15DOPE   C33 1889   2.828   3.141   6.439  0.7888 -0.1741  0.2165
   15DOPE   H3X 1890   2.736   3.118   6.496 -0.4376  1.8439 -0.8337
   15DOPE   H3Y 1891   2.907   3.065   6.453  2.8129  1.4119 -1.7884
   15DOPE   C34 1892   2.791   3.147   6.288  0.4582  0.5670 -0.1306
   15DOPE   H4X 1893   2.711   3.072   6.269  0.3661  0.2681  1.3096
   15DOPE   H4Y 1894   2.746   3.247   6.272 -0.9359 -0.0370 -0.0921
   15DOPE   C35 1895   2.918   3.127   6.197  0.4467  0.3628 -0.6709
   15DOPE   H5X 1896   2.968   3.031   6.222 -0.8145  0.1570  1.3488
   15DOPE   H5Y 1897   2.987   3.213   6.191  0.9214 -0.0477 -1.3066
   15DOPE   C36 1898   2.863   3.122   6.051  0.7254  0.5237 -0.0114
   15DOPE   H6X 1899   2.787   3.047   6.021  0.9679  0.1639  0.2671
   15DOPE   H6Y 1900   2.952   3.105   5.987  0.3527 -0.2228 -0.3412
   15DOPE   C37 1901   2.795   3.252   6.003 -0.8490  0.4281 -0.4834
   15DOPE   H7X 1902   2.692   3.273   6.039 -0.6996  4.0465 -1.7250
   15DOPE   H7Y 1903   2.866   3.335   6.027  0.7552 -0.8217 -0.7327
   15DOPE   C38 1904   2.791   3.263   5.844  0.3575  0.1642 -0.1521
   15DOPE   H8X 1905   2.766   3.159   5.814 -1.7619  0.5277  0.1993
   15DOPE   H8Y 1906   2.894   3.288   5.811 -0.2383  2.7582 -0.2806
   15DOPE   C39 1907   2.684   3.351   5.784 -0.0537  0.1546  0.4845
   15DOPE   H9X 1908   2.689   3.460   5.789 -0.9015  0.2845 -0.9115
   15DOPE  C310 1909   2.584   3.304   5.706 -0.6906 -0.4069  0.1184
   15DOPE  H10X 1910   2.504   3.371   5.672 -0.1508  0.5444  0.6664
   15DOPE  C311 1911   2.537   3.171   5.665 -0.7417 -0.2149 -0.5471
   15DOPE  H11X 1912   2.607   3.095   5.705 -0.7037  0.5317  0.8363
   15DOPE  H11Y 1913   2.435   3.160   5.707  0.2139 -1.8836  1.4950
   15DOPE  C312 1914   2.514   3.153   5.515  0.3629  0.6146 -0.2461
   15DOPE  H12X 1915   2.613   3.167   5.466  0.3849  2.0535  0.1554
   15DOPE  H12Y 1916   2.437   3.218   5.469  0.9509  0.9965 -0.6975
   15DOPE  C313 1917   2.463   3.011   5.472 -0.1533  0.0478  0.1336
   15DOPE  H13X 1918   2.520   2.929   5.522 -1.6343 -1.7330 -1.0077
   15DOPE  H13Y 1919   2.360   3.012   5.513 -0.3677 -1.2660 -0.3516
   15DOPE  C314 1920   2.475   2.990   5.319 -0.3674  0.0363  0.1056
   15DOPE  H14X 1921   2.584   2.976   5.302 -0.5308 -1.8882  0.4103
   15DOPE  H14Y 1922   2.433   3.080   5.270 -0.6161 -0.4619 -0.6164
   15DOPE  C315 1923   2.415   2.865   5.266  0.3283  0.0639  0.2500
   15DOPE  H15X 1924   2.312   2.864   5.309 -0.1947 -2.9361 -0.8299
   15DOPE  H15Y 1925   2.446   2.761   5.291 -2.6989 -1.0314 -0.0596
   15DOPE  C316 1926   2.400   2.880   5.115 -0.7345 -0.3628  0.2849
   15DOPE  H16X 1927   2.501   2.905   5.075 -1.0349  1.6609  0.6866
   15DOPE  H16Y 1928   2.334   2.967   5.092  3.4253  3.1214  0.1457
   15DOPE  C317 1929   2.359   2.756   5.034  0.0545 -0.9253 -0.2716
   15DOPE  H17X 1930   2.431   2.676   5.061  1.1930  0.3589  0.6325
   15DOPE  H17Y 1931   2.266   2.707   5.067 -0.2590 -1.6208 -2.0677
   15DOPE  C318 1932   2.354   2.793   4.887  0.0809  0.2833  0.1410
   15DOPE  H18X 1933   2.441   2.857   4.865 -1.1298  2.0963  0.4415
   15DOPE  H18Y 1934   2.338   2.703   4.823 -1.4331  1.1851 -0.8294
   15DOPE  H18Z 1935   2.267   2.857   4.858  1.1421  1.3470 -0.8065
   16DOPE     N 1936   1.760   2.444   7.541  0.6371  0.0693  0.2793
   16DOPE   HN1 1937   1.755   2.544   7.567  1.0453 -0.4898  2.7272
   16DOPE   HN2 1938   1.750   2.372   7.615 -0.4911  0.3559  0.4218
   16DOPE   HN3 1939   1.854   2.435   7.498  0.1148  1.4751 -1.2419
   16DOPE   C12 1940   1.652   2.406   7.441 -0.2161  0.2408  0.0334
   16DOPE  H12A 1941   1.556   2.390   7.495 -0.4381  1.1382 -0.0774
   16DOPE  H12B 1942   1.688   2.315   7.389 -1.0228  0.3690 -0.7829
   16DOPE   C11 1943   1.645   2.514   7.330 -0.2710 -0.2035 -0.3688
   16DOPE  H11A 1944   1.583   2.477   7.246  0.3562  1.6611 -1.7041
   16DOPE  H11B 1945   1.742   2.519   7.276 -0.2295 -0.2932 -0.3027
   16DOPE     P 1946   1.463   2.687   7.384 -0.0331  0.0470 -0.2466
   16DOPE   O13 1947   1.442   2.778   7.498  1.4185 -1.0158 -0.3023
   16DOPE   O14 1948   1.376   2.565   7.382  0.7861 -0.0133 -0.5305
   16DOPE   O11 1949   1.441   2.768   7.245 -0.2947 -0.0535 -0.2104
   16DOPE   O12 1950   1.613   2.642   7.390 -0.3903 -0.1619  0.2069
   16DOPE    C1 1951   1.313   2.774   7.177 -0.1473  0.2870 -0.6136
   16DOPE    HA 1952   1.239   2.844   7.222 -0.2512  0.1838 -0.6240
   16DOPE    HB 1953   1.269   2.672   7.176 -3.2297  1.4646  0.3302
   16DOPE    C2 1954   1.318   2.794   7.024 -0.1619 -0.1718  0.6157
   16DOPE    HS 1955   1.243   2.727   6.975  0.2797  0.8497 -1.6112
   16DOPE   O21 1956   1.451   2.755   6.980  0.3634  0.0970  0.3150
   16DOPE   C21 1957   1.487   2.631   6.965 -0.0999 -0.1533 -0.0406
   16DOPE   O22 1958   1.411   2.533   6.983  0.0868  0.2310  0.3939
   16DOPE   C22 1959   1.635   2.624   6.929 -0.1361 -0.1361  0.4005
   16DOPE   H2R 1960   1.678   2.544   6.994  0.3241  0.8879  1.3809
   16DOPE   H2S 1961   1.681   2.723   6.945 -1.1778  0.4874 -0.3354
   16DOPE    C3 1962   1.281   2.938   6.983 -0.5192  0.2757 -1.2366
   16DOPE    HX 1963   1.360   3.007   7.019 -1.2889 -0.4465  2.1859
   16DOPE    HY 1964   1.188   2.967   7.036  0.7360  1.5334  0.3582
   16DOPE   O31 1965   1.247   2.938   6.844  0.2940 -0.1097 -0.1370
   16DOPE   C31 1966   1.332   2.992   6.762 -0.0991 -0.1584  0.6824
   16DOPE   O32 1967   1.435   3.051   6.787 -0.2443  0.0827 -0.0301
   16DOPE   C32 1968   1.274   2.979   6.620 -0.3037 -0.1736  0.5287
   16DOPE   H2X 1969   1.303   2.873   6.602  0.7279 -0.2724  2.5189
   16DOPE   H2Y 1970   1.163   2.975   6.629 -0.4174  0.3105 -0.5847
   16DOPE   C23 1971   1.669   2.579   6.787 -0.0509 -0.0986 -0.1664
   16DOPE   H3R 1972   1.621   2.484   6.758  1.4572 -1.0866  0.4352
   16DOPE   H3S 1973   1.775   2.546   6.786  0.0530  0.1896  0.6601
   16DOPE   C24 1974   1.671   2.694   6.688  0.0866 -0.0512 -0.0344
   16DOPE   H4R 1975   1.730   2.781   6.725 -0.0384 -0.4024  1.0191
   16DOPE   H4S 1976   1.569   2.734   6.674  1.5192  4.0453 -0.1819
   16DOPE   C25 1977   1.713   2.664   6.548  0.0014  0.0858 -0.1110
   16DOPE   H5R 1978   1.666   2.567   6.518  2.8344 -0.9873 -1.4923
   16DOPE   H5S 1979   1.819   2.638   6.565 -0.1286 -0.3925  0.0071
   16DOPE   C26 1980   1.707   2.776   6.444  0.6670  0.1210 -0.2630
   16DOPE   H6R 1981   1.599   2.780   6.419  0.9774 -1.3869 -2.0276
   16DOPE   H6S 1982   1.753   2.765   6.344 -1.1737  0.8120 -1.2183
   16DOPE   C27 1983   1.749   2.916   6.496  0.3033  0.8593  0.6109
   16DOPE   H7R 1984   1.847   2.897   6.545  0.4700 -0.4349 -0.1661
   16DOPE   H7S 1985   1.672   2.937   6.574  0.0011 -1.9092  1.1677
   16DOPE   C28 1986   1.745   3.032   6.394 -0.3994 -0.2854 -0.1247
   16DOPE   H8R 1987   1.690   3.119   6.436 -0.2024 -0.4632  0.5244
   16DOPE   H8S 1988   1.689   2.990   6.308  0.2910 -1.6631  0.0672
   16DOPE   C29 1989   1.887   3.080   6.366  0.1231 -0.1202  0.3266
   16DOPE   H9R 1990   1.929   3.144   6.445 -1.1402  2.1734 -0.7389
   16DOPE  C210 1991   1.940   3.075   6.245 -0.1882  0.4936 -0.1677
   16DOPE  H10R 1992   2.043   3.114   6.240 -0.6453  1.8526  0.5590
   16DOPE  C211 1993   1.880   3.010   6.120  0.1798 -0.7096 -0.4293
   16DOPE  H11R 1994   1.775   3.039   6.101  1.3017  2.3669 -2.7430
   16DOPE  H11S 1995   1.889   2.900   6.132  0.5323 -0.5297  1.0840
   16DOPE  C212 1996   1.954   3.049   5.991  0.1925  0.0154 -0.3978
   16DOPE  H12R 1997   2.064   3.056   5.999  0.1782 -1.4191  2.3293
   16DOPE  H12S 1998   1.913   3.151   5.978  0.7366  0.2172 -0.5572
   16DOPE  C213 1999   1.912   2.964   5.872 -0.3978 -0.2668  0.0302
   16DOPE  H13R 2000   1.801   2.973   5.866 -0.6191  1.2264  3.7668
   16DOPE  H13S 2001   1.943   2.859   5.891  0.7057  0.0033 -0.1904
   16DOPE  C214 2002   1.969   3.002   5.738  0.1585 -0.2599 -0.4840
   16DOPE  H14R 2003   2.079   3.015   5.731 -0.0866  2.3842 -0.1645
   16DOPE  H14S 2004   1.944   3.104   5.702 -0.7854 -0.3901 -0.2380
   16DOPE  C215 2005   1.925   2.897   5.629 -0.2087  0.2476  0.2507
   16DOPE  H15R 2006   1.818   2.911   5.602  0.0309 -0.9657 -1.5391
   16DOPE  H15S 2007   1.957   2.794   5.655  1.5756  0.1862 -1.8649
   16DOPE  C216 2008   1.993   2.926   5.491 -0.1183 -0.7666 -0.2683
   16DOPE  H16R 2009   2.103   2.914   5.485  0.0655  0.5294  0.1612
   16DOPE  H16S 2010   1.978   3.035   5.476  0.4819 -0.6632 -0.1397
   16DOPE  C217 2011   1.932   2.835   5.379 -0.2312  0.4701  0.0496
   16DOPE  H17R 2012   1.916   2.729   5.410 -0.5938 -0.1248 -2.0173
   16DOPE  H17S 2013   2.006   2.840   5.296 -2.2476  0.3930 -1.8277
   16DOPE  C218 2014   1.797   2.886   5.325 -1.0242 -0.2550 -0.0965
   16DOPE  H18R 2015   1.821   2.990   5.293  2.7879 -1.5428 -2.0180
   16DOPE  H18S 2016   1.717   2.892   5.402  0.9719 -1.6878  2.2369
   16DOPE  H18T 2017   1.763   2.838   5.231 -1.1687 -2.3878  0.9825
   16DOPE   C33 2018   1.319   3.087   6.519  0.2686  0.2474  0.5589
   16DOPE   H3X 2019   1.430   3.095   6.515  0.3825 -1.1724  0.6135
   16DOPE   H3Y 2020   1.289   3.188   6.556  0.4516  0.7288 -0.5657
   16DOPE   C34 2021   1.262   3.064   6.384 -0.2620 -0.0223 -0.5357
   16DOPE   H4X 2022   1.156   3.033   6.393 -0.2777  0.2363  0.3453
   16DOPE   H4Y 2023   1.261   3.152   6.317  1.9557  0.2566 -0.2786
   16DOPE   C35 2024   1.332   2.947   6.308  0.1424 -0.0722  0.1878
   16DOPE   H5X 2025   1.330   2.853   6.366 -2.3126 -0.7240 -0.8036
   16DOPE   H5Y 2026   1.439   2.972   6.295  0.8417 -1.0861  3.2451
   16DOPE   C36 2027   1.257   2.922   6.174  1.2269 -0.5706  0.0081
   16DOPE   H6X 2028   1.279   3.010   6.110 -2.3857 -0.1105 -0.8454
   16DOPE   H6Y 2029   1.149   2.941   6.195  1.6132  2.5973 -0.4258
   16DOPE   C37 2030   1.287   2.791   6.104 -0.0025  0.2109  0.3220
   16DOPE   H7X 2031   1.384   2.807   6.052 -0.7688  0.1613 -1.1812
   16DOPE   H7Y 2032   1.312   2.709   6.174 -2.9628 -1.4929 -0.4700
   16DOPE   C38 2033   1.180   2.732   6.005  0.5655  0.4668 -0.8150
   16DOPE   H8X 2034   1.088   2.729   6.067  2.0747  1.3609  1.5753
   16DOPE   H8Y 2035   1.213   2.635   5.963 -0.4854  0.0745 -0.7608
   16DOPE   C39 2036   1.160   2.836   5.894 -0.0937  0.3501 -0.1787
   16DOPE   H9X 2037   1.255   2.858   5.842 -0.3521  0.3855 -0.6397
   16DOPE  C310 2038   1.041   2.884   5.851 -0.2939  0.1961 -0.0821
   16DOPE  H10X 2039   1.043   2.973   5.787  1.4001  1.9124  2.1848
   16DOPE  C311 2040   0.904   2.857   5.909  0.2122 -0.4443  0.4419
   16DOPE  H11X 2041   0.905   2.788   5.996  1.2118  0.4783  1.1878
   16DOPE  H11Y 2042   0.865   2.951   5.954 -0.1249 -0.2235 -0.2955
   16DOPE  C312 2043   0.809   2.817   5.804 -0.3573 -0.0468 -0.0816
   16DOPE  H12X 2044   0.717   2.788   5.860  1.5069 -4.3693  1.0859
   16DOPE  H12Y 2045   0.827   2.718   5.758 -0.8667  0.7352 -2.1217
   16DOPE  C313 2046   0.779   2.926   5.703  0.1978  0.3500 -0.1750
   16DOPE  H13X 2047   0.766   3.026   5.750 -0.4219  1.4371 -2.4723
   16DOPE  H13Y 2048   0.872   2.919   5.643  0.7744 -1.4714  0.8793
   16DOPE  C314 2049   0.664   2.892   5.611  0.3827 -0.2249  0.1076
   16DOPE  H14X 2050   0.564   2.872   5.653 -1.2010  1.8023 -2.3675
   16DOPE  H14Y 2051   0.705   2.811   5.547 -1.2900  0.7565 -2.3733
   16DOPE  C315 2052   0.625   3.010   5.521 -0.2838  0.6181  0.2960
   16DOPE  H15X 2053   0.720   3.047   5.478 -0.3457  0.9534  0.4443
   16DOPE  H15Y 2054   0.564   3.085   5.577 -2.5090 -1.1505  0.3868
   16DOPE  C316 2055   0.544   2.963   5.397  0.4377  0.2274 -0.4668
   16DOPE  H16X 2056   0.456   2.902   5.424 -0.6282  1.8109 -0.2407
   16DOPE  H16Y 2057   0.612   2.892   5.345 -0.8154 -2.9416  1.8858
   16DOPE  C317 2058   0.510   3.083   5.300 -0.6999  0.6204 -0.3630
   16DOPE  H17X 2059   0.494   3.174   5.362  0.9121  1.5206 -1.2121
   16DOPE  H17Y 2060   0.597   3.086   5.232  0.2993 -1.7499  0.6973
   16DOPE  C318 2061   0.386   3.079   5.215 -0.3550  0.2691  0.6709
   16DOPE  H18X 2062   0.406   3.136   5.122 -0.4632 -0.5252  0.1509
   16DOPE  H18Y 2063   0.370   2.974   5.182 -0.1145  0.8932 -1.5694
   16DOPE  H18Z 2064   0.295   3.124   5.261 -0.7739 -1.4182  1.5623
   17DOPE     N 2065   2.267   6.431   6.916  0.3060  0.4079 -0.1138
   17DOPE   HN1 2066   2.226   6.525   6.934  0.0417  0.4606 -0.9406
   17DOPE   HN2 2067   2.190   6.361   6.925  0.6346 -0.2025 -1.7211
   17DOPE   HN3 2068   2.333   6.416   6.995  0.5353 -1.6761 -0.6621
   17DOPE   C12 2069   2.352   6.422   6.790 -0.3229  0.0166 -0.2408
   17DOPE  H12A 2070   2.303   6.369   6.705 -0.0333 -0.4219 -0.1365
   17DOPE  H12B 2071   2.437   6.361   6.827  0.5524  1.1104 -0.3900
   17DOPE   C11 2072   2.407   6.555   6.736  0.2897  0.0704  0.4633
   17DOPE  H11A 2073   2.316   6.600   6.691  0.2124 -0.5948 -0.0656
   17DOPE  H11B 2074   2.478   6.521   6.659  1.2571 -1.5883  1.9959
   17DOPE     P 2075   2.614   6.669   6.861  0.3063 -0.0804  0.2504
   17DOPE   O13 2076   2.684   6.599   6.748 -0.0811 -0.3437  0.1120
   17DOPE   O14 2077   2.648   6.627   6.997 -0.2606 -0.1903 -0.2462
   17DOPE   O11 2078   2.621   6.820   6.845  0.2775 -0.0876 -0.1725
   17DOPE   O12 2079   2.456   6.638   6.844  0.3856 -0.2277  0.0164
   17DOPE    C1 2080   2.548   6.907   6.758  0.4835  0.3909  0.5859
   17DOPE    HA 2081   2.529   7.003   6.812 -0.5868  0.1216  0.7183
   17DOPE    HB 2082   2.458   6.851   6.724  1.7990 -2.0628  0.9694
   17DOPE    C2 2083   2.635   6.948   6.631  0.4826  0.3488 -0.1281
   17DOPE    HS 2084   2.565   7.010   6.571  0.1090 -1.0240 -1.1576
   17DOPE   O21 2085   2.668   6.829   6.552 -0.1108 -0.5626 -0.3644
   17DOPE   C21 2086   2.574   6.770   6.487 -0.1018 -0.4469 -0.3841
   17DOPE   O22 2087   2.458   6.810   6.484 -0.2006  0.2151 -0.3640
   17DOPE   C22 2088   2.625   6.656   6.394 -0.1396 -0.3621 -0.0740
   17DOPE   H2R 2089   2.673   6.580   6.459 -1.2686 -1.4801 -0.4982
   17DOPE   H2S 2090   2.705   6.711   6.341 -2.0825  1.9533 -0.8287
   17DOPE    C3 2091   2.761   7.035   6.672  0.0955 -0.2639 -0.9762
   17DOPE    HX 2092   2.814   6.954   6.727 -2.3642 -0.8382  0.7025
   17DOPE    HY 2093   2.739   7.117   6.743  1.3115  0.0409 -0.9223
   17DOPE   O31 2094   2.838   7.093   6.564 -0.5280  0.6818 -0.4091
   17DOPE   C31 2095   2.958   7.127   6.609  0.4365 -0.1078 -0.2826
   17DOPE   O32 2096   3.003   7.110   6.720  0.5722 -0.1082  0.0604
   17DOPE   C32 2097   3.023   7.203   6.499 -0.4141 -1.0819  0.4926
   17DOPE   H2X 2098   3.121   7.155   6.477  0.4076 -0.0464  1.7779
   17DOPE   H2Y 2099   2.960   7.196   6.408  0.9278 -0.9007 -0.4772
   17DOPE   C23 2100   2.522   6.606   6.305  0.2064 -0.6639  0.1409
   17DOPE   H3R 2101   2.572   6.567   6.213 -1.6404 -0.2589 -1.1101
   17DOPE   H3S 2102   2.457   6.690   6.272 -1.3281 -1.2469  1.5139
   17DOPE   C24 2103   2.426   6.504   6.364 -0.0609 -1.1281  0.1337
   17DOPE   H4R 2104   2.361   6.550   6.442  2.1304  0.0519  1.3727
   17DOPE   H4S 2105   2.487   6.419   6.403  1.5906  0.2178  0.5806
   17DOPE   C25 2106   2.335   6.441   6.255 -0.3899  0.2829 -0.4306
   17DOPE   H5R 2107   2.248   6.397   6.309 -0.6157  2.4554  1.1414
   17DOPE   H5S 2108   2.393   6.355   6.216  1.9076  0.7984  1.5936
   17DOPE   C26 2109   2.283   6.538   6.143  0.7211  0.0764  0.7279
   17DOPE   H6R 2110   2.363   6.583   6.080  1.2154 -0.0945  1.2268
   17DOPE   H6S 2111   2.228   6.620   6.194 -2.2767 -2.1434  1.3625
   17DOPE   C27 2112   2.188   6.464   6.044 -0.2921  0.5897 -0.7009
   17DOPE   H7R 2113   2.124   6.397   6.105 -0.1385 -1.0177 -2.2304
   17DOPE   H7S 2114   2.251   6.401   5.979  0.1311  1.5693 -1.2665
   17DOPE   C28 2115   2.097   6.560   5.962  0.2733 -0.3371  0.0786
   17DOPE   H8R 2116   2.155   6.655   5.962  0.3588 -0.3741  1.6786
   17DOPE   H8S 2117   2.006   6.589   6.017  0.0420  1.0620 -0.9967
   17DOPE   C29 2118   2.068   6.494   5.828 -0.4877 -0.5405 -0.1413
   17DOPE   H9R 2119   2.055   6.385   5.825 -1.7853 -0.4607  1.3196
   17DOPE  C210 2120   2.088   6.564   5.710 -0.2264 -0.4462 -1.1916
   17DOPE  H10R 2121   2.052   6.519   5.616  0.4541 -0.3382 -1.5147
   17DOPE  C211 2122   2.121   6.709   5.692  0.4289 -0.0488 -0.5312
   17DOPE  H11R 2123   2.231   6.725   5.697  0.1459  2.4264 -1.1117
   17DOPE  H11S 2124   2.077   6.772   5.772  0.5668 -0.8764  0.2203
   17DOPE  C212 2125   2.076   6.758   5.549  0.0093  0.2911 -0.3548
   17DOPE  H12R 2126   2.115   6.861   5.535  2.9697 -0.7298 -0.2484
   17DOPE  H12S 2127   1.965   6.755   5.540 -0.0633  1.7928 -0.1295
   17DOPE  C213 2128   2.131   6.691   5.424  0.0170  0.1040 -0.0366
   17DOPE  H13R 2129   2.070   6.603   5.395  0.9090 -0.4819 -0.1431
   17DOPE  H13S 2130   2.229   6.654   5.459  0.0996 -0.4764 -0.8582
   17DOPE  C214 2131   2.141   6.789   5.308 -0.0069  0.5211  0.1209
   17DOPE  H14R 2132   2.180   6.883   5.353 -1.9049  0.6810  1.5517
   17DOPE  H14S 2133   2.046   6.813   5.256 -1.5062  1.4744  3.0941
   17DOPE  C215 2134   2.250   6.750   5.212  0.3230 -0.2809  0.3356
   17DOPE  H15R 2135   2.217   6.648   5.182 -1.0834  0.1631  0.3252
   17DOPE  H15S 2136   2.350   6.746   5.260 -1.0115 -0.4299  3.3129
   17DOPE  C216 2137   2.250   6.827   5.077 -0.5070  0.2156 -0.5839
   17DOPE  H16R 2138   2.271   6.935   5.095  0.1671 -0.1141  0.7232
   17DOPE  H16S 2139   2.151   6.811   5.030 -0.2517  0.1495 -1.1011
   17DOPE  C217 2140   2.362   6.781   4.981  0.5608 -0.1351 -0.2097
   17DOPE  H17R 2141   2.337   6.827   4.883 -0.3182  0.0359  0.0849
   17DOPE  H17S 2142   2.361   6.671   4.964  0.7468 -0.2439  0.4616
   17DOPE  C218 2143   2.501   6.827   5.024  0.5210 -0.2760 -0.3948
   17DOPE  H18R 2144   2.495   6.935   5.046 -0.2442 -0.2802 -0.5617
   17DOPE  H18S 2145   2.578   6.788   4.955  2.4073  1.1315  0.8234
   17DOPE  H18T 2146   2.533   6.778   5.119  2.1253 -0.7672 -1.1505
   17DOPE   C33 2147   3.070   7.350   6.534 -0.6303  0.0025  0.8784
   17DOPE   H3X 2148   3.152   7.373   6.462 -0.5537  1.8689  1.5103
   17DOPE   H3Y 2149   3.113   7.338   6.635  2.9380 -0.1946 -0.5291
   17DOPE   C34 2150   2.954   7.453   6.519  0.4200 -0.2044  0.0426
   17DOPE   H4X 2151   2.910   7.437   6.418 -1.2538  1.9611  0.3521
   17DOPE   H4Y 2152   2.868   7.450   6.590 -0.2507  0.9730 -0.6747
   17DOPE   C35 2153   3.008   7.595   6.528  0.8453  0.5240 -0.6083
   17DOPE   H5X 2154   3.100   7.615   6.470  0.3801  2.6052 -0.6897
   17DOPE   H5Y 2155   3.020   7.607   6.638 -3.3021  1.5850 -0.0891
   17DOPE   C36 2156   2.915   7.710   6.498  0.5487  0.0593 -0.0484
   17DOPE   H6X 2157   2.809   7.695   6.527  1.1633  0.7976  2.8938
   17DOPE   H6Y 2158   2.904   7.725   6.388 -0.1932 -0.6280 -0.0747
   17DOPE   C37 2159   2.941   7.841   6.579 -0.4997 -0.0263 -0.1643
   17DOPE   H7X 2160   2.905   7.827   6.683 -0.0767 -2.2742 -0.2567
   17DOPE   H7Y 2161   3.052   7.848   6.584 -0.6350  1.2138  2.3651
   17DOPE   C38 2162   2.889   7.976   6.517  0.4527  0.1148 -1.1663
   17DOPE   H8X 2163   2.910   7.978   6.408 -0.8420  2.6131 -1.4304
   17DOPE   H8Y 2164   2.952   8.058   6.557  2.5157 -1.2145 -1.5646
   17DOPE   C39 2165   2.737   7.987   6.550 -0.2352  0.6636  0.5780
   17DOPE   H9X 2166   2.700   8.014   6.650 -1.2387  1.4510  0.0156
   17DOPE  C310 2167   2.641   7.950   6.460  0.1107 -0.8994 -0.5339
   17DOPE  H10X 2168   2.536   7.973   6.485  0.3702  0.5354 -0.6465
   17DOPE  C311 2169   2.657   7.904   6.318 -0.2735  0.0448  0.0856
   17DOPE  H11X 2170   2.628   7.988   6.252 -1.0426  0.3361  0.7688
   17DOPE  H11Y 2171   2.759   7.869   6.293  0.4850  1.4380  1.0991
   17DOPE  C312 2172   2.562   7.790   6.278  0.9646  0.3783 -0.3564
   17DOPE  H12X 2173   2.599   7.693   6.319 -2.2080 -0.3155  1.1527
   17DOPE  H12Y 2174   2.576   7.786   6.168 -0.3830  1.2502 -0.5731
   17DOPE  C313 2175   2.419   7.809   6.314 -0.6104  1.2443 -0.4888
   17DOPE  H13X 2176   2.367   7.728   6.259  1.9517 -0.5474 -0.4211
   17DOPE  H13Y 2177   2.411   7.786   6.423 -0.6440  0.2924 -0.6849
   17DOPE  C314 2178   2.354   7.940   6.280 -0.2192 -0.5370 -0.1185
   17DOPE  H14X 2179   2.355   7.952   6.169 -0.5614  2.1889  0.0951
   17DOPE  H14Y 2180   2.421   8.017   6.324  1.6841 -2.0640 -0.2214
   17DOPE  C315 2181   2.206   7.942   6.337 -0.5262 -0.5777  0.1657
   17DOPE  H15X 2182   2.209   7.904   6.441  3.7131 -0.1875  0.3652
   17DOPE  H15Y 2183   2.162   7.859   6.278  0.6799  1.0095 -3.2834
   17DOPE  C316 2184   2.136   8.076   6.311 -0.1108 -0.1215 -0.3514
   17DOPE  H16X 2185   2.105   8.080   6.205 -1.0956 -1.4724 -0.1433
   17DOPE  H16Y 2186   2.204   8.158   6.343  2.4407 -2.2197 -0.0638
   17DOPE  C317 2187   2.004   8.092   6.390 -0.8767  0.1928  0.4134
   17DOPE  H17X 2188   2.028   8.096   6.499  0.0157  0.5615  0.2129
   17DOPE  H17Y 2189   1.966   8.191   6.357 -0.3142 -0.3708 -2.1454
   17DOPE  C318 2190   1.902   7.985   6.345  0.0560  0.5349 -0.0239
   17DOPE  H18X 2191   1.891   7.978   6.234 -0.0306 -0.5705  0.0457
   17DOPE  H18Y 2192   1.933   7.880   6.363 -0.4118  0.1257 -1.4381
   17DOPE  H18Z 2193   1.799   8.004   6.382 -0.5973  1.4712 -2.1605
   18DOPE     N 2194   6.851   4.434   6.922  0.1925 -0.0373 -0.0188
   18DOPE   HN1 2195   6.782   4.361   6.950  0.2913  0.3105  1.1630
   18DOPE   HN2 2196   6.887   4.479   7.009 -0.3361  1.0973 -0.3741
   18DOPE   HN3 2197   6.818   4.512   6.862  3.6802  1.5651 -0.1108
   18DOPE   C12 2198   6.958   4.356   6.857  0.0447 -0.6366  0.0207
   18DOPE  H12A 2199   6.914   4.325   6.759 -1.2908  0.4055  0.2612
   18DOPE  H12B 2200   6.993   4.271   6.919  2.6394  1.6078  1.8553
   18DOPE   C11 2201   7.080   4.446   6.830 -0.1141  0.1103 -0.6548
   18DOPE  H11A 2202   7.051   4.541   6.780 -0.7105 -0.1070 -0.7319
   18DOPE  H11B 2203   7.136   4.385   6.756 -2.1756 -1.3442 -1.0976
   18DOPE     P 2204   7.307   4.517   6.934  0.1350 -0.2744 -0.3548
   18DOPE   O13 2205   7.368   4.500   7.071  0.3258 -1.0368 -0.7751
   18DOPE   O14 2206   7.318   4.650   6.865  0.5142 -0.3211  0.4733
   18DOPE   O11 2207   7.359   4.404   6.839 -0.5689  0.7198 -0.5831
   18DOPE   O12 2208   7.157   4.473   6.949  0.6757 -0.3130 -0.0506
   18DOPE    C1 2209   7.447   4.426   6.733  1.2807  0.3762  0.3040
   18DOPE    HA 2210   7.547   4.415   6.779  0.6092  1.9661  2.2699
   18DOPE    HB 2211   7.445   4.526   6.684  2.1517  0.5353  0.5809
   18DOPE    C2 2212   7.418   4.313   6.632 -0.2760  0.4257  0.4981
   18DOPE    HS 2213   7.506   4.304   6.566  1.2742  1.5120  2.3139
   18DOPE   O21 2214   7.300   4.339   6.562  0.0927  0.1743  0.0213
   18DOPE   C21 2215   7.297   4.442   6.482  0.8695  0.7978 -0.0932
   18DOPE   O22 2216   7.395   4.508   6.457 -0.4354  0.2145 -0.1324
   18DOPE   C22 2217   7.155   4.457   6.432 -0.0698  0.2796  0.2371
   18DOPE   H2R 2218   7.116   4.559   6.453  1.0355  0.8539 -0.3742
   18DOPE   H2S 2219   7.085   4.389   6.483  2.4237 -1.4243  1.6331
   18DOPE    C3 2220   7.403   4.177   6.705 -0.3085  0.4490  0.0748
   18DOPE    HX 2221   7.310   4.185   6.765  1.5895  0.3810  3.2211
   18DOPE    HY 2222   7.484   4.164   6.780  0.0548  0.6421 -0.2816
   18DOPE   O31 2223   7.393   4.055   6.627  0.8308  0.5133  0.3049
   18DOPE   C31 2224   7.512   4.019   6.574 -0.1327  0.7969  0.3252
   18DOPE   O32 2225   7.614   4.085   6.590  0.3911 -0.3446  0.0568
   18DOPE   C32 2226   7.495   3.881   6.517  0.5036  0.9951  0.4665
   18DOPE   H2X 2227   7.547   3.813   6.588  1.8912  0.9692 -0.5353
   18DOPE   H2Y 2228   7.389   3.849   6.519  0.2929  1.5726 -0.8875
   18DOPE   C23 2229   7.148   4.455   6.277 -0.7738  0.4027  0.5230
   18DOPE   H3R 2230   7.147   4.349   6.242 -1.6930  1.5362 -3.3143
   18DOPE   H3S 2231   7.236   4.504   6.230 -2.2463  0.5503 -2.2576
   18DOPE   C24 2232   7.032   4.522   6.209 -0.7908 -0.4743 -1.1062
   18DOPE   H4R 2233   7.040   4.631   6.229 -0.8323 -0.7098  0.2781
   18DOPE   H4S 2234   6.944   4.500   6.273  0.6731  2.3060  2.1616
   18DOPE   C25 2235   7.006   4.475   6.070  0.4721  0.4780  0.0002
   18DOPE   H5R 2236   6.908   4.502   6.024 -0.2685 -2.6213 -0.5152
   18DOPE   H5S 2237   7.014   4.364   6.075  1.3153  0.5483  0.3507
   18DOPE   C26 2238   7.113   4.518   5.969  0.1363 -0.5526 -0.2627
   18DOPE   H6R 2239   7.105   4.439   5.891  0.7539 -2.7251  1.7741
   18DOPE   H6S 2240   7.217   4.523   6.007  1.2194 -0.1480 -3.0397
   18DOPE   C27 2241   7.094   4.660   5.916 -0.4193  0.0315 -0.0747
   18DOPE   H7R 2242   7.082   4.724   6.006 -0.7095  0.1368 -0.1855
   18DOPE   H7S 2243   6.992   4.665   5.872  0.1720 -0.0975 -1.5210
   18DOPE   C28 2244   7.212   4.714   5.834  1.2377 -0.1964 -0.3610
   18DOPE   H8R 2245   7.314   4.693   5.871  1.5212  1.2230 -0.3109
   18DOPE   H8S 2246   7.196   4.824   5.835 -0.8038 -0.4337 -1.5146
   18DOPE   C29 2247   7.183   4.672   5.692 -0.2538 -0.5074 -0.4211
   18DOPE   H9R 2248   7.075   4.663   5.673 -1.0351  1.8547  2.1816
   18DOPE  C210 2249   7.271   4.630   5.604  0.2671 -0.6542  0.7066
   18DOPE  H10R 2250   7.235   4.611   5.502 -1.3426  1.2446  0.8566
   18DOPE  C211 2251   7.421   4.610   5.618  0.5131 -1.0732 -0.1326
   18DOPE  H11R 2252   7.465   4.649   5.712  0.3503  0.1206 -0.5335
   18DOPE  H11S 2253   7.467   4.661   5.531  0.2997 -1.9952 -0.7962
   18DOPE  C212 2254   7.460   4.462   5.631 -0.6695 -0.4657 -0.1023
   18DOPE  H12R 2255   7.569   4.457   5.610 -1.1728 -2.1696 -2.7663
   18DOPE  H12S 2256   7.407   4.400   5.555 -0.2600  0.8174 -1.4974
   18DOPE  C213 2257   7.436   4.395   5.766  0.3905  0.0898  0.4301
   18DOPE  H13R 2258   7.452   4.285   5.754 -1.5324 -0.2423  0.6505
   18DOPE  H13S 2259   7.327   4.397   5.789  0.1105 -1.0633 -0.6431
   18DOPE  C214 2260   7.511   4.451   5.889 -0.1725 -0.4940  0.1224
   18DOPE  H14R 2261   7.456   4.531   5.943  0.4935 -1.8521  3.0042
   18DOPE  H14S 2262   7.603   4.498   5.847  0.4355 -0.0459  1.8585
   18DOPE  C215 2263   7.542   4.338   5.985  0.0094  0.4060  0.4412
   18DOPE  H15R 2264   7.586   4.254   5.928  0.1650  1.4045 -0.9899
   18DOPE  H15S 2265   7.447   4.313   6.036 -0.3452  2.2957  0.7939
   18DOPE  C216 2266   7.649   4.383   6.085 -0.7682 -0.2071 -0.4631
   18DOPE  H16R 2267   7.602   4.470   6.136 -2.5961 -1.6610  0.4829
   18DOPE  H16S 2268   7.742   4.424   6.041  0.1193 -1.0043  0.6066
   18DOPE  C217 2269   7.681   4.272   6.186  0.5153 -0.2244  0.1145
   18DOPE  H17R 2270   7.742   4.314   6.269 -2.0764  1.2296  1.4164
   18DOPE  H17S 2271   7.750   4.203   6.133  0.1306 -1.2286  0.8987
   18DOPE  C218 2272   7.556   4.197   6.233  0.5194  0.2226 -0.0374
   18DOPE  H18R 2273   7.510   4.134   6.154  1.3600  0.6970 -0.9350
   18DOPE  H18S 2274   7.483   4.264   6.282  0.3015 -0.3512  0.4367
   18DOPE  H18T 2275   7.601   4.131   6.311  1.8534  0.8135 -0.2683
   18DOPE   C33 2276   7.551   3.860   6.374 -0.8722  0.2656  0.1471
   18DOPE   H3X 2277   7.656   3.896   6.359  0.4876 -3.4605 -0.2569
   18DOPE   H3Y 2278   7.483   3.901   6.296 -1.4525 -3.7553 -1.6956
   18DOPE   C34 2279   7.550   3.716   6.328 -0.6117 -0.3022 -0.0019
   18DOPE   H4X 2280   7.635   3.656   6.366  1.8381  3.0320  0.2256
   18DOPE   H4Y 2281   7.454   3.677   6.368 -0.7154  0.8776  0.9669
   18DOPE   C35 2282   7.563   3.700   6.171 -0.2064  0.1919 -0.1527
   18DOPE   H5X 2283   7.478   3.750   6.119 -2.4042 -0.2915  2.7061
   18DOPE   H5Y 2284   7.558   3.593   6.143 -2.1666 -0.0547  0.9598
   18DOPE   C36 2285   7.690   3.758   6.109  0.2928  0.6016  0.0215
   18DOPE   H6X 2286   7.767   3.684   6.140  0.7496  0.8533 -0.4938
   18DOPE   H6Y 2287   7.717   3.861   6.141  1.1243  1.4661 -3.1219
   18DOPE   C37 2288   7.683   3.744   5.951 -0.3576  0.7098  0.4318
   18DOPE   H7X 2289   7.630   3.650   5.925 -1.3356  1.5538 -0.7381
   18DOPE   H7Y 2290   7.631   3.831   5.908  0.1635  1.3387  1.0411
   18DOPE   C38 2291   7.828   3.723   5.900  0.4601 -0.2863 -0.2318
   18DOPE   H8X 2292   7.837   3.743   5.791 -2.3983  0.6978 -0.3921
   18DOPE   H8Y 2293   7.860   3.619   5.920  2.0371 -0.1371 -1.7341
   18DOPE   C39 2294   7.916   3.821   5.970 -0.2683 -0.1025  0.5354
   18DOPE   H9X 2295   7.899   3.926   5.943  0.6457  0.2696  1.3497
   18DOPE  C310 2296   8.016   3.798   6.063  0.4289 -0.0612 -0.4649
   18DOPE  H10X 2297   8.061   3.886   6.111 -0.9427 -0.3782  1.5457
   18DOPE  C311 2298   8.072   3.668   6.108  0.4191  0.1066  0.1394
   18DOPE  H11X 2299   7.987   3.598   6.092  0.1916  0.8230 -2.1612
   18DOPE  H11Y 2300   8.160   3.635   6.048 -0.0322 -0.4376 -0.2354
   18DOPE  C312 2301   8.104   3.646   6.255  0.0347 -0.1114  0.5336
   18DOPE  H12X 2302   8.126   3.538   6.267 -1.4594 -0.3714  1.2243
   18DOPE  H12Y 2303   8.021   3.680   6.321  0.4551 -0.1396  1.0857
   18DOPE  C313 2304   8.239   3.722   6.310  0.0869 -0.6941 -0.0771
   18DOPE  H13X 2305   8.243   3.833   6.312  1.6798 -0.6925 -1.3267
   18DOPE  H13Y 2306   8.255   3.679   6.411 -1.1137  0.9142  0.8350
   18DOPE  C314 2307   8.353   3.678   6.221 -0.3889 -0.1653 -0.2808
   18DOPE  H14X 2308   8.345   3.709   6.115  1.4965 -1.8086 -0.9427
   18DOPE  H14Y 2309   8.350   3.568   6.232 -2.2149 -0.2083 -0.8872
   18DOPE  C315 2310   8.498   3.720   6.255  0.6334  0.1977 -0.2814
   18DOPE  H15X 2311   8.520   3.704   6.363 -0.3671  0.9191  0.0446
   18DOPE  H15Y 2312   8.516   3.828   6.236 -2.2605  0.4187 -2.3930
   18DOPE  C316 2313   8.603   3.655   6.160  0.4275  0.2469  0.2844
   18DOPE  H16X 2314   8.577   3.693   6.059 -1.3769  0.5110  0.8074
   18DOPE  H16Y 2315   8.570   3.549   6.160 -2.7715  1.1298 -0.3059
   18DOPE  C317 2316   8.743   3.673   6.207 -0.6797 -0.9691  0.2262
   18DOPE  H17X 2317   8.767   3.782   6.202 -1.2612 -0.7337  1.9835
   18DOPE  H17Y 2318   8.751   3.643   6.314  1.6634 -0.0091  0.3778
   18DOPE  C318 2319   8.844   3.587   6.126  0.5499  0.8094 -0.2136
   18DOPE  H18X 2320   8.939   3.575   6.182 -0.5721  0.1617  1.6412
   18DOPE  H18Y 2321   8.797   3.486   6.126 -1.1636  1.4307 -3.6346
   18DOPE  H18Z 2322   8.848   3.623   6.021  0.6527  2.4768  0.3367
   19DOPE     N 2323   0.441   3.591   6.736  0.5908  0.0312  0.1212
   19DOPE   HN1 2324   0.480   3.685   6.713  0.0829 -0.0877 -1.3431
   19DOPE   HN2 2325   0.403   3.606   6.832  0.4424  2.1620 -0.2156
   19DOPE   HN3 2326   0.513   3.517   6.746  1.7264  0.8857 -1.4489
   19DOPE   C12 2327   0.333   3.551   6.646  0.0006  0.6789  0.1547
   19DOPE  H12A 2328   0.272   3.470   6.693 -1.1688  0.6943 -1.2731
   19DOPE  H12B 2329   0.364   3.525   6.543 -0.6448 -3.3648  0.7928
   19DOPE   C11 2330   0.228   3.661   6.644  0.4050  0.1093 -0.0737
   19DOPE  H11A 2331   0.145   3.622   6.582  0.5033 -2.0103  1.0386
   19DOPE  H11B 2332   0.285   3.747   6.603 -0.7954  0.3933 -1.2040
   19DOPE     P 2333   0.052   3.635   6.835 -0.3520 -0.5111 -0.1293
   19DOPE   O13 2334  -0.054   3.734   6.810  0.6096  0.1345  0.3016
   19DOPE   O14 2335   0.085   3.596   6.975  0.1857 -0.3606  0.6463
   19DOPE   O11 2336   0.024   3.507   6.754 -0.0668 -0.1091  0.3402
   19DOPE   O12 2337   0.183   3.696   6.774  0.2173 -0.2292 -0.7852
   19DOPE    C1 2338  -0.084   3.420   6.798 -0.5308 -0.2048  0.0143
   19DOPE    HA 2339  -0.185   3.463   6.784 -1.4082 -2.3721 -0.7521
   19DOPE    HB 2340  -0.075   3.395   6.906  0.6779  0.3636  0.0628
   19DOPE    C2 2341  -0.078   3.290   6.706  0.2281 -0.1155 -0.8019
   19DOPE    HS 2342   0.017   3.244   6.740  0.1068  0.2466  0.0547
   19DOPE   O21 2343  -0.085   3.321   6.568 -0.7087 -0.1882 -0.5978
   19DOPE   C21 2344   0.025   3.306   6.493 -0.4531 -0.6871 -0.6811
   19DOPE   O22 2345   0.134   3.263   6.536 -0.2362  0.1729  0.1515
   19DOPE   C22 2346  -0.009   3.322   6.344 -0.2083  0.7734  0.1018
   19DOPE   H2R 2347  -0.050   3.425   6.336  1.1427  1.3252  0.0690
   19DOPE   H2S 2348  -0.091   3.253   6.317  1.9074 -0.9846 -2.3256
   19DOPE    C3 2349  -0.200   3.196   6.737  0.1146 -0.4146 -0.0929
   19DOPE    HX 2350  -0.291   3.253   6.710  0.7536  1.8953  2.2178
   19DOPE    HY 2351  -0.208   3.186   6.847 -0.4059  0.5325 -0.0401
   19DOPE   O31 2352  -0.192   3.075   6.666  0.1718 -0.3337 -0.0284
   19DOPE   C31 2353  -0.095   2.998   6.704 -0.4046  0.0760 -0.1643
   19DOPE   O32 2354  -0.015   3.008   6.799  0.1603 -0.0143 -0.0081
   19DOPE   C32 2355  -0.110   2.863   6.640 -0.2695  0.7208  0.0448
   19DOPE   H2X 2356  -0.079   2.783   6.711  1.0285  0.2588 -1.0128
   19DOPE   H2Y 2357  -0.214   2.844   6.607  0.2688 -1.6106 -0.5112
   19DOPE   C23 2358   0.115   3.298   6.258  0.1325  0.2897  0.2046
   19DOPE   H3R 2359   0.161   3.198   6.267  1.7166  0.9739 -0.0228
   19DOPE   H3S 2360   0.198   3.366   6.288 -0.3037  1.4439 -1.0769
   19DOPE   C24 2361   0.098   3.325   6.114 -0.6064  0.3543 -0.2339
   19DOPE   H4R 2362   0.198   3.322   6.065 -1.0711 -1.0564 -1.1557
   19DOPE   H4S 2363   0.053   3.424   6.090 -2.7149 -0.6315 -0.5908
   19DOPE   C25 2364   0.007   3.231   6.036  0.0252  0.3585  0.3294
   19DOPE   H5R 2365  -0.096   3.267   6.059 -0.4418  2.2210 -3.8568
   19DOPE   H5S 2366   0.026   3.126   6.066  0.7660 -0.0385 -1.3904
   19DOPE   C26 2367   0.026   3.228   5.884 -0.4683  0.0712 -0.1096
   19DOPE   H6R 2368   0.128   3.192   5.858 -0.1190 -0.0590  1.3561
   19DOPE   H6S 2369   0.004   3.333   5.855  0.7844  0.7192  1.1786
   19DOPE   C27 2370  -0.081   3.143   5.815 -0.1115  0.1088 -0.3097
   19DOPE   H7R 2371  -0.183   3.178   5.842 -0.0355 -0.0376  0.1812
   19DOPE   H7S 2372  -0.078   3.037   5.849  4.1346 -0.1589 -0.9056
   19DOPE   C28 2373  -0.079   3.146   5.661 -1.2789  0.2059 -0.0210
   19DOPE   H8R 2374  -0.072   3.254   5.635  1.0990  0.2058  0.3983
   19DOPE   H8S 2375  -0.179   3.117   5.622  0.0101  0.2693 -3.7121
   19DOPE   C29 2376   0.029   3.055   5.595 -0.1947  0.3367 -0.9376
   19DOPE   H9R 2377   0.129   3.100   5.589  0.0033 -0.0478 -0.5797
   19DOPE  C210 2378   0.016   2.928   5.561 -0.3065  0.0847 -0.1915
   19DOPE  H10R 2379   0.094   2.881   5.500  0.9464 -1.3122  2.3121
   19DOPE  C211 2380  -0.117   2.846   5.577 -0.8617 -0.2556  0.6197
   19DOPE  H11R 2381  -0.192   2.911   5.627  0.0314  2.0842 -0.9101
   19DOPE  H11S 2382  -0.108   2.756   5.642 -3.0096 -2.3827 -1.8240
   19DOPE  C212 2383  -0.172   2.798   5.438 -0.5730  0.1742 -0.0723
   19DOPE  H12R 2384  -0.256   2.728   5.455 -0.0734 -0.5868 -0.6545
   19DOPE  H12S 2385  -0.100   2.716   5.414  0.8239  0.1322  3.5847
   19DOPE  C213 2386  -0.219   2.887   5.326  0.5171 -0.5932 -0.4700
   19DOPE  H13R 2387  -0.126   2.942   5.298 -0.9525  1.5363 -1.4887
   19DOPE  H13S 2388  -0.297   2.961   5.354 -1.0596 -0.7091 -3.9771
   19DOPE  C214 2389  -0.274   2.812   5.205 -0.6144  0.2064 -0.7418
   19DOPE  H14R 2390  -0.331   2.877   5.135 -2.4048 -2.0390 -1.5254
   19DOPE  H14S 2391  -0.351   2.740   5.239 -0.6948  1.2527  1.4095
   19DOPE  C215 2392  -0.179   2.734   5.120 -0.3562  0.0408 -0.1554
   19DOPE  H15R 2393  -0.172   2.637   5.172  0.7141 -0.2421 -0.7886
   19DOPE  H15S 2394  -0.071   2.759   5.113 -0.2671 -0.6248 -1.3820
   19DOPE  C216 2395  -0.228   2.716   4.978  0.3083  0.6499  0.4174
   19DOPE  H16R 2396  -0.332   2.676   4.974  0.1584  1.0468  0.2805
   19DOPE  H16S 2397  -0.157   2.655   4.918 -0.4134  0.9003 -0.7334
   19DOPE  C217 2398  -0.234   2.846   4.888 -0.8234  0.2074  0.1083
   19DOPE  H17R 2399  -0.327   2.901   4.914  0.1405  1.2124  1.5802
   19DOPE  H17S 2400  -0.248   2.815   4.783 -0.8481 -1.1874  0.5000
   19DOPE  C218 2401  -0.104   2.929   4.896  0.1741  0.5320 -0.0920
   19DOPE  H18R 2402  -0.118   3.006   4.817 -0.9978 -0.6902 -1.1479
   19DOPE  H18S 2403  -0.018   2.865   4.867 -1.0998 -1.5012  0.3942
   19DOPE  H18T 2404  -0.088   2.979   4.994  1.7921  3.2804 -1.6463
   19DOPE   C33 2405  -0.009   2.847   6.517  0.2565  0.8833  0.0268
   19DOPE   H3X 2406  -0.011   2.947   6.469 -3.6670  0.4398 -1.0170
   19DOPE   H3Y 2407  -0.072   2.778   6.458 -1.3824  0.3302  2.3033
   19DOPE   C34 2408   0.126   2.796   6.562 -0.8321 -0.9416  0.4500
   19DOPE   H4X 2409   0.188   2.861   6.627 -0.3525  1.3687 -2.1012
   19DOPE   H4Y 2410   0.110   2.702   6.619  1.2308  0.4562  3.5649
   19DOPE   C35 2411   0.231   2.767   6.451 -0.4172 -0.3028 -0.5179
   19DOPE   H5X 2412   0.178   2.736   6.358 -1.8525 -1.7452  0.7155
   19DOPE   H5Y 2413   0.289   2.672   6.461  1.3924  0.3689 -3.5065
   19DOPE   C36 2414   0.332   2.881   6.423  0.0555 -0.3063 -0.5176
   19DOPE   H6X 2415   0.425   2.871   6.483 -0.5532 -2.1045  0.1899
   19DOPE   H6Y 2416   0.291   2.981   6.445  1.0586  0.1382 -0.6162
   19DOPE   C37 2417   0.373   2.877   6.278  0.0264  0.0675 -0.3925
   19DOPE   H7X 2418   0.429   2.784   6.254 -0.0948 -0.4776  1.2913
   19DOPE   H7Y 2419   0.281   2.870   6.217  0.4203 -0.2385 -0.9616
   19DOPE   C38 2420   0.429   3.006   6.227 -0.1481 -0.9177 -0.4290
   19DOPE   H8X 2421   0.488   3.052   6.309 -1.4519 -3.0812  1.8538
   19DOPE   H8Y 2422   0.355   3.086   6.204 -0.2314 -0.5296  1.0866
   19DOPE   C39 2423   0.520   2.980   6.109 -0.2413  0.2663 -1.2070
   19DOPE   H9X 2424   0.585   2.896   6.135 -0.4434  1.0549  2.4581
   19DOPE  C310 2425   0.536   3.064   6.004 -0.4372 -0.4727  0.5674
   19DOPE  H10X 2426   0.624   3.045   5.940 -1.0748 -1.7572  0.0361
   19DOPE  C311 2427   0.468   3.197   6.001  0.0032 -0.5798 -0.4601
   19DOPE  H11X 2428   0.363   3.199   6.039  0.3859  0.2451  0.5962
   19DOPE  H11Y 2429   0.530   3.264   6.064 -0.5242  0.1934 -0.7427
   19DOPE  C312 2430   0.454   3.249   5.859  0.1178 -0.2892  0.5746
   19DOPE  H12X 2431   0.399   3.179   5.793  2.4072  0.6629 -2.5422
   19DOPE  H12Y 2432   0.556   3.266   5.819 -0.6268  0.4682 -1.1053
   19DOPE  C313 2433   0.387   3.391   5.867 -0.3358 -0.4682 -0.6354
   19DOPE  H13X 2434   0.279   3.370   5.884  0.0313 -1.7076  0.2901
   19DOPE  H13Y 2435   0.427   3.448   5.954 -0.5847 -0.5633 -0.4581
   19DOPE  C314 2436   0.412   3.467   5.732  0.0378 -0.5922 -0.7742
   19DOPE  H14X 2437   0.513   3.456   5.689  0.3649 -0.0306 -0.1746
   19DOPE  H14Y 2438   0.391   3.575   5.753  1.5697 -0.2616 -0.8672
   19DOPE  C315 2439   0.296   3.423   5.637 -0.4636 -0.1795  0.7667
   19DOPE  H15X 2440   0.194   3.434   5.680 -0.1858 -2.3406  2.1515
   19DOPE  H15Y 2441   0.313   3.316   5.612 -0.3753  0.5443 -2.6986
   19DOPE  C316 2442   0.296   3.488   5.492  0.2257  0.0688 -1.0051
   19DOPE  H16X 2443   0.403   3.478   5.462 -0.0832 -1.3073 -1.7538
   19DOPE  H16Y 2444   0.271   3.596   5.490 -0.2315 -0.0473 -1.6265
   19DOPE  C317 2445   0.197   3.418   5.401  0.0898  0.3392  0.7347
   19DOPE  H17X 2446   0.235   3.320   5.368  0.2432  0.7084 -0.2026
   19DOPE  H17Y 2447   0.096   3.415   5.447 -0.9676 -1.6421 -1.5053
   19DOPE  C318 2448   0.186   3.507   5.267 -0.2831  0.2961  0.3009
   19DOPE  H18X 2449   0.149   3.444   5.183  1.2514 -0.6253  0.2711
   19DOPE  H18Y 2450   0.130   3.600   5.290 -3.1722 -1.3509  0.3212
   19DOPE  H18Z 2451   0.290   3.543   5.251  0.0541 -0.3070  1.0820
   20DOPE     N 2452   6.739   7.456   7.129  0.2384  0.0403  0.2162
   20DOPE   HN1 2453   6.664   7.514   7.087  0.8489  0.6092 -0.1098
   20DOPE   HN2 2454   6.702   7.415   7.217  0.2649 -1.8602 -0.5873
   20DOPE   HN3 2455   6.817   7.522   7.148  0.3607  0.6116 -1.9872
   20DOPE   C12 2456   6.788   7.354   7.039 -0.3132 -0.9486  0.0843
   20DOPE  H12A 2457   6.884   7.317   7.080 -0.2569 -0.2476  0.6138
   20DOPE  H12B 2458   6.804   7.406   6.942 -0.2336  1.7252  1.4315
   20DOPE   C11 2459   6.690   7.239   7.007  0.2383  0.0995 -0.2061
   20DOPE  H11A 2460   6.685   7.178   7.100 -1.4268 -0.6162 -0.7319
   20DOPE  H11B 2461   6.740   7.180   6.928  1.2848  1.6715 -0.7513
   20DOPE     P 2462   6.439   7.193   6.960  0.3764 -0.1121 -0.3026
   20DOPE   O13 2463   6.325   7.250   7.030 -0.2792  0.1110  0.2298
   20DOPE   O14 2464   6.483   7.060   6.991  0.2070  0.7432  0.3011
   20DOPE   O11 2465   6.398   7.200   6.811 -0.4320  0.1857  0.0752
   20DOPE   O12 2466   6.562   7.293   6.972  0.1090 -0.3199 -0.3659
   20DOPE    C1 2467   6.495   7.231   6.707  0.1084  0.3145  0.4837
   20DOPE    HA 2468   6.583   7.163   6.708 -0.3808 -0.3899 -0.8786
   20DOPE    HB 2469   6.531   7.335   6.722 -0.8448  0.8811 -0.9489
   20DOPE    C2 2470   6.422   7.243   6.566 -0.1057 -0.0645 -0.3538
   20DOPE    HS 2471   6.504   7.259   6.493  0.1135 -0.8824 -0.2934
   20DOPE   O21 2472   6.337   7.363   6.566  0.1325 -0.1452 -0.3701
   20DOPE   C21 2473   6.338   7.428   6.454 -0.1634  0.1144  0.9411
   20DOPE   O22 2474   6.390   7.390   6.354 -1.0054 -0.1083  0.1957
   20DOPE   C22 2475   6.257   7.557   6.466 -0.2427 -0.2799 -0.7613
   20DOPE   H2R 2476   6.306   7.635   6.528 -1.5466  0.1089 -0.1916
   20DOPE   H2S 2477   6.162   7.528   6.515  0.3990 -1.2118 -0.0233
   20DOPE    C3 2478   6.333   7.122   6.527 -0.0137 -0.1421 -0.0804
   20DOPE    HX 2479   6.236   7.140   6.578  1.0334 -1.3618  2.4952
   20DOPE    HY 2480   6.366   7.025   6.568  0.7435  0.0472 -0.2299
   20DOPE   O31 2481   6.321   7.117   6.385 -0.4616 -0.3849  0.2017
   20DOPE   C31 2482   6.425   7.075   6.322 -0.0783  0.6213  0.1345
   20DOPE   O32 2483   6.526   7.034   6.374  0.5404  0.3974  0.1320
   20DOPE   C32 2484   6.407   7.105   6.173  0.5429  0.0814 -0.2715
   20DOPE   H2X 2485   6.306   7.073   6.141  0.1775  1.7850 -0.9210
   20DOPE   H2Y 2486   6.403   7.215   6.181 -1.9136  0.0598 -0.4434
   20DOPE   C23 2487   6.226   7.613   6.332  0.2006  0.2116 -0.2166
   20DOPE   H3R 2488   6.219   7.539   6.249 -1.8559 -0.4349  0.4531
   20DOPE   H3S 2489   6.289   7.697   6.297 -2.0768  0.4724 -4.2450
   20DOPE   C24 2490   6.082   7.674   6.334 -0.4987 -0.6080  0.0136
   20DOPE   H4R 2491   6.082   7.755   6.409  1.2638  1.4845 -2.0850
   20DOPE   H4S 2492   6.005   7.599   6.364 -2.3406  1.0522 -0.3350
   20DOPE   C25 2493   6.032   7.731   6.199  0.6197 -0.2833  0.1433
   20DOPE   H5R 2494   5.929   7.769   6.217  1.4185  1.5485  1.1296
   20DOPE   H5S 2495   6.030   7.656   6.117 -1.1627  0.0514 -0.1703
   20DOPE   C26 2496   6.110   7.845   6.151 -0.0784 -0.4710 -0.3922
   20DOPE   H6R 2497   6.210   7.803   6.124  1.1726  1.8624  0.2863
   20DOPE   H6S 2498   6.126   7.916   6.235 -0.3361 -0.0458 -0.7025
   20DOPE   C27 2499   6.044   7.928   6.033  0.8713  0.3369  0.4698
   20DOPE   H7R 2500   6.102   8.020   6.008 -0.7180  0.5185 -3.1758
   20DOPE   H7S 2501   5.943   7.959   6.068 -0.7888 -1.0776 -2.6196
   20DOPE   C28 2502   6.018   7.846   5.907 -0.0582  0.8710  0.5905
   20DOPE   H8R 2503   5.933   7.777   5.930  0.4873  0.0078  0.0701
   20DOPE   H8S 2504   6.102   7.775   5.895 -1.1366 -0.2606 -0.7393
   20DOPE   C29 2505   5.989   7.923   5.783  0.0396  0.5802 -0.7127
   20DOPE   H9R 2506   5.903   7.991   5.788 -0.6749 -0.4027  0.7580
   20DOPE  C210 2507   6.053   7.917   5.668 -0.7764  0.4693  0.3861
   20DOPE  H10R 2508   6.035   7.994   5.591  0.6701 -1.0168 -1.5606
   20DOPE  C211 2509   6.165   7.828   5.616  0.0034 -0.2741 -0.0220
   20DOPE  H11R 2510   6.232   7.795   5.698  1.3183  0.8021 -0.6316
   20DOPE  H11S 2511   6.231   7.891   5.554  0.5763  0.5862  1.3945
   20DOPE  C212 2512   6.120   7.712   5.530  0.0517  0.7627  1.5734
   20DOPE  H12R 2513   6.034   7.732   5.464  0.5387 -0.6149  0.4756
   20DOPE  H12S 2514   6.090   7.626   5.594  2.2831 -0.2480  1.3491
   20DOPE  C213 2515   6.230   7.681   5.423  0.3665 -0.4346 -0.3550
   20DOPE  H13R 2516   6.329   7.688   5.472 -0.0232 -1.3923  0.6356
   20DOPE  H13S 2517   6.218   7.765   5.351 -1.8948 -0.4530 -0.0799
   20DOPE  C214 2518   6.223   7.541   5.350 -0.1847  0.0969 -0.7497
   20DOPE  H14R 2519   6.247   7.561   5.243  1.1562  1.2394 -0.2636
   20DOPE  H14S 2520   6.118   7.504   5.349 -0.5250  0.9607  0.8726
   20DOPE  C215 2521   6.317   7.432   5.412 -0.5501 -0.4099  0.5133
   20DOPE  H15R 2522   6.292   7.338   5.360 -0.4924 -0.3569  0.3903
   20DOPE  H15S 2523   6.294   7.425   5.520 -1.7240  1.8310  0.4839
   20DOPE  C216 2524   6.465   7.464   5.382  0.7796  0.3762 -0.7184
   20DOPE  H16R 2525   6.504   7.535   5.457  1.3452 -2.7799  2.2439
   20DOPE  H16S 2526   6.478   7.502   5.279  0.6148  0.0310 -0.8686
   20DOPE  C217 2527   6.563   7.341   5.403 -0.2199 -0.0027  0.5782
   20DOPE  H17R 2528   6.516   7.245   5.376  2.5990 -1.0361 -1.1368
   20DOPE  H17S 2529   6.590   7.338   5.511 -1.2625  0.9261  0.8929
   20DOPE  C218 2530   6.675   7.355   5.309 -0.1828  0.1297  0.4577
   20DOPE  H18R 2531   6.637   7.373   5.206  0.6967  1.0343  0.2818
   20DOPE  H18S 2532   6.737   7.263   5.312 -0.1838  0.0699 -0.7039
   20DOPE  H18T 2533   6.724   7.452   5.331  0.6438 -0.0586 -0.4515
   20DOPE   C33 2534   6.523   7.058   6.085 -1.1130  0.2188 -0.0249
   20DOPE   H3X 2535   6.534   6.948   6.096 -0.0448  0.4170  1.1281
   20DOPE   H3Y 2536   6.623   7.094   6.119 -0.2507 -1.3898 -0.7066
   20DOPE   C34 2537   6.516   7.088   5.932  0.5948  0.4463  0.2346
   20DOPE   H4X 2538   6.518   7.199   5.926  1.2062  0.4392  0.2654
   20DOPE   H4Y 2539   6.611   7.059   5.882 -0.4841 -0.8204 -1.1719
   20DOPE   C35 2540   6.405   7.025   5.849  0.4707  0.4453 -0.6940
   20DOPE   H5X 2541   6.306   7.036   5.899 -0.0915  2.8259 -2.1817
   20DOPE   H5Y 2542   6.434   6.918   5.842  1.0483  0.5879 -0.5259
   20DOPE   C36 2543   6.393   7.071   5.706 -0.3814  0.0734  0.3680
   20DOPE   H6X 2544   6.496   7.057   5.667  0.1773  0.0802  1.7752
   20DOPE   H6Y 2545   6.372   7.180   5.704 -0.8484 -0.0138  0.5005
   20DOPE   C37 2546   6.289   6.990   5.621  0.3220  0.4743 -0.9100
   20DOPE   H7X 2547   6.316   6.882   5.628  1.0083  0.6812 -0.2099
   20DOPE   H7Y 2548   6.190   7.021   5.660  0.0123  0.2909 -1.5434
   20DOPE   C38 2549   6.287   7.034   5.470 -0.4826 -0.4498  0.3762
   20DOPE   H8X 2550   6.275   7.144   5.485 -2.4179 -0.4055 -1.0980
   20DOPE   H8Y 2551   6.198   6.989   5.420 -0.1380 -2.1915  1.2808
   20DOPE   C39 2552   6.404   6.990   5.397 -0.0678  0.2421  0.9986
   20DOPE   H9X 2553   6.485   6.950   5.459 -0.6234 -1.5898  0.5868
   20DOPE  C310 2554   6.413   6.997   5.259  0.9489  0.2558  0.1550
   20DOPE  H10X 2555   6.515   6.995   5.217  1.1247 -0.8003  0.6057
   20DOPE  C311 2556   6.303   7.034   5.159  0.5863 -0.0294 -0.0107
   20DOPE  H11X 2557   6.292   6.952   5.084  0.2970 -1.1351  1.2030
   20DOPE  H11Y 2558   6.199   7.041   5.199  0.0820  0.3857 -1.3299
   20DOPE  C312 2559   6.348   7.160   5.093 -0.1982 -0.1723 -0.6131
   20DOPE  H12X 2560   6.437   7.150   5.028  1.1035  2.9561  0.4987
   20DOPE  H12Y 2561   6.376   7.230   5.175 -0.1594 -1.0081  0.1178
   20DOPE  C313 2562   6.240   7.229   5.004 -0.0764  0.6120 -0.1517
   20DOPE  H13X 2563   6.189   7.151   4.943 -0.2681  0.3032  0.3931
   20DOPE  H13Y 2564   6.160   7.267   5.072 -1.6714  1.6380 -2.5032
   20DOPE  C314 2565   6.284   7.333   4.904 -0.0549 -0.4156  0.1245
   20DOPE  H14X 2566   6.369   7.302   4.839 -0.6649 -0.6418 -0.5794
   20DOPE  H14Y 2567   6.326   7.412   4.969  0.4946  0.8674 -1.7092
   20DOPE  C315 2568   6.168   7.393   4.824  0.1572  0.2787 -0.0871
   20DOPE  H15X 2569   6.197   7.498   4.802 -0.6184  1.1054  2.4494
   20DOPE  H15Y 2570   6.071   7.391   4.879 -1.0613  1.0250 -2.1004
   20DOPE  C316 2571   6.144   7.314   4.695  0.0396 -0.2363 -0.5988
   20DOPE  H16X 2572   6.111   7.210   4.714 -0.4200 -0.0502 -0.3714
   20DOPE  H16Y 2573   6.238   7.305   4.637 -0.2605  0.4160 -1.2074
   20DOPE  C317 2574   6.039   7.380   4.611  0.1801  0.0414 -0.2383
   20DOPE  H17X 2575   5.942   7.388   4.663  0.1641 -0.4640 -0.1921
   20DOPE  H17Y 2576   6.070   7.484   4.583  0.9318 -0.1308 -0.0745
   20DOPE  C318 2577   6.011   7.293   4.484  0.4368 -0.1567  0.2297
   20DOPE  H18X 2578   5.908   7.319   4.451  1.0649  2.4508  0.0372
   20DOPE  H18Y 2579   6.078   7.324   4.401  0.8345  3.5305  1.6870
   20DOPE  H18Z 2580   6.009   7.183   4.499 -2.8957 -0.3805 -1.1736
   21DOPE     N 2581   3.787   7.580   7.607  0.1020 -0.1925  0.4336
   21DOPE   HN1 2582   3.796   7.577   7.710 -3.1444 -1.5162  0.8054
   21DOPE   HN2 2583   3.686   7.576   7.582  0.4227  1.1363 -1.3232
   21DOPE   HN3 2584   3.824   7.498   7.555  2.2228  1.9230 -1.6554
   21DOPE   C12 2585   3.854   7.704   7.558  0.1508  0.2659  0.4140
   21DOPE  H12A 2586   3.963   7.687   7.569  0.2660  0.1701 -0.7217
   21DOPE  H12B 2587   3.809   7.785   7.618 -0.3606  0.2027  0.1293
   21DOPE   C11 2588   3.822   7.734   7.407 -0.5841  0.0939  0.4894
   21DOPE  H11A 2589   3.892   7.809   7.364 -4.1985  1.8525 -3.0607
   21DOPE  H11B 2590   3.720   7.775   7.390 -0.1030  0.7662 -0.9829
   21DOPE     P 2591   3.806   7.597   7.177  0.7645  0.4802 -0.2708
   21DOPE   O13 2592   3.664   7.556   7.164 -0.1427 -0.3677  0.0063
   21DOPE   O14 2593   3.914   7.510   7.129  0.0489 -0.0024  0.4000
   21DOPE   O11 2594   3.819   7.737   7.111 -0.2326  0.0127 -0.3904
   21DOPE   O12 2595   3.831   7.617   7.331  0.3887 -0.5598 -0.1589
   21DOPE    C1 2596   3.716   7.834   7.106  0.1289  0.0148 -0.4009
   21DOPE    HA 2597   3.758   7.937   7.116  0.0895 -0.1828  3.3171
   21DOPE    HB 2598   3.650   7.828   7.195  2.0128 -0.3962  1.0500
   21DOPE    C2 2599   3.625   7.824   6.981 -0.4864 -0.7508 -0.6608
   21DOPE    HS 2600   3.574   7.726   6.991  0.3882 -1.0766  0.9192
   21DOPE   O21 2601   3.707   7.822   6.860 -0.2685  0.0451  0.2245
   21DOPE   C21 2602   3.726   7.701   6.805 -0.3758 -0.2516 -0.5851
   21DOPE   O22 2603   3.682   7.598   6.847 -0.2735  0.7127  0.1274
   21DOPE   C22 2604   3.804   7.720   6.675 -0.3855  0.4664  0.5382
   21DOPE   H2R 2605   3.868   7.804   6.708  1.2852 -1.0960  1.4074
   21DOPE   H2S 2606   3.733   7.758   6.598 -0.3641 -1.0449 -0.2674
   21DOPE    C3 2607   3.529   7.943   6.970  0.4357  0.0482 -0.1829
   21DOPE    HX 2608   3.581   8.037   6.943 -1.8415  1.3773 -0.2167
   21DOPE    HY 2609   3.484   7.958   7.070  0.9735  0.8879 -0.0580
   21DOPE   O31 2610   3.426   7.922   6.871  0.5867 -0.3564  0.0587
   21DOPE   C31 2611   3.331   7.830   6.914  0.2286  0.5722 -0.4685
   21DOPE   O32 2612   3.321   7.782   7.023 -0.1887  0.2381  0.1409
   21DOPE   C32 2613   3.234   7.790   6.803 -0.5841  0.0615  0.5386
   21DOPE   H2X 2614   3.183   7.696   6.833 -1.3693  0.0426 -0.7656
   21DOPE   H2Y 2615   3.156   7.868   6.791 -1.5978 -0.9854  0.1306
   21DOPE   C23 2616   3.879   7.594   6.633  0.3946 -0.1575 -0.2412
   21DOPE   H3R 2617   3.815   7.503   6.640  0.8591 -0.4871 -0.1874
   21DOPE   H3S 2618   3.961   7.588   6.707 -1.0444 -1.3351  1.3280
   21DOPE   C24 2619   3.938   7.601   6.492 -0.3577  0.1432  0.0776
   21DOPE   H4R 2620   3.984   7.700   6.470  0.7549 -0.1797  0.9009
   21DOPE   H4S 2621   3.852   7.606   6.422 -0.5116  3.4215  0.3468
   21DOPE   C25 2622   4.048   7.492   6.465  0.0298  0.4201 -0.4146
   21DOPE   H5R 2623   4.012   7.388   6.482  1.8827 -0.0698  0.8394
   21DOPE   H5S 2624   4.124   7.502   6.545  1.4172  2.9217 -1.9146
   21DOPE   C26 2625   4.106   7.497   6.325 -0.2163 -0.0838  0.0850
   21DOPE   H6R 2626   4.156   7.596   6.328 -1.6824  0.6672  1.6175
   21DOPE   H6S 2627   4.029   7.506   6.245 -0.3679 -0.4056  0.1930
   21DOPE   C27 2628   4.215   7.390   6.287  0.1139  0.7935  0.5083
   21DOPE   H7R 2629   4.159   7.294   6.292  0.1136  0.7549 -0.2105
   21DOPE   H7S 2630   4.298   7.387   6.362  0.7743  1.1608 -0.1904
   21DOPE   C28 2631   4.266   7.400   6.145 -0.0628 -0.2807  0.3848
   21DOPE   H8R 2632   4.174   7.375   6.088  1.0190  1.0748 -2.1349
   21DOPE   H8S 2633   4.342   7.324   6.120  1.0077  0.5577  0.9797
   21DOPE   C29 2634   4.315   7.533   6.097  0.0519  0.3457  0.0064
   21DOPE   H9R 2635   4.228   7.598   6.077  0.8061  1.5285  0.4873
   21DOPE  C210 2636   4.434   7.572   6.061  0.3370 -0.3866 -0.4406
   21DOPE  H10R 2637   4.433   7.676   6.025  0.2197 -0.7033 -1.3747
   21DOPE  C211 2638   4.563   7.489   6.055  0.2728 -0.8931  0.2277
   21DOPE  H11R 2639   4.552   7.379   6.066  2.0877 -1.0176  1.0835
   21DOPE  H11S 2640   4.619   7.522   6.145  1.8444  0.4300 -1.1700
   21DOPE  C212 2641   4.634   7.529   5.928  0.0219  0.4698  0.0936
   21DOPE  H12R 2642   4.740   7.497   5.927 -0.6702 -2.0454 -0.6773
   21DOPE  H12S 2643   4.652   7.638   5.922  1.9567  0.2953  1.6998
   21DOPE  C213 2644   4.581   7.468   5.795  0.5167 -0.4294  0.3848
   21DOPE  H13R 2645   4.472   7.493   5.796  0.9723  2.2369 -2.1319
   21DOPE  H13S 2646   4.597   7.358   5.802 -0.1541 -0.6017 -0.5684
   21DOPE  C214 2647   4.632   7.528   5.662 -0.5546  0.4527 -0.0747
   21DOPE  H14R 2648   4.741   7.504   5.664 -0.7864 -0.6702  1.3990
   21DOPE  H14S 2649   4.619   7.638   5.659  0.5888  0.5990 -0.0952
   21DOPE  C215 2650   4.583   7.475   5.523  0.5067  0.0892  0.0188
   21DOPE  H15R 2651   4.475   7.501   5.511  0.5299 -0.1571 -0.7916
   21DOPE  H15S 2652   4.583   7.364   5.520  0.6958  0.1020 -1.0648
   21DOPE  C216 2653   4.673   7.522   5.409 -0.0845  0.0643  0.5339
   21DOPE  H16R 2654   4.776   7.490   5.434  0.1788  0.0998 -0.4341
   21DOPE  H16S 2655   4.682   7.633   5.403 -0.3638  0.1190  1.0719
   21DOPE  C217 2656   4.628   7.479   5.264  0.5366 -0.4248 -0.2244
   21DOPE  H17R 2657   4.633   7.368   5.251 -1.7854 -1.0314  2.7998
   21DOPE  H17S 2658   4.697   7.531   5.194  2.0846 -1.2310  0.6530
   21DOPE  C218 2659   4.483   7.499   5.226  1.4009 -0.2020 -0.6148
   21DOPE  H18R 2660   4.476   7.503   5.115  1.3965  2.1163 -0.5847
   21DOPE  H18S 2661   4.438   7.589   5.274 -2.0272 -1.4987 -1.1239
   21DOPE  H18T 2662   4.415   7.417   5.256  0.2357 -0.1396 -2.8899
   21DOPE   C33 2663   3.314   7.775   6.669  0.7773 -0.0219  0.1214
   21DOPE   H3X 2664   3.408   7.835   6.665 -0.0018  1.1868 -0.9650
   21DOPE   H3Y 2665   3.246   7.801   6.585 -1.2224 -0.0906  1.6595
   21DOPE   C34 2666   3.365   7.631   6.632 -0.4206  0.3917 -0.2506
   21DOPE   H4X 2667   3.439   7.598   6.709 -1.1914 -2.8699 -0.7670
   21DOPE   H4Y 2668   3.284   7.555   6.628 -0.8794  0.8044  0.7684
   21DOPE   C35 2669   3.439   7.650   6.502 -0.3681 -0.6944  0.1580
   21DOPE   H5X 2670   3.486   7.751   6.499 -0.3545 -0.5672  2.8057
   21DOPE   H5Y 2671   3.369   7.665   6.417 -0.5480  3.8486  0.8663
   21DOPE   C36 2672   3.541   7.534   6.479  0.1809 -0.3397 -0.1756
   21DOPE   H6X 2673   3.557   7.487   6.578  0.4623 -0.8751 -0.4726
   21DOPE   H6Y 2674   3.638   7.579   6.449  1.0459 -1.1301  1.3400
   21DOPE   C37 2675   3.499   7.431   6.379  0.1471 -0.2549  0.5587
   21DOPE   H7X 2676   3.404   7.382   6.407 -2.3501  3.1112 -1.2764
   21DOPE   H7Y 2677   3.473   7.484   6.284  2.6318 -0.5914 -0.3877
   21DOPE   C38 2678   3.604   7.326   6.349 -0.9234 -0.0134 -0.0575
   21DOPE   H8X 2679   3.549   7.234   6.317 -0.4887 -0.7023  1.1099
   21DOPE   H8Y 2680   3.647   7.301   6.448  1.5085 -0.2615 -1.1251
   21DOPE   C39 2681   3.711   7.364   6.247 -0.0502 -0.8511 -0.3235
   21DOPE   H9X 2682   3.802   7.401   6.298  0.3248  0.3019 -1.7749
   21DOPE  C310 2683   3.698   7.373   6.111  0.6456 -0.2654 -0.0843
   21DOPE  H10X 2684   3.785   7.393   6.047  0.6242 -1.2145 -0.4166
   21DOPE  C311 2685   3.566   7.335   6.037  0.1107  0.3938 -0.1571
   21DOPE  H11X 2686   3.590   7.239   5.987 -0.0665  0.4455 -0.3392
   21DOPE  H11Y 2687   3.485   7.313   6.110 -0.0313 -0.5845 -0.5829
   21DOPE  C312 2688   3.522   7.418   5.917  0.6105  0.2341  0.5333
   21DOPE  H12X 2689   3.495   7.522   5.944 -0.9454 -0.1279  0.4506
   21DOPE  H12Y 2690   3.426   7.389   5.871  1.7381  1.5419 -2.9745
   21DOPE  C313 2691   3.624   7.412   5.813 -0.3153 -0.3979  0.2698
   21DOPE  H13X 2692   3.724   7.454   5.839 -0.3803 -0.4403  0.5865
   21DOPE  H13Y 2693   3.639   7.312   5.767  1.6634  0.4170 -1.0070
   21DOPE  C314 2694   3.575   7.507   5.701 -0.2098 -0.0397  0.5243
   21DOPE  H14X 2695   3.589   7.613   5.733 -1.9655 -0.1950  1.8928
   21DOPE  H14Y 2696   3.470   7.488   5.670 -0.3681  0.5507  0.6750
   21DOPE  C315 2697   3.655   7.502   5.571  0.2168 -0.8451  0.8121
   21DOPE  H15X 2698   3.628   7.406   5.522 -0.7840 -1.1128  1.8503
   21DOPE  H15Y 2699   3.762   7.508   5.600 -0.0844  0.2077  1.7679
   21DOPE  C316 2700   3.621   7.621   5.473  0.3514  0.9304  0.1019
   21DOPE  H16X 2701   3.647   7.719   5.519  0.1785  1.7537 -1.5034
   21DOPE  H16Y 2702   3.514   7.604   5.449  0.6521  1.9696 -2.2213
   21DOPE  C317 2703   3.696   7.611   5.338 -0.1567  0.1162  0.1081
   21DOPE  H17X 2704   3.805   7.600   5.354 -0.0822  0.2711 -0.3126
   21DOPE  H17Y 2705   3.658   7.516   5.294 -1.0178  0.4556  0.1012
   21DOPE  C318 2706   3.668   7.726   5.238 -0.5739  0.3726 -0.1611
   21DOPE  H18X 2707   3.681   7.824   5.290  1.3458 -0.1806  0.5037
   21DOPE  H18Y 2708   3.737   7.708   5.153 -0.9302  0.0181 -0.3745
   21DOPE  H18Z 2709   3.562   7.706   5.215 -0.7624 -1.4039  1.8909
   22DOPE     N 2710   0.810   5.853   7.134 -0.3729  0.5254 -0.1809
   22DOPE   HN1 2711   0.909   5.821   7.130 -0.6273 -0.0896 -2.4675
   22DOPE   HN2 2712   0.795   5.910   7.048 -0.6517 -0.3138 -0.6973
   22DOPE   HN3 2713   0.812   5.912   7.220  1.9944 -0.6098  0.6322
   22DOPE   C12 2714   0.715   5.736   7.151  0.1780 -0.6075 -0.4945
   22DOPE  H12A 2715   0.619   5.790   7.132  0.6745  1.8714  3.0151
   22DOPE  H12B 2716   0.703   5.705   7.257 -0.8879  1.2943  0.0068
   22DOPE   C11 2717   0.734   5.622   7.042  1.1621 -0.0311  0.3138
   22DOPE  H11A 2718   0.718   5.685   6.952  1.4055  0.9701  0.9558
   22DOPE  H11B 2719   0.652   5.549   7.061  0.2014  0.6359 -1.1202
   22DOPE     P 2720   0.958   5.520   6.940 -0.6130  0.2415  0.1821
   22DOPE   O13 2721   0.928   5.378   6.940 -0.0378 -0.0326  0.0054
   22DOPE   O14 2722   1.101   5.554   6.960 -0.5689  0.1387 -0.9462
   22DOPE   O11 2723   0.896   5.588   6.810 -0.0837 -0.2199 -0.0458
   22DOPE   O12 2724   0.876   5.584   7.059 -0.1302 -0.1192  0.3573
   22DOPE    C1 2725   0.978   5.688   6.738 -0.4987 -0.4315  0.3690
   22DOPE    HA 2726   1.057   5.744   6.793  0.9450 -2.2681  0.2722
   22DOPE    HB 2727   0.909   5.764   6.695 -0.2320  0.9968  2.2787
   22DOPE    C2 2728   1.050   5.639   6.606 -0.4144  0.4606 -0.0443
   22DOPE    HS 2729   1.028   5.717   6.531 -0.4878  2.5935  2.0540
   22DOPE   O21 2730   1.004   5.502   6.587 -0.2406 -0.6736  0.3508
   22DOPE   C21 2731   0.888   5.484   6.527  0.2717 -0.1317  0.7220
   22DOPE   O22 2732   0.822   5.570   6.469  0.5521 -0.0954  0.2622
   22DOPE   C22 2733   0.843   5.339   6.539  0.5228  0.1154  0.0654
   22DOPE   H2R 2734   0.739   5.336   6.500  1.1722  0.5193 -1.7718
   22DOPE   H2S 2735   0.854   5.312   6.646  2.7297 -0.5882 -0.2897
   22DOPE    C3 2736   1.207   5.637   6.618  0.7162 -0.4956 -0.7215
   22DOPE    HX 2737   1.244   5.574   6.702 -1.5905  0.3149  0.9966
   22DOPE    HY 2738   1.248   5.736   6.648 -1.6481  0.8342 -1.5716
   22DOPE   O31 2739   1.260   5.610   6.486  0.0876 -0.1182  0.1437
   22DOPE   C31 2740   1.291   5.483   6.467 -0.4523 -0.0747 -0.3575
   22DOPE   O32 2741   1.309   5.402   6.560  0.1427 -0.6778  0.4707
   22DOPE   C32 2742   1.304   5.446   6.321  0.4174 -0.1006  0.0583
   22DOPE   H2X 2743   1.204   5.429   6.274 -0.0400 -0.6129  1.1817
   22DOPE   H2Y 2744   1.349   5.536   6.274 -1.7278  0.0572 -1.8376
   22DOPE   C23 2745   0.939   5.244   6.462  0.5317 -0.8593 -0.6534
   22DOPE   H3R 2746   0.934   5.144   6.510 -1.7852 -1.2711 -1.6179
   22DOPE   H3S 2747   1.043   5.282   6.470  0.1728  0.3948 -1.6008
   22DOPE   C24 2748   0.899   5.232   6.317  0.1667 -0.9976 -0.1363
   22DOPE   H4R 2749   0.869   5.330   6.275 -1.2849 -0.8602  1.1375
   22DOPE   H4S 2750   0.811   5.164   6.310  0.3182 -1.1506 -0.5766
   22DOPE   C25 2751   1.006   5.175   6.229 -0.1989  0.1913  0.1964
   22DOPE   H5R 2752   1.034   5.075   6.267 -4.1871 -0.6840  1.3234
   22DOPE   H5S 2753   1.089   5.248   6.240 -0.2038  0.2554 -0.2024
   22DOPE   C26 2754   0.963   5.164   6.085  0.7014 -0.6562 -0.1215
   22DOPE   H6R 2755   0.914   5.258   6.052 -0.4341 -1.2819 -0.2576
   22DOPE   H6S 2756   0.888   5.086   6.062 -1.2651  0.7493  1.2768
   22DOPE   C27 2757   1.076   5.125   5.995 -0.0511 -0.4302  0.4383
   22DOPE   H7R 2758   1.126   5.038   6.040 -1.5428 -1.1681  0.7520
   22DOPE   H7S 2759   1.147   5.210   5.993  0.0341 -0.4559  1.7620
   22DOPE   C28 2760   1.030   5.114   5.853 -0.0208 -0.0266  0.3667
   22DOPE   H8R 2761   0.958   5.191   5.818  0.6042  0.3877 -0.0237
   22DOPE   H8S 2762   0.974   5.020   5.836  1.0991 -0.8024  0.8257
   22DOPE   C29 2763   1.154   5.113   5.763  0.5631 -0.3891 -0.1114
   22DOPE   H9R 2764   1.249   5.084   5.810  1.2643  1.6001 -0.1908
   22DOPE  C210 2765   1.155   5.140   5.633  0.0776 -0.3055 -0.0800
   22DOPE  H10R 2766   1.259   5.141   5.596  0.7474  0.5504  1.7006
   22DOPE  C211 2767   1.039   5.161   5.539  0.2272 -0.2586 -0.1246
   22DOPE  H11R 2768   0.954   5.210   5.590  0.3424  0.8352 -0.9350
   22DOPE  H11S 2769   1.011   5.069   5.484 -0.3189  0.4444 -1.0499
   22DOPE  C212 2770   1.078   5.267   5.425  0.2983  0.5213  0.3186
   22DOPE  H12R 2771   1.165   5.225   5.370 -0.6305  0.0086 -0.8065
   22DOPE  H12S 2772   1.122   5.364   5.458  0.8577  0.3329  0.1307
   22DOPE  C213 2773   0.965   5.292   5.325  0.2817  0.3853  0.5992
   22DOPE  H13R 2774   0.905   5.374   5.371 -0.1098  1.2963 -1.4256
   22DOPE  H13S 2775   0.905   5.200   5.308  1.3725  0.1187 -2.4706
   22DOPE  C214 2776   1.026   5.324   5.190  0.4381 -0.9823  1.2715
   22DOPE  H14R 2777   1.102   5.254   5.150  0.0265 -1.5996  1.5716
   22DOPE  H14S 2778   1.084   5.416   5.212  1.3620 -0.8213 -1.4122
   22DOPE  C215 2779   0.922   5.368   5.084 -0.0610  0.5306  0.3204
   22DOPE  H15R 2780   0.978   5.426   5.007 -0.3242 -2.1383 -2.0656
   22DOPE  H15S 2781   0.839   5.429   5.126  0.7401  1.5390  0.4863
   22DOPE  C216 2782   0.874   5.246   5.003  0.0430  0.0574 -0.0173
   22DOPE  H16R 2783   0.776   5.275   4.959  0.4294  1.1227 -0.2248
   22DOPE  H16S 2784   0.848   5.168   5.077 -1.2302 -0.4480 -0.9701
   22DOPE  C217 2785   0.967   5.188   4.899 -0.2967 -0.2090 -0.4262
   22DOPE  H17R 2786   1.071   5.202   4.934 -0.9671 -0.6858  1.8869
   22DOPE  H17S 2787   0.947   5.234   4.799 -0.1968 -0.4814 -0.5725
   22DOPE  C218 2788   0.950   5.040   4.898  0.2447 -0.7849 -0.0669
   22DOPE  H18R 2789   0.845   5.018   4.868 -0.0292 -1.5124  1.3528
   22DOPE  H18S 2790   0.957   4.994   4.998 -1.0692 -0.3859  0.2247
   22DOPE  H18T 2791   1.014   4.990   4.822  0.3726  1.6384 -1.6829
   22DOPE   C33 2792   1.395   5.319   6.295  0.2553 -0.1014 -0.3161
   22DOPE   H3X 2793   1.338   5.228   6.324  2.7319 -1.9656 -0.8961
   22DOPE   H3Y 2794   1.488   5.330   6.356  2.3946  0.1495 -3.3825
   22DOPE   C34 2795   1.447   5.312   6.153 -0.0715 -0.4028 -0.2382
   22DOPE   H4X 2796   1.367   5.356   6.090  0.5632  1.1600 -0.0039
   22DOPE   H4Y 2797   1.535   5.378   6.144  0.9450 -1.6473  0.3095
   22DOPE   C35 2798   1.475   5.167   6.116 -0.2522 -0.3099  0.1665
   22DOPE   H5X 2799   1.371   5.127   6.115 -0.6797  0.7394 -1.5938
   22DOPE   H5Y 2800   1.542   5.128   6.195  0.5224  1.3536  0.3704
   22DOPE   C36 2801   1.523   5.147   5.978 -0.3874  0.3457  0.0111
   22DOPE   H6X 2802   1.489   5.226   5.909  1.0693 -0.0024 -1.1531
   22DOPE   H6Y 2803   1.495   5.043   5.949  1.6002 -0.9952  2.4259
   22DOPE   C37 2804   1.676   5.154   5.966 -0.6762 -0.7393 -0.5307
   22DOPE   H7X 2805   1.694   5.256   6.005 -0.6954 -0.6847 -0.6629
   22DOPE   H7Y 2806   1.719   5.084   6.040 -1.3318 -0.1539  0.4211
   22DOPE   C38 2807   1.732   5.141   5.826 -0.2472 -0.2603 -0.4835
   22DOPE   H8X 2808   1.831   5.191   5.816  0.2995 -1.2348 -0.1184
   22DOPE   H8Y 2809   1.666   5.200   5.760 -1.7148  1.3596  2.2304
   22DOPE   C39 2810   1.753   4.997   5.783 -0.3778  0.4663  0.3683
   22DOPE   H9X 2811   1.821   4.928   5.836 -0.0251 -1.5785 -2.5232
   22DOPE  C310 2812   1.693   4.938   5.674 -0.6358 -0.6866  0.4518
   22DOPE  H10X 2813   1.707   4.829   5.663 -1.2523 -0.9127  1.7498
   22DOPE  C311 2814   1.584   5.002   5.592 -0.3038 -0.0306 -0.1827
   22DOPE  H11X 2815   1.488   5.013   5.646 -1.0768 -0.8619 -1.3292
   22DOPE  H11Y 2816   1.607   5.108   5.569  1.1814 -0.4082 -0.5595
   22DOPE  C312 2817   1.559   4.933   5.456 -0.2888 -0.8762  0.4999
   22DOPE  H12X 2818   1.540   4.824   5.466  0.1732 -1.0921 -0.7855
   22DOPE  H12Y 2819   1.654   4.948   5.401 -0.1385 -0.6942  0.8063
   22DOPE  C313 2820   1.435   4.985   5.377  0.0033  0.3173  0.8448
   22DOPE  H13X 2821   1.345   4.981   5.443 -0.7981  3.0278  0.0461
   22DOPE  H13Y 2822   1.467   5.091   5.365 -1.3207  0.6101 -0.4658
   22DOPE  C314 2823   1.413   4.922   5.238  0.1715 -0.1576 -0.7050
   22DOPE  H14X 2824   1.381   4.818   5.260  1.5596 -0.5252 -0.3325
   22DOPE  H14Y 2825   1.510   4.931   5.184 -0.6152 -0.2062 -2.1526
   22DOPE  C315 2826   1.299   4.989   5.165  0.7129 -0.1884  0.3120
   22DOPE  H15X 2827   1.290   5.099   5.177 -1.6169 -0.3481  0.4130
   22DOPE  H15Y 2828   1.209   4.950   5.217 -2.3233  4.5656 -0.7328
   22DOPE  C316 2829   1.302   4.961   5.017  0.6349  0.2976  0.0367
   22DOPE  H16X 2830   1.401   4.987   4.974  0.3717 -0.7595 -1.2885
   22DOPE  H16Y 2831   1.217   5.005   4.960  0.6923  0.9414  0.4441
   22DOPE  C317 2832   1.299   4.815   4.977 -0.0803 -0.5869  0.2591
   22DOPE  H17X 2833   1.317   4.820   4.867  2.9741 -2.2338  0.5482
   22DOPE  H17Y 2834   1.390   4.758   5.009  0.3395  0.1559  0.4132
   22DOPE  C318 2835   1.184   4.724   5.024 -0.4863  0.1363  0.4912
   22DOPE  H18X 2836   1.186   4.622   4.981 -2.6238 -1.2360  3.2841
   22DOPE  H18Y 2837   1.180   4.719   5.135 -1.1413 -0.8335  0.4333
   22DOPE  H18Z 2838   1.090   4.773   4.989  0.8932  0.5822 -2.9542
   23DOPE     N 2839   6.541   0.301   6.673  0.4988 -0.9559  0.3918
   23DOPE   HN1 2840   6.450   0.251   6.669 -0.4230  0.7598 -1.6276
   23DOPE   HN2 2841   6.584   0.280   6.580 -0.1057  1.1677 -0.4080
   23DOPE   HN3 2842   6.599   0.250   6.743 -0.1877 -2.8901 -0.3824
   23DOPE   C12 2843   6.514   0.445   6.706  0.5949  0.2820 -0.7440
   23DOPE  H12A 2844   6.448   0.493   6.630  0.1048  0.8313  0.0161
   23DOPE  H12B 2845   6.613   0.495   6.714  1.5510 -1.6204  0.0341
   23DOPE   C11 2846   6.435   0.440   6.843 -0.1173  0.5864  0.6969
   23DOPE  H11A 2847   6.417   0.548   6.863 -3.3530  0.2949 -0.1395
   23DOPE  H11B 2848   6.498   0.391   6.920  1.3726  0.9597 -0.2305
   23DOPE     P 2849   6.174   0.439   6.773  0.3010  0.2904  0.1962
   23DOPE   O13 2850   6.086   0.463   6.883  0.4377 -0.2113  0.0721
   23DOPE   O14 2851   6.128   0.339   6.678 -0.5019  0.4411 -0.1712
   23DOPE   O11 2852   6.206   0.575   6.693 -0.5420  0.0289  0.0628
   23DOPE   O12 2853   6.308   0.379   6.836 -0.2531  0.3555 -0.6044
   23DOPE    C1 2854   6.111   0.685   6.691  0.2170 -0.6851 -0.5530
   23DOPE    HA 2855   6.170   0.773   6.723 -0.1589 -1.3236  2.2049
   23DOPE    HB 2856   6.020   0.671   6.753  0.5443  0.0015  0.1039
   23DOPE    C2 2857   6.056   0.720   6.547  0.2639 -0.1214 -0.2100
   23DOPE    HS 2858   5.957   0.768   6.566  0.2947  0.0389 -0.4541
   23DOPE   O21 2859   6.048   0.602   6.466  0.1235  0.8226 -0.5399
   23DOPE   C21 2860   5.931   0.540   6.472 -0.6936  0.7670  0.1329
   23DOPE   O22 2861   5.831   0.570   6.532 -0.1545 -0.2957 -0.7919
   23DOPE   C22 2862   5.931   0.431   6.366 -1.0064 -0.4127 -0.3740
   23DOPE   H2R 2863   5.933   0.337   6.424  0.3911  0.3752  0.9099
   23DOPE   H2S 2864   6.017   0.445   6.298  0.8246  1.3841  2.1409
   23DOPE    C3 2865   6.138   0.822   6.470  0.1315  0.4445 -0.9516
   23DOPE    HX 2866   6.247   0.797   6.471  0.1034  0.0437  1.7459
   23DOPE    HY 2867   6.136   0.914   6.532  2.0329 -0.7572  1.0770
   23DOPE   O31 2868   6.079   0.839   6.340 -0.3224 -0.2584  0.0642
   23DOPE   C31 2869   6.132   0.770   6.250 -0.4017  0.7482  0.2351
   23DOPE   O32 2870   6.226   0.686   6.262  0.0110 -0.3192 -0.4158
   23DOPE   C32 2871   6.063   0.810   6.121 -0.0843 -0.0152 -0.6819
   23DOPE   H2X 2872   5.965   0.857   6.144 -0.5861 -1.4599  0.3000
   23DOPE   H2Y 2873   6.120   0.896   6.081 -0.2548  1.4957  2.0899
   23DOPE   C23 2874   5.799   0.427   6.287  0.0654 -0.6337 -0.6039
   23DOPE   H3R 2875   5.716   0.380   6.343 -1.6288  1.9128 -0.8378
   23DOPE   H3S 2876   5.813   0.362   6.198 -0.0804 -0.3760 -0.8168
   23DOPE   C24 2877   5.759   0.565   6.227  0.1935 -0.0944  0.1316
   23DOPE   H4R 2878   5.847   0.625   6.195 -0.3716  0.6164 -0.1513
   23DOPE   H4S 2879   5.718   0.632   6.306  2.6296  0.8204  0.6926
   23DOPE   C25 2880   5.655   0.556   6.105 -0.0171 -0.2260 -0.5790
   23DOPE   H5R 2881   5.567   0.500   6.143 -0.3371  0.4721 -0.2711
   23DOPE   H5S 2882   5.707   0.496   6.028 -0.0810 -0.6983 -0.2609
   23DOPE   C26 2883   5.621   0.689   6.045  0.2212 -0.2067 -0.5119
   23DOPE   H6R 2884   5.706   0.759   6.056  1.4158 -1.4570 -1.3975
   23DOPE   H6S 2885   5.535   0.741   6.092  1.3419  2.0598 -0.8474
   23DOPE   C27 2886   5.584   0.670   5.896  0.1871  0.1393  0.0020
   23DOPE   H7R 2887   5.493   0.607   5.890  1.3886 -1.7220  0.5019
   23DOPE   H7S 2888   5.664   0.607   5.852 -0.1688 -2.3884  2.6678
   23DOPE   C28 2889   5.584   0.800   5.820 -0.2339 -0.3109 -0.5444
   23DOPE   H8R 2890   5.589   0.791   5.709  2.5103  0.5555 -0.5610
   23DOPE   H8S 2891   5.667   0.865   5.853 -0.6099 -0.5772  0.9724
   23DOPE   C29 2892   5.456   0.879   5.853  0.3927  0.0266  0.5246
   23DOPE   H9R 2893   5.426   0.862   5.957 -2.7124 -1.1452 -0.4394
   23DOPE  C210 2894   5.382   0.959   5.775  0.7335  0.8861 -0.1953
   23DOPE  H10R 2895   5.283   0.985   5.816  1.6745  1.7520  1.6798
   23DOPE  C211 2896   5.405   0.996   5.629  0.0405  0.2502  0.5141
   23DOPE  H11R 2897   5.332   1.079   5.611 -1.2154 -0.6486  1.2978
   23DOPE  H11S 2898   5.391   0.917   5.553 -5.2537  0.3258  1.0315
   23DOPE  C212 2899   5.546   1.064   5.611  0.7740 -0.6343 -0.2505
   23DOPE  H12R 2900   5.625   0.986   5.605 -0.0382 -1.4542 -0.4571
   23DOPE  H12S 2901   5.562   1.138   5.692 -1.6241 -1.0101  0.6539
   23DOPE  C213 2902   5.541   1.145   5.478  0.4393  0.0942  0.3438
   23DOPE  H13R 2903   5.635   1.204   5.480 -0.1180  1.0215 -0.4587
   23DOPE  H13S 2904   5.457   1.217   5.484  0.9756  0.7186  0.5039
   23DOPE  C214 2905   5.536   1.068   5.340 -0.1314 -0.1371  0.1646
   23DOPE  H14R 2906   5.506   1.136   5.257  1.2206 -0.0205 -0.2570
   23DOPE  H14S 2907   5.458   0.988   5.341 -0.0112 -0.2612 -0.1351
   23DOPE  C215 2908   5.664   0.998   5.301 -0.5050  0.9214  0.2396
   23DOPE  H15R 2909   5.706   0.946   5.389  0.6844  0.5203 -0.5419
   23DOPE  H15S 2910   5.743   1.072   5.277 -0.0752  1.0157  1.8070
   23DOPE  C216 2911   5.646   0.904   5.181 -0.2967  0.2940 -0.4962
   23DOPE  H16R 2912   5.586   0.945   5.098  0.6553  2.0172 -0.3784
   23DOPE  H16S 2913   5.598   0.812   5.223 -3.2024  1.2446 -1.5169
   23DOPE  C217 2914   5.777   0.862   5.109  0.7639 -0.7692 -0.0298
   23DOPE  H17R 2915   5.854   0.822   5.179  0.2352  1.4549  1.9476
   23DOPE  H17S 2916   5.823   0.956   5.070 -1.9193 -0.1770 -2.0424
   23DOPE  C218 2917   5.747   0.772   4.984 -0.0077  0.0934 -0.6628
   23DOPE  H18R 2918   5.705   0.676   5.021 -0.4023  1.1497  1.9051
   23DOPE  H18S 2919   5.841   0.750   4.930  0.7781  1.1023  0.2407
   23DOPE  H18T 2920   5.670   0.816   4.917 -1.3758 -2.2712 -0.7346
   23DOPE   C33 2921   6.048   0.695   6.021  0.0791  0.6852 -0.4253
   23DOPE   H3X 2922   6.002   0.610   6.076  0.0134  1.5667  0.9225
   23DOPE   H3Y 2923   6.153   0.675   5.991 -0.2217  0.2992 -1.2573
   23DOPE   C34 2924   5.962   0.734   5.899  0.3270  0.1441  0.9196
   23DOPE   H4X 2925   5.855   0.747   5.923 -0.4667  1.2328 -2.6327
   23DOPE   H4Y 2926   5.986   0.837   5.865 -0.2296  0.3424  1.1264
   23DOPE   C35 2927   5.985   0.635   5.781  0.0309 -1.0111  0.1430
   23DOPE   H5X 2928   5.960   0.534   5.819 -0.3233 -1.1216 -0.3697
   23DOPE   H5Y 2929   6.095   0.638   5.764  0.3932 -1.8063  2.1755
   23DOPE   C36 2930   5.911   0.679   5.653 -0.7351  0.6171  0.0333
   23DOPE   H6X 2931   5.969   0.771   5.632  1.2348 -0.2840  1.1649
   23DOPE   H6Y 2932   5.805   0.687   5.684 -0.6593 -1.3839  0.9866
   23DOPE   C37 2933   5.930   0.580   5.539 -0.7492  0.3172  0.4046
   23DOPE   H7X 2934   6.037   0.558   5.518 -0.5333  1.8350 -0.2189
   23DOPE   H7Y 2935   5.885   0.486   5.578 -0.9182  0.6739  1.0831
   23DOPE   C38 2936   5.887   0.621   5.401  0.0926  0.0707  0.3628
   23DOPE   H8X 2937   5.953   0.705   5.371 -1.5265  0.5213 -2.2019
   23DOPE   H8Y 2938   5.788   0.671   5.395  0.1813  0.0978 -1.4114
   23DOPE   C39 2939   5.887   0.517   5.291  0.7343  0.3623  0.8615
   23DOPE   H9X 2940   5.949   0.543   5.204 -1.5082 -0.1671 -0.9903
   23DOPE  C310 2941   5.787   0.428   5.269 -0.6938 -0.5675 -1.0346
   23DOPE  H10X 2942   5.786   0.386   5.167  0.1531 -1.6859 -0.5999
   23DOPE  C311 2943   5.659   0.416   5.349  1.0535 -0.3606 -0.1340
   23DOPE  H11X 2944   5.619   0.312   5.357  0.4642 -0.1311 -0.0773
   23DOPE  H11Y 2945   5.677   0.451   5.452 -0.5498 -0.5634  0.2365
   23DOPE  C312 2946   5.556   0.507   5.280 -0.2722  0.1552 -0.2203
   23DOPE  H12X 2947   5.527   0.458   5.184 -3.2932  1.3302  0.0035
   23DOPE  H12Y 2948   5.598   0.607   5.258  1.0953 -0.6157 -1.2927
   23DOPE  C313 2949   5.429   0.514   5.361 -0.3763  0.4157 -0.6805
   23DOPE  H13X 2950   5.389   0.414   5.389 -1.5312  0.8841 -0.5797
   23DOPE  H13Y 2951   5.461   0.565   5.454 -1.2586 -1.5837  0.8188
   23DOPE  C314 2952   5.319   0.603   5.300 -0.0778 -0.2332 -0.0861
   23DOPE  H14X 2953   5.309   0.589   5.190  0.3846  1.6568 -0.3937
   23DOPE  H14Y 2954   5.353   0.708   5.309  0.4094 -0.4493  0.6868
   23DOPE  C315 2955   5.180   0.588   5.365  0.0317 -0.4461 -0.3218
   23DOPE  H15X 2956   5.197   0.603   5.474  0.8452 -0.0852 -0.4905
   23DOPE  H15Y 2957   5.148   0.483   5.347  0.3067 -0.6273  0.2406
   23DOPE  C316 2958   5.068   0.685   5.314  0.0231 -0.0829  0.2467
   23DOPE  H16X 2959   5.027   0.658   5.214 -1.9431  2.9911  0.0757
   23DOPE  H16Y 2960   5.107   0.789   5.320  0.2504 -0.0823 -1.0013
   23DOPE  C317 2961   4.939   0.663   5.400  0.1002  0.3289  0.6258
   23DOPE  H17X 2962   4.930   0.554   5.419 -1.9617  0.4076  0.3250
   23DOPE  H17Y 2963   4.951   0.704   5.503  0.1086  0.3703  0.6084
   23DOPE  C318 2964   4.806   0.706   5.343  0.5550  0.1583  0.6882
   23DOPE  H18X 2965   4.804   0.817   5.338 -0.1800  0.1698  1.1126
   23DOPE  H18Y 2966   4.785   0.663   5.243  1.3475 -0.6009  0.8306
   23DOPE  H18Z 2967   4.739   0.675   5.426  1.3537  1.2668  1.7938
   24DOPE     N 2968   0.073   5.536   6.581  0.0368  0.1220 -0.0644
   24DOPE   HN1 2969   0.142   5.469   6.540 -0.5674 -0.8683  0.4889
   24DOPE   HN2 2970   0.116   5.569   6.670 -0.8895  1.3736 -0.0587
   24DOPE   HN3 2971  -0.003   5.471   6.607  1.8002 -3.1398 -2.2711
   24DOPE   C12 2972   0.024   5.638   6.485  0.0670  0.8837  0.2329
   24DOPE  H12A 2973   0.021   5.592   6.384 -0.3907  0.9601  0.2101
   24DOPE  H12B 2974   0.093   5.724   6.498 -0.0198  1.2790 -1.6082
   24DOPE   C11 2975  -0.121   5.694   6.527  0.8055  0.5864  0.1900
   24DOPE  H11A 2976  -0.198   5.614   6.523 -0.7974  2.0470  0.7021
   24DOPE  H11B 2977  -0.146   5.777   6.457 -0.7718  0.0565  0.0862
   24DOPE     P 2978  -0.088   5.887   6.716  0.0815  0.0363 -0.0466
   24DOPE   O13 2979   0.059   5.918   6.716  0.5446 -0.6148 -0.0337
   24DOPE   O14 2980  -0.161   5.891   6.844 -0.1174 -0.3590 -0.2558
   24DOPE   O11 2981  -0.170   5.972   6.618 -0.5474  0.0377 -0.1514
   24DOPE   O12 2982  -0.123   5.744   6.658  0.4876 -0.0301  0.3464
   24DOPE    C1 2983  -0.266   6.069   6.664 -0.8327 -0.6654  0.3465
   24DOPE    HA 2984  -0.226   6.141   6.739  0.1867 -0.1550 -0.6741
   24DOPE    HB 2985  -0.360   6.017   6.695 -0.7591 -1.5159 -0.8332
   24DOPE    C2 2986  -0.313   6.158   6.542  0.4804 -0.0348  0.0226
   24DOPE    HS 2987  -0.406   6.213   6.567 -0.1041  0.5414 -3.0579
   24DOPE   O21 2988  -0.319   6.078   6.414 -0.7262  0.1130  0.1568
   24DOPE   C21 2989  -0.417   5.999   6.409  0.5403 -0.3133 -0.5494
   24DOPE   O22 2990  -0.509   5.981   6.487 -0.6257  0.9252 -0.5374
   24DOPE   C22 2991  -0.394   5.912   6.285  0.1549 -0.0490 -0.2545
   24DOPE   H2R 2992  -0.461   5.828   6.310 -0.0277 -0.1312 -1.0116
   24DOPE   H2S 2993  -0.294   5.865   6.297  0.1621  0.1125  0.3696
   24DOPE    C3 2994  -0.207   6.280   6.514  0.5416  0.5591  0.1254
   24DOPE    HX 2995  -0.102   6.244   6.512  0.6075  0.5623  2.1207
   24DOPE    HY 2996  -0.213   6.343   6.604  0.4277  0.0978  0.4435
   24DOPE   O31 2997  -0.249   6.358   6.395  0.5531  0.6149  0.1845
   24DOPE   C31 2998  -0.186   6.339   6.285 -0.0524 -0.1201  0.5899
   24DOPE   O32 2999  -0.098   6.259   6.261  0.1821  0.6211  0.9505
   24DOPE   C32 3000  -0.247   6.431   6.174 -0.1286 -1.2161 -0.0781
   24DOPE   H2X 3001  -0.316   6.504   6.221 -1.3054 -1.7358 -0.9377
   24DOPE   H2Y 3002  -0.159   6.479   6.127 -0.2174 -1.1737 -0.2024
   24DOPE   C23 3003  -0.418   5.990   6.155 -0.6750 -0.2442 -0.0953
   24DOPE   H3R 3004  -0.326   6.049   6.133 -1.7769  1.5445 -0.0747
   24DOPE   H3S 3005  -0.499   6.064   6.168 -0.2423 -0.0736  1.9287
   24DOPE   C24 3006  -0.441   5.908   6.035  0.0061 -0.0366  0.5459
   24DOPE   H4R 3007  -0.522   5.836   6.056  2.1298 -2.8025 -0.1698
   24DOPE   H4S 3008  -0.357   5.844   6.001 -0.9814 -0.9838 -0.1682
   24DOPE   C25 3009  -0.477   6.003   5.925  0.3511  0.4753 -0.2072
   24DOPE   H5R 3010  -0.388   6.059   5.889  1.3244 -0.4825  0.6599
   24DOPE   H5S 3011  -0.553   6.077   5.960 -0.5789 -1.5023  2.3147
   24DOPE   C26 3012  -0.533   5.927   5.809 -0.9545 -0.0150  0.5377
   24DOPE   H6R 3013  -0.625   5.886   5.857 -1.0652 -0.8837 -0.3938
   24DOPE   H6S 3014  -0.466   5.843   5.781 -1.1487  0.0238 -0.0555
   24DOPE   C27 3015  -0.565   6.016   5.687 -0.2767 -0.2799 -0.0160
   24DOPE   H7R 3016  -0.596   5.961   5.595 -0.2820  0.1961 -0.2981
   24DOPE   H7S 3017  -0.478   6.084   5.675  0.4418 -1.0845  0.4212
   24DOPE   C28 3018  -0.677   6.114   5.708 -1.1337 -0.6897  0.1908
   24DOPE   H8R 3019  -0.686   6.179   5.618 -4.9233 -2.5163 -0.9803
   24DOPE   H8S 3020  -0.654   6.185   5.790 -0.0719  0.7239 -1.2595
   24DOPE   C29 3021  -0.816   6.050   5.726  0.1530 -0.6222 -0.2421
   24DOPE   H9R 3022  -0.837   5.975   5.648 -0.8391 -1.4168  0.7657
   24DOPE  C210 3023  -0.904   6.065   5.824  0.8491 -0.6481  0.6026
   24DOPE  H10R 3024  -0.985   5.993   5.841 -1.7028  1.7908 -0.5782
   24DOPE  C211 3025  -0.882   6.152   5.943  0.1356 -0.8163 -0.0074
   24DOPE  H11R 3026  -0.780   6.194   5.954 -0.8956  1.2625  2.9870
   24DOPE  H11S 3027  -0.902   6.106   6.043 -1.3807  0.3414  0.2559
   24DOPE  C212 3028  -0.968   6.279   5.933 -0.0620 -0.1640 -0.2450
   24DOPE  H12R 3029  -1.077   6.258   5.934 -0.4058  1.4629 -0.4683
   24DOPE  H12S 3030  -0.943   6.335   5.840 -0.7055 -1.1351 -1.0285
   24DOPE  C213 3031  -0.925   6.366   6.050 -1.2178 -0.3770  0.5077
   24DOPE  H13R 3032  -0.817   6.391   6.051 -0.2798 -3.8949  0.1717
   24DOPE  H13S 3033  -0.942   6.302   6.140 -2.5324  0.7458  1.0918
   24DOPE  C214 3034  -1.009   6.494   6.055  0.4470  0.3754 -0.4862
   24DOPE  H14R 3035  -1.005   6.535   6.158  0.4360 -0.7914 -0.0023
   24DOPE  H14S 3036  -1.114   6.467   6.031  0.5721 -0.6412  0.0473
   24DOPE  C215 3037  -0.971   6.617   5.967  0.0771  0.2631 -0.1946
   24DOPE  H15R 3038  -0.864   6.644   5.970 -0.1536  1.6253 -2.1428
   24DOPE  H15S 3039  -1.025   6.705   6.007 -0.6727 -0.9738  1.6343
   24DOPE  C216 3040  -1.014   6.602   5.821  0.1527 -0.0060  0.0482
   24DOPE  H16R 3041  -1.112   6.549   5.819  0.7598 -1.4118  2.8957
   24DOPE  H16S 3042  -0.942   6.547   5.756  1.5439  1.8906 -0.1128
   24DOPE  C217 3043  -1.021   6.742   5.761  0.3921 -0.3162  0.5666
   24DOPE  H17R 3044  -1.072   6.816   5.826  2.9461  0.5635  1.7037
   24DOPE  H17S 3045  -1.069   6.740   5.661  0.2693 -0.7695  0.6317
   24DOPE  C218 3046  -0.880   6.807   5.746  0.7281 -0.0106 -0.1529
   24DOPE  H18R 3047  -0.812   6.743   5.685  0.8493 -0.4987  0.4872
   24DOPE  H18S 3048  -0.846   6.833   5.848 -3.9457  5.0094  0.5729
   24DOPE  H18T 3049  -0.900   6.897   5.684  0.3528 -0.1911 -0.2951
   24DOPE   C33 3050  -0.328   6.351   6.062  0.1084 -0.3160  0.1199
   24DOPE   H3X 3051  -0.418   6.298   6.102 -1.2782  1.4015 -0.5890
   24DOPE   H3Y 3052  -0.271   6.271   6.011 -0.5024 -0.4607 -0.3488
   24DOPE   C34 3053  -0.382   6.450   5.951 -0.1027 -0.0844 -0.9285
   24DOPE   H4X 3054  -0.392   6.551   5.997 -0.2096 -0.3528 -0.3548
   24DOPE   H4Y 3055  -0.299   6.456   5.877  2.2928 -0.5274  1.5311
   24DOPE   C35 3056  -0.515   6.394   5.906 -0.6830  0.0773 -0.1151
   24DOPE   H5X 3057  -0.583   6.376   5.992  2.9854 -0.2328  2.9791
   24DOPE   H5Y 3058  -0.494   6.291   5.869  2.3095  0.3650  0.4985
   24DOPE   C36 3059  -0.576   6.471   5.789 -0.0374  0.5382 -0.6543
   24DOPE   H6X 3060  -0.588   6.575   5.826  0.1381  0.2769  0.1444
   24DOPE   H6Y 3061  -0.675   6.424   5.772 -0.4953  0.1856  2.5086
   24DOPE   C37 3062  -0.515   6.480   5.645  0.8776 -0.2370  0.1601
   24DOPE   H7X 3063  -0.422   6.540   5.645  0.9792 -0.3377  2.1294
   24DOPE   H7Y 3064  -0.484   6.382   5.603 -1.0953 -0.6256 -0.5101
   24DOPE   C38 3065  -0.618   6.541   5.553 -0.8764 -0.5770  0.6197
   24DOPE   H8X 3066  -0.612   6.648   5.581  3.1882 -0.2539 -0.7642
   24DOPE   H8Y 3067  -0.717   6.502   5.584 -0.2999 -0.7682  2.2811
   24DOPE   C39 3068  -0.582   6.520   5.404 -0.3667 -0.3637  0.5599
   24DOPE   H9X 3069  -0.520   6.594   5.353  0.0897 -1.0856  0.0465
   24DOPE  C310 3070  -0.622   6.428   5.319  0.1652 -0.4412  0.1996
   24DOPE  H10X 3071  -0.599   6.448   5.213  1.9832  1.5969  0.9071
   24DOPE  C311 3072  -0.715   6.315   5.350 -0.2425  0.3305  0.3367
   24DOPE  H11X 3073  -0.758   6.337   5.450 -0.5335 -2.0019  0.7954
   24DOPE  H11Y 3074  -0.806   6.307   5.286 -0.3311 -0.3468  0.5326
   24DOPE  C312 3075  -0.647   6.179   5.351  0.4488 -1.1074 -0.1645
   24DOPE  H12X 3076  -0.705   6.105   5.411 -4.5872  1.5663 -1.1740
   24DOPE  H12Y 3077  -0.552   6.193   5.408 -0.3516 -0.7969  1.1499
   24DOPE  C313 3078  -0.605   6.122   5.219  0.6399  0.0898 -0.3568
   24DOPE  H13X 3079  -0.702   6.091   5.174  0.4457 -1.6189  1.1195
   24DOPE  H13Y 3080  -0.551   6.191   5.150 -1.5618  1.5090 -0.7490
   24DOPE  C314 3081  -0.507   6.000   5.225 -0.0879  0.2201 -1.0299
   24DOPE  H14X 3082  -0.562   5.936   5.297 -1.5973  1.9648 -0.5540
   24DOPE  H14Y 3083  -0.409   6.026   5.270 -0.9821  1.3472  0.3254
   24DOPE  C315 3084  -0.484   5.937   5.093 -0.2854 -0.3215 -0.3374
   24DOPE  H15X 3085  -0.464   6.006   5.009 -0.5685 -0.0298 -0.1691
   24DOPE  H15Y 3086  -0.580   5.891   5.059  0.8440 -2.3287 -0.9918
   24DOPE  C316 3087  -0.391   5.808   5.095 -0.5794  0.7655  0.2924
   24DOPE  H16X 3088  -0.438   5.737   5.166  0.2202 -0.2332 -0.1631
   24DOPE  H16Y 3089  -0.292   5.838   5.135 -0.4268  0.8702 -0.1564
   24DOPE  C317 3090  -0.378   5.730   4.968 -0.1453  0.3194 -0.1494
   24DOPE  H17X 3091  -0.477   5.708   4.924  0.0607  0.7255 -0.8353
   24DOPE  H17Y 3092  -0.330   5.799   4.894  0.3448 -1.8289 -1.9467
   24DOPE  C318 3093  -0.301   5.604   4.976 -0.1437  0.3541 -0.4033
   24DOPE  H18X 3094  -0.280   5.555   4.879 -2.1023 -3.4501  0.8804
   24DOPE  H18Y 3095  -0.203   5.620   5.026 -0.6076  3.2899 -0.2623
   24DOPE  H18Z 3096  -0.356   5.522   5.026  3.6967 -1.9305  0.4811
   25DOPE     N 3097   0.202   5.982   6.960 -0.8913 -0.4361  0.4333
   25DOPE   HN1 3098   0.221   5.884   6.987 -2.2925 -0.7851  0.2120
   25DOPE   HN2 3099   0.149   6.031   7.035  0.7956  1.0159  0.7483
   25DOPE   HN3 3100   0.142   5.969   6.877 -1.9985 -0.9700  1.2890
   25DOPE   C12 3101   0.327   6.063   6.941  0.4833  0.0346  0.5329
   25DOPE  H12A 3102   0.290   6.166   6.922  0.7661  0.0155 -0.1538
   25DOPE  H12B 3103   0.383   6.026   6.853  1.6486  0.2021  1.1842
   25DOPE   C11 3104   0.429   6.061   7.061  0.3126 -0.3058  1.0845
   25DOPE  H11A 3105   0.510   6.132   7.034  0.0935  0.2288  1.7876
   25DOPE  H11B 3106   0.478   5.962   7.069  2.4223  0.4918 -0.7845
   25DOPE     P 3107   0.423   6.085   7.317 -0.0840  0.4288  0.1261
   25DOPE   O13 3108   0.476   5.946   7.323  0.2310 -0.5171 -0.4601
   25DOPE   O14 3109   0.332   6.125   7.424  0.3802  0.0253  0.5722
   25DOPE   O11 3110   0.545   6.186   7.312  0.3825  0.2441 -0.4221
   25DOPE   O12 3111   0.359   6.100   7.179  0.2090  0.4566  0.5430
   25DOPE    C1 3112   0.546   6.325   7.321 -0.2478 -0.1967  0.8871
   25DOPE    HA 3113   0.624   6.344   7.398  2.2574 -0.2203 -1.4624
   25DOPE    HB 3114   0.455   6.382   7.348  0.0414 -0.4578  2.5070
   25DOPE    C2 3115   0.593   6.394   7.189 -0.2986  0.2681 -0.2375
   25DOPE    HS 3116   0.618   6.496   7.225 -0.4606  1.0312 -2.1643
   25DOPE   O21 3117   0.486   6.390   7.093 -0.1601 -0.4689 -0.0015
   25DOPE   C21 3118   0.407   6.500   7.095  0.5037 -0.3493 -0.4563
   25DOPE   O22 3119   0.417   6.585   7.178  0.2664  0.3143  0.0739
   25DOPE   C22 3120   0.306   6.490   6.979  0.5596  0.9552  0.3424
   25DOPE   H2R 3121   0.256   6.588   6.969 -1.5602  0.0763  1.6717
   25DOPE   H2S 3122   0.239   6.404   6.998  3.0775 -1.0549  0.7020
   25DOPE    C3 3123   0.716   6.326   7.126 -0.2793  1.0662  0.7853
   25DOPE    HX 3124   0.687   6.222   7.101  1.2131  0.8427 -0.1137
   25DOPE    HY 3125   0.797   6.313   7.201  1.0749 -1.4519 -1.0076
   25DOPE   O31 3126   0.774   6.402   7.022 -0.8877  0.0440  0.0988
   25DOPE   C31 3127   0.765   6.368   6.891 -0.1571 -0.0524  0.5347
   25DOPE   O32 3128   0.701   6.274   6.842 -0.3774  0.0436  0.2324
   25DOPE   C32 3129   0.851   6.459   6.811  0.0430 -0.4795 -0.1099
   25DOPE   H2X 3130   0.896   6.540   6.872 -0.9649 -0.0476  0.0747
   25DOPE   H2Y 3131   0.945   6.402   6.792 -0.6273 -1.0208 -2.0816
   25DOPE   C23 3132   0.390   6.451   6.860  0.6398  0.3766 -0.1289
   25DOPE   H3R 3133   0.420   6.344   6.855  2.8659  0.8288  1.8434
   25DOPE   H3S 3134   0.480   6.515   6.853 -0.1986  1.5507 -0.4239
   25DOPE   C24 3135   0.312   6.479   6.730  0.2135 -0.0409  0.3036
   25DOPE   H4R 3136   0.261   6.578   6.738 -2.1370 -1.1713  0.0635
   25DOPE   H4S 3137   0.226   6.410   6.743  0.3317 -0.2664 -0.1104
   25DOPE   C25 3138   0.386   6.476   6.601 -0.4345 -0.1521 -0.2701
   25DOPE   H5R 3139   0.428   6.374   6.592  2.1205  0.8947 -0.9180
   25DOPE   H5S 3140   0.473   6.544   6.596 -0.1187 -0.3959  1.2997
   25DOPE   C26 3141   0.301   6.514   6.484 -0.2327 -0.0688  0.9919
   25DOPE   H6R 3142   0.295   6.624   6.498  0.3805  0.4244 -1.9751
   25DOPE   H6S 3143   0.204   6.465   6.507  0.5999 -1.7787  1.0056
   25DOPE   C27 3144   0.355   6.477   6.347 -0.6217  0.0561 -0.3014
   25DOPE   H7R 3145   0.353   6.369   6.322  0.1553  0.2528 -1.2720
   25DOPE   H7S 3146   0.464   6.498   6.346 -0.2754 -1.5909  0.1382
   25DOPE   C28 3147   0.273   6.548   6.232 -0.7193 -0.1783  0.7111
   25DOPE   H8R 3148   0.287   6.654   6.265 -0.0394 -0.5464  1.6412
   25DOPE   H8S 3149   0.166   6.519   6.245 -0.9674  0.8411  1.0761
   25DOPE   C29 3150   0.340   6.532   6.096 -0.6019  0.5434  0.6167
   25DOPE   H9R 3151   0.445   6.563   6.088  1.1064 -4.1606  1.4480
   25DOPE  C210 3152   0.293   6.460   5.988  0.0795 -0.4224  0.2201
   25DOPE  H10R 3153   0.359   6.446   5.901  1.1933 -1.2099  1.1370
   25DOPE  C211 3154   0.157   6.403   5.970 -0.0234  0.5450 -0.0008
   25DOPE  H11R 3155   0.113   6.409   6.072  0.8931  0.6974  0.3943
   25DOPE  H11S 3156   0.157   6.297   5.936 -1.0075  0.4866  0.1366
   25DOPE  C212 3157   0.056   6.476   5.874  0.0875 -0.1539 -0.1501
   25DOPE  H12R 3158   0.035   6.580   5.908  0.8265 -0.0240 -0.0814
   25DOPE  H12S 3159  -0.044   6.428   5.883  1.2125 -2.7747 -0.7683
   25DOPE  C213 3160   0.120   6.468   5.728  0.3904 -0.0665 -0.3457
   25DOPE  H13R 3161   0.146   6.364   5.698  1.1374 -0.1249  0.4547
   25DOPE  H13S 3162   0.219   6.518   5.724  0.5897 -0.5233 -1.6432
   25DOPE  C214 3163   0.052   6.550   5.620  0.8728  0.1116  0.7659
   25DOPE  H14R 3164   0.064   6.658   5.641 -0.6037  0.9843 -2.2220
   25DOPE  H14S 3165  -0.058   6.538   5.616  1.0995 -2.1570 -0.1753
   25DOPE  C215 3166   0.121   6.524   5.480 -0.2116 -0.2878 -0.7066
   25DOPE  H15R 3167   0.148   6.419   5.457 -0.2741  0.1589 -2.9800
   25DOPE  H15S 3168   0.221   6.572   5.478 -1.0670  1.5350 -1.5941
   25DOPE  C216 3169   0.043   6.589   5.376 -0.2080 -0.2621 -0.0674
   25DOPE  H16R 3170   0.042   6.700   5.379 -4.7368 -0.1472  1.7267
   25DOPE  H16S 3171  -0.063   6.557   5.366 -0.1731 -0.1476 -0.8496
   25DOPE  C217 3172   0.118   6.545   5.248 -0.1465 -0.5647  0.0829
   25DOPE  H17R 3173   0.113   6.434   5.242 -2.8684 -0.5563  0.8819
   25DOPE  H17S 3174   0.218   6.592   5.252 -0.4760  0.1214  0.3427
   25DOPE  C218 3175   0.042   6.587   5.123  0.1561 -0.3776 -0.1761
   25DOPE  H18R 3176   0.024   6.696   5.134  1.0739 -0.0637 -1.5521
   25DOPE  H18S 3177  -0.059   6.541   5.125 -1.1673  2.0973 -2.8348
   25DOPE  H18T 3178   0.092   6.571   5.025  0.3248  2.6218 -0.6690
   25DOPE   C33 3179   0.785   6.516   6.684  0.3087 -0.2143  0.1017
   25DOPE   H3X 3180   0.757   6.620   6.712 -1.0656 -0.3945 -0.5332
   25DOPE   H3Y 3181   0.692   6.464   6.653  0.6441  0.1576 -1.6447
   25DOPE   C34 3182   0.868   6.523   6.557 -0.5034 -0.7227 -0.1328
   25DOPE   H4X 3183   0.907   6.625   6.534 -0.5204 -0.8472 -0.7190
   25DOPE   H4Y 3184   0.953   6.453   6.572  1.9208  2.0685  0.0268
   25DOPE   C35 3185   0.783   6.487   6.436 -0.7337 -0.3077  0.9043
   25DOPE   H5X 3186   0.701   6.562   6.434  1.6761  2.6040 -2.9985
   25DOPE   H5Y 3187   0.758   6.379   6.435  2.5514 -1.1751  0.0772
   25DOPE   C36 3188   0.850   6.500   6.297  0.3334  0.0845  0.2954
   25DOPE   H6X 3189   0.931   6.424   6.292  0.1947 -0.0059 -0.5950
   25DOPE   H6Y 3190   0.876   6.604   6.271 -1.5800  0.4894 -0.1146
   25DOPE   C37 3191   0.755   6.469   6.181  0.3688 -0.2821  0.8236
   25DOPE   H7X 3192   0.694   6.380   6.207 -2.0432  0.3251 -2.2274
   25DOPE   H7Y 3193   0.693   6.561   6.180  1.0438  0.1806  0.8629
   25DOPE   C38 3194   0.822   6.451   6.050 -0.6548  0.0830  0.0227
   25DOPE   H8X 3195   0.903   6.377   6.068  0.0301  1.1428  1.5499
   25DOPE   H8Y 3196   0.878   6.542   6.019  2.0572 -2.1707 -2.2320
   25DOPE   C39 3197   0.728   6.404   5.944  1.0913  0.6389 -0.3990
   25DOPE   H9X 3198   0.642   6.469   5.921 -2.1471 -3.4202 -0.9172
   25DOPE  C310 3199   0.719   6.279   5.881  0.2669 -0.0790 -0.5585
   25DOPE  H10X 3200   0.649   6.269   5.796  1.0238  1.6499 -1.4525
   25DOPE  C311 3201   0.810   6.160   5.901  0.3008 -0.7184  0.7597
   25DOPE  H11X 3202   0.876   6.174   5.990 -0.2161  1.2968  0.8887
   25DOPE  H11Y 3203   0.743   6.075   5.926 -3.5835  2.1841  1.1867
   25DOPE  C312 3204   0.909   6.135   5.775  0.2312 -0.2734 -0.2268
   25DOPE  H12X 3205   0.938   6.227   5.722  3.1683 -2.1073 -2.0749
   25DOPE  H12Y 3206   0.866   6.061   5.704  1.5133 -0.8294 -0.4548
   25DOPE  C313 3207   1.040   6.078   5.825 -0.4742  0.4813 -0.8526
   25DOPE  H13X 3208   1.085   6.151   5.896  0.7711  0.1271 -1.2409
   25DOPE  H13Y 3209   1.030   5.985   5.883  2.7213  1.7125  2.0476
   25DOPE  C314 3210   1.144   6.054   5.705 -0.6161 -0.1182  0.5167
   25DOPE  H14X 3211   1.093   6.000   5.623 -0.3825 -0.5297  0.6411
   25DOPE  H14Y 3212   1.226   5.983   5.728 -0.5022  0.7390  3.0736
   25DOPE  C315 3213   1.201   6.183   5.648  0.0200 -0.7627 -0.1545
   25DOPE  H15X 3214   1.244   6.235   5.736  0.6644  1.6013 -1.7871
   25DOPE  H15Y 3215   1.118   6.253   5.624  0.7859  0.1999 -0.0452
   25DOPE  C316 3216   1.308   6.177   5.543 -0.3847 -0.1904 -0.0568
   25DOPE  H16X 3217   1.305   6.071   5.508 -1.2442 -0.5536  1.0848
   25DOPE  H16Y 3218   1.403   6.182   5.600 -1.0867 -1.3621  1.2717
   25DOPE  C317 3219   1.298   6.287   5.436 -0.0017  0.3626  0.5167
   25DOPE  H17X 3220   1.197   6.291   5.390  0.2218 -1.1137 -0.1345
   25DOPE  H17Y 3221   1.331   6.381   5.486  2.2119  1.3878 -2.5638
   25DOPE  C318 3222   1.397   6.251   5.327  0.0795  0.3027  0.6140
   25DOPE  H18X 3223   1.397   6.328   5.247 -0.3649 -1.1634 -0.8684
   25DOPE  H18Y 3224   1.498   6.227   5.366  0.3601  0.5805  0.0572
   25DOPE  H18Z 3225   1.364   6.160   5.272  1.8261  0.3407 -0.5758
   26DOPE     N 3226   1.507   7.406   7.471  0.2072 -0.7754 -0.2162
   26DOPE   HN1 3227   1.411   7.397   7.509  1.0418  0.1087  2.3766
   26DOPE   HN2 3228   1.566   7.447   7.547  2.7415 -1.7514 -1.5428
   26DOPE   HN3 3229   1.515   7.470   7.390  1.7024 -1.7664 -0.9096
   26DOPE   C12 3230   1.545   7.266   7.422 -0.4344 -0.0568 -0.3362
   26DOPE  H12A 3231   1.516   7.195   7.502 -1.8958 -0.7364 -1.4271
   26DOPE  H12B 3232   1.655   7.264   7.412 -0.2361 -0.4551  1.5993
   26DOPE   C11 3233   1.485   7.223   7.289 -0.1787  0.5250  0.3992
   26DOPE  H11A 3234   1.531   7.125   7.268 -3.1861 -1.0070  0.3193
   26DOPE  H11B 3235   1.501   7.291   7.203 -1.1934  0.5978  0.2520
   26DOPE     P 3236   1.279   7.074   7.277 -0.3029 -0.2433 -0.4909
   26DOPE   O13 3237   1.138   7.090   7.251 -0.6199 -0.1293  0.3038
   26DOPE   O14 3238   1.312   6.999   7.403 -0.3119  0.3251 -0.5619
   26DOPE   O11 3239   1.356   7.018   7.154 -0.2372  0.1876 -0.1872
   26DOPE   O12 3240   1.343   7.214   7.303  0.3912  0.1024  0.2810
   26DOPE    C1 3241   1.326   7.062   7.021 -0.0919 -0.2803 -0.1459
   26DOPE    HA 3242   1.424   7.075   6.970 -0.0536 -0.3423 -0.0877
   26DOPE    HB 3243   1.285   7.165   7.012  2.2290  0.6136 -1.2479
   26DOPE    C2 3244   1.239   6.959   6.946  0.3343 -0.3249  0.8843
   26DOPE    HS 3245   1.151   6.942   7.012 -1.9987  1.3998 -1.5951
   26DOPE   O21 3246   1.312   6.834   6.919 -0.2031 -0.6787  0.1490
   26DOPE   C21 3247   1.227   6.727   6.912 -0.0618 -0.1765 -0.3394
   26DOPE   O22 3248   1.111   6.725   6.941  0.1566 -0.5155 -0.2220
   26DOPE   C22 3249   1.297   6.618   6.834  0.2104 -1.3029  0.2749
   26DOPE   H2R 3250   1.381   6.572   6.890  3.5011  2.6175 -0.9421
   26DOPE   H2S 3251   1.340   6.671   6.746  1.6413 -0.9274  1.1666
   26DOPE    C3 3252   1.194   7.022   6.813 -0.4285 -0.1218 -0.2963
   26DOPE    HX 3253   1.287   7.041   6.755  0.3989 -1.5508  0.4934
   26DOPE    HY 3254   1.147   7.121   6.832 -0.2278  0.2540 -1.6649
   26DOPE   O31 3255   1.108   6.930   6.740 -0.4420 -0.2973 -0.6428
   26DOPE   C31 3256   0.978   6.954   6.762 -0.0445 -0.4334  0.3640
   26DOPE   O32 3257   0.923   7.023   6.844  0.0128 -0.5475  0.4923
   26DOPE   C32 3258   0.897   6.874   6.660 -0.8873 -0.4057 -0.4123
   26DOPE   H2X 3259   0.956   6.792   6.613  0.0314  0.2386 -0.4005
   26DOPE   H2Y 3260   0.809   6.835   6.716  0.1955  0.9468  2.4296
   26DOPE   C23 3261   1.199   6.518   6.778  0.2320 -0.4171 -0.0871
   26DOPE   H3R 3262   1.114   6.558   6.718  1.0480  0.9792 -0.3415
   26DOPE   H3S 3263   1.147   6.464   6.860 -1.1399 -1.5557 -1.6265
   26DOPE   C24 3264   1.274   6.416   6.685 -0.4657 -0.1706 -0.0975
   26DOPE   H4R 3265   1.206   6.330   6.665 -2.6270  0.8227  2.3237
   26DOPE   H4S 3266   1.346   6.358   6.747  1.4033  0.2253 -1.8266
   26DOPE   C25 3267   1.352   6.466   6.557  0.1996 -0.0033  0.0905
   26DOPE   H5R 3268   1.404   6.379   6.511  1.0724 -1.2636  3.2121
   26DOPE   H5S 3269   1.434   6.535   6.583  0.7593 -0.0754 -1.3879
   26DOPE   C26 3270   1.272   6.550   6.459  0.5864 -0.0395  1.2509
   26DOPE   H6R 3271   1.221   6.638   6.506 -2.6194 -0.9801 -0.2086
   26DOPE   H6S 3272   1.191   6.488   6.417 -0.2823  0.2008  2.4978
   26DOPE   C27 3273   1.364   6.597   6.343  0.0910 -0.1034 -0.4780
   26DOPE   H7R 3274   1.412   6.514   6.288  1.6247  0.9466 -0.7801
   26DOPE   H7S 3275   1.447   6.660   6.380 -0.4041  0.2860 -0.0021
   26DOPE   C28 3276   1.280   6.687   6.246  0.1817  1.3549  0.5663
   26DOPE   H8R 3277   1.353   6.760   6.204 -0.6193  1.3726 -0.8596
   26DOPE   H8S 3278   1.203   6.756   6.288 -0.4862  0.5787  0.6407
   26DOPE   C29 3279   1.230   6.607   6.126  0.1128 -0.6060 -0.8338
   26DOPE   H9R 3280   1.194   6.507   6.155  0.5984 -0.3288  0.8271
   26DOPE  C210 3281   1.273   6.611   6.001  0.2126  0.0231 -0.5787
   26DOPE  H10R 3282   1.225   6.536   5.937 -1.9867  0.4659  0.4233
   26DOPE  C211 3283   1.358   6.718   5.937 -0.0557  0.3699 -0.4253
   26DOPE  H11R 3284   1.461   6.677   5.937 -0.5258 -0.9658  1.4381
   26DOPE  H11S 3285   1.351   6.814   5.993  0.3070 -0.0274  0.3311
   26DOPE  C212 3286   1.315   6.743   5.786 -0.7765  0.6031 -0.0015
   26DOPE  H12R 3287   1.346   6.849   5.768  1.0298  0.2346  0.7017
   26DOPE  H12S 3288   1.204   6.742   5.779 -0.8149  0.9650  0.4809
   26DOPE  C213 3289   1.375   6.645   5.687  0.6307  0.0768  0.1019
   26DOPE  H13R 3290   1.319   6.551   5.708 -2.2575  1.3209 -1.4543
   26DOPE  H13S 3291   1.483   6.640   5.712  0.4617  0.0176  0.8441
   26DOPE  C214 3292   1.342   6.679   5.541  0.0250  0.2564  0.0924
   26DOPE  H14R 3293   1.407   6.607   5.487 -2.0758 -1.4957 -0.2688
   26DOPE  H14S 3294   1.376   6.779   5.510 -1.3466  0.9762  0.8085
   26DOPE  C215 3295   1.193   6.653   5.499 -0.4251  0.2704 -0.1844
   26DOPE  H15R 3296   1.125   6.724   5.551  0.4089  2.0060 -1.3557
   26DOPE  H15S 3297   1.163   6.553   5.538  0.4601 -0.2342 -0.7529
   26DOPE  C216 3298   1.178   6.662   5.352 -0.3157 -0.3866  0.1365
   26DOPE  H16R 3299   1.245   6.588   5.303  2.6092  2.0295  0.2401
   26DOPE  H16S 3300   1.211   6.761   5.314 -0.1847 -0.5950 -0.2977
   26DOPE  C217 3301   1.032   6.645   5.302 -0.0595 -0.0357 -0.3854
   26DOPE  H17R 3302   1.031   6.662   5.192 -1.2920 -0.3320 -0.4366
   26DOPE  H17S 3303   0.965   6.721   5.348  0.5359  0.2004  0.1055
   26DOPE  C218 3304   0.969   6.513   5.337 -0.3383 -0.0726  0.1015
   26DOPE  H18R 3305   1.046   6.439   5.307 -1.1667  0.4261 -3.7941
   26DOPE  H18S 3306   0.883   6.489   5.270 -0.7655  1.2315  0.1504
   26DOPE  H18T 3307   0.946   6.507   5.445  0.6822 -1.4245  0.2648
   26DOPE   C33 3308   0.843   6.968   6.550 -0.7607 -0.1690 -0.2783
   26DOPE   H3X 3309   0.924   7.035   6.515 -0.6987 -0.8765 -1.5082
   26DOPE   H3Y 3310   0.759   7.036   6.579 -0.8848  0.3575 -1.7815
   26DOPE   C34 3311   0.807   6.893   6.421  0.0344 -0.6235 -0.2978
   26DOPE   H4X 3312   0.900   6.836   6.400  0.4922  0.0668 -0.1733
   26DOPE   H4Y 3313   0.718   6.828   6.439 -1.4926  2.0357  2.7117
   26DOPE   C35 3314   0.775   6.989   6.302  0.3664  0.4371 -1.0025
   26DOPE   H5X 3315   0.849   7.070   6.314  0.3340  0.5578 -1.5851
   26DOPE   H5Y 3316   0.679   7.043   6.315  0.2349 -0.2069  1.0811
   26DOPE   C36 3317   0.773   6.917   6.167 -0.0130  0.0364  0.4848
   26DOPE   H6X 3318   0.707   6.968   6.093 -0.3628  1.0664  1.4645
   26DOPE   H6Y 3319   0.725   6.818   6.180  0.8071 -0.6896 -1.6267
   26DOPE   C37 3320   0.911   6.887   6.111 -0.8402 -1.2340  0.1318
   26DOPE   H7X 3321   0.977   6.976   6.105 -3.1872  0.5191 -3.8447
   26DOPE   H7Y 3322   0.958   6.810   6.177 -2.1295 -0.6247  1.8281
   26DOPE   C38 3323   0.907   6.819   5.967  0.4074 -0.4139  0.0784
   26DOPE   H8X 3324   0.830   6.740   5.979 -0.6790  0.3405 -1.6502
   26DOPE   H8Y 3325   1.005   6.773   5.946  0.7309  0.0201  0.6078
   26DOPE   C39 3326   0.870   6.917   5.853 -0.1166 -0.1574 -0.1706
   26DOPE   H9X 3327   0.898   7.022   5.867  0.4418 -0.3472  0.1690
   26DOPE  C310 3328   0.823   6.880   5.739  0.4735  0.0986  0.4016
   26DOPE  H10X 3329   0.814   6.955   5.659  3.1839 -0.0707 -0.1811
   26DOPE  C311 3330   0.786   6.739   5.696 -0.4302  0.6995  0.5361
   26DOPE  H11X 3331   0.842   6.709   5.605 -1.4375 -0.8001  0.3782
   26DOPE  H11Y 3332   0.812   6.660   5.770  0.0897 -0.0987 -0.4668
   26DOPE  C312 3333   0.633   6.719   5.668  0.3423 -0.2134 -0.1869
   26DOPE  H12X 3334   0.590   6.793   5.597  1.0777 -1.9802 -2.6148
   26DOPE  H12Y 3335   0.587   6.744   5.766  0.8279 -0.5800  0.1451
   26DOPE  C313 3336   0.582   6.582   5.624  0.3547 -0.9483  0.2607
   26DOPE  H13X 3337   0.612   6.507   5.700  1.5603 -2.2620 -1.4115
   26DOPE  H13Y 3338   0.471   6.577   5.624  0.2238  0.7241  2.1500
   26DOPE  C314 3339   0.628   6.557   5.482  0.4161 -0.4180  0.0759
   26DOPE  H14X 3340   0.739   6.556   5.476  0.5732  3.0561  0.4917
   26DOPE  H14Y 3341   0.584   6.638   5.421  0.4203  0.6914  1.5096
   26DOPE  C315 3342   0.571   6.429   5.427  0.2330  0.1964 -0.2586
   26DOPE  H15X 3343   0.604   6.425   5.321  0.2748  1.8654 -0.3238
   26DOPE  H15Y 3344   0.461   6.422   5.438  0.1782  1.2083 -0.0937
   26DOPE  C316 3345   0.624   6.297   5.483  0.5488 -0.0310 -0.0241
   26DOPE  H16X 3346   0.563   6.284   5.575 -3.0146 -1.6970 -2.3715
   26DOPE  H16Y 3347   0.732   6.297   5.507  0.5143 -3.0371  0.5650
   26DOPE  C317 3348   0.579   6.179   5.392  0.1692  0.1181 -0.2595
   26DOPE  H17X 3349   0.473   6.188   5.361 -0.1133 -0.1279  0.6006
   26DOPE  H17Y 3350   0.643   6.191   5.302  0.7572 -0.1063  0.1204
   26DOPE  C318 3351   0.617   6.047   5.460 -0.0593  0.5055 -0.2010
   26DOPE  H18X 3352   0.560   6.041   5.555 -1.9820  0.9922 -1.2763
   26DOPE  H18Y 3353   0.588   5.959   5.399  1.4959 -0.3459  0.2560
   26DOPE  H18Z 3354   0.726   6.038   5.477  0.2832 -1.0444 -2.7412
   27DOPE     N 3355   7.296   0.994   6.925 -0.2482 -0.0990 -0.0425
   27DOPE   HN1 3356   7.375   0.926   6.923  0.1313  0.3319 -0.0001
   27DOPE   HN2 3357   7.269   1.021   6.828  2.4157  2.9757 -0.1220
   27DOPE   HN3 3358   7.338   1.085   6.954  1.2721  0.2547 -2.8833
   27DOPE   C12 3359   7.170   0.961   6.992 -0.4434  0.2975 -0.1973
   27DOPE  H12A 3360   7.113   1.056   7.006 -0.0570  0.4330  0.4836
   27DOPE  H12B 3361   7.190   0.921   7.094  0.2578 -0.8329 -0.7594
   27DOPE   C11 3362   7.074   0.868   6.923 -0.3951  0.6611 -0.4253
   27DOPE  H11A 3363   7.029   0.914   6.833  0.2374  2.0105 -0.0690
   27DOPE  H11B 3364   6.993   0.846   6.996 -0.3207 -3.3179 -1.2927
   27DOPE     P 3365   7.100   0.602   6.927  0.0840 -0.0588  0.2088
   27DOPE   O13 3366   6.972   0.581   6.858 -0.4186 -0.4473  0.0821
   27DOPE   O14 3367   7.094   0.582   7.073 -0.2515 -0.2573  0.1157
   27DOPE   O11 3368   7.212   0.505   6.863 -0.3594  0.9922  0.1235
   27DOPE   O12 3369   7.146   0.749   6.885  0.2548 -0.2169  0.0886
   27DOPE    C1 3370   7.346   0.553   6.847  0.1722 -0.4697  0.0489
   27DOPE    HA 3371   7.415   0.488   6.906 -0.1619 -2.6363 -1.8344
   27DOPE    HB 3372   7.362   0.659   6.877 -2.8749  0.3528 -0.8713
   27DOPE    C2 3373   7.389   0.539   6.704  0.6823  0.0024  0.2783
   27DOPE    HS 3374   7.496   0.569   6.704  0.5471  0.5252  1.2088
   27DOPE   O21 3375   7.303   0.626   6.621 -0.3880  0.2768 -0.3470
   27DOPE   C21 3376   7.339   0.747   6.610 -0.4495  0.3048  0.0671
   27DOPE   O22 3377   7.451   0.789   6.629  0.1404  0.3503 -0.0836
   27DOPE   C22 3378   7.235   0.812   6.528  0.4128 -0.4798 -0.0486
   27DOPE   H2R 3379   7.146   0.842   6.588  0.5211 -1.4655  0.6411
   27DOPE   H2S 3380   7.204   0.742   6.447 -0.3335  1.8084 -1.8538
   27DOPE    C3 3381   7.396   0.396   6.646  0.3589 -0.2214  0.0186
   27DOPE    HX 3382   7.294   0.352   6.647  0.7808 -1.3233 -1.5322
   27DOPE    HY 3383   7.459   0.333   6.712  0.4584  1.9052  2.0967
   27DOPE   O31 3384   7.444   0.398   6.505  0.0355 -0.1873 -0.5534
   27DOPE   C31 3385   7.569   0.410   6.488  0.3717 -0.7494  0.0058
   27DOPE   O32 3386   7.659   0.422   6.572  0.7866  0.1699  0.3203
   27DOPE   C32 3387   7.593   0.386   6.343 -0.4550 -0.6844  0.2525
   27DOPE   H2X 3388   7.595   0.275   6.337  0.0306 -0.6269 -0.9772
   27DOPE   H2Y 3389   7.511   0.431   6.282 -1.8158 -2.6922  0.4825
   27DOPE   C23 3390   7.291   0.943   6.469  0.7876  1.0887 -0.1981
   27DOPE   H3R 3391   7.379   0.922   6.405  1.6243  1.0249  0.9437
   27DOPE   H3S 3392   7.330   1.009   6.549  0.8684  0.2107  0.5104
   27DOPE   C24 3393   7.193   1.023   6.381  0.4120 -0.0125 -0.9723
   27DOPE   H4R 3394   7.246   1.118   6.359  0.1088  0.4093  0.0836
   27DOPE   H4S 3395   7.102   1.041   6.442  2.5147 -1.0608  2.7959
   27DOPE   C25 3396   7.149   0.959   6.254 -0.0549  0.0342  0.0546
   27DOPE   H5R 3397   7.101   0.865   6.288  2.2350 -0.8792  1.0160
   27DOPE   H5S 3398   7.244   0.937   6.201  1.2020  3.2334  0.7112
   27DOPE   C26 3399   7.047   1.053   6.180 -0.1807  0.8389 -0.7929
   27DOPE   H6R 3400   7.102   1.149   6.192  0.8657  0.1986 -0.3092
   27DOPE   H6S 3401   6.953   1.072   6.237 -0.2868  2.7938 -1.5126
   27DOPE   C27 3402   7.025   1.026   6.035 -0.2856 -0.1295 -0.1035
   27DOPE   H7R 3403   6.958   0.938   6.031  3.5086 -3.3429  0.5987
   27DOPE   H7S 3404   7.123   1.002   5.986  0.5128 -0.5909  1.6438
   27DOPE   C28 3405   6.962   1.154   5.970 -0.7820  0.1192 -0.1942
   27DOPE   H8R 3406   7.038   1.231   5.945 -0.5598 -0.1063 -0.2206
   27DOPE   H8S 3407   6.887   1.202   6.037 -0.0697  1.6074 -0.4379
   27DOPE   C29 3408   6.890   1.115   5.842  0.5493 -0.0909  0.4388
   27DOPE   H9R 3409   6.865   1.011   5.819 -1.3309  0.1720  1.1198
   27DOPE  C210 3410   6.835   1.208   5.757  0.2722  0.1642 -0.9258
   27DOPE  H10R 3411   6.777   1.175   5.670  0.4217 -0.9620 -0.6143
   27DOPE  C211 3412   6.825   1.358   5.786 -0.4082 -0.2315 -0.1804
   27DOPE  H11R 3413   6.823   1.379   5.895 -1.0350 -0.5292 -0.1315
   27DOPE  H11S 3414   6.725   1.389   5.749  0.5240 -0.5125 -3.2063
   27DOPE  C212 3415   6.927   1.451   5.711 -0.3175 -0.0206 -0.2442
   27DOPE  H12R 3416   7.020   1.434   5.769  1.0901  0.7938 -2.1717
   27DOPE  H12S 3417   6.900   1.558   5.728  0.0330 -0.0812  0.7800
   27DOPE  C213 3418   6.941   1.431   5.560  0.4511 -0.0723 -0.4892
   27DOPE  H13R 3419   6.857   1.369   5.524  0.2938  0.4507 -1.0362
   27DOPE  H13S 3420   7.029   1.364   5.547  0.2834 -1.2127  3.1366
   27DOPE  C214 3421   6.968   1.552   5.465  0.1474 -0.2914 -0.0457
   27DOPE  H14R 3422   7.071   1.578   5.497  0.0759  1.4924 -1.1582
   27DOPE  H14S 3423   6.907   1.641   5.491 -0.9274 -1.1236  0.3675
   27DOPE  C215 3424   6.977   1.529   5.316 -0.2472 -0.8784  1.1132
   27DOPE  H15R 3425   7.012   1.425   5.295  0.6369 -0.2843 -0.5237
   27DOPE  H15S 3426   7.039   1.612   5.276  0.8004 -0.8062  2.7800
   27DOPE  C216 3427   6.842   1.550   5.247 -0.1104 -0.4814  0.4921
   27DOPE  H16R 3428   6.800   1.648   5.277  0.1476 -0.5992  1.2781
   27DOPE  H16S 3429   6.779   1.466   5.282 -0.5540 -0.7378 -0.8974
   27DOPE  C217 3430   6.857   1.534   5.098 -0.1739 -0.2613  0.0083
   27DOPE  H17R 3431   6.884   1.429   5.076 -0.0845  0.0384 -1.4184
   27DOPE  H17S 3432   6.936   1.600   5.057 -0.4777 -0.3706 -0.7659
   27DOPE  C218 3433   6.729   1.570   5.026  0.0047 -0.1627  0.2291
   27DOPE  H18R 3434   6.705   1.678   5.027  2.4226  0.4423  0.1890
   27DOPE  H18S 3435   6.646   1.509   5.069 -0.7226  0.2590 -0.5512
   27DOPE  H18T 3436   6.729   1.556   4.915 -0.3444  0.0706  0.1995
   27DOPE   C33 3437   7.726   0.447   6.295  0.9121  0.8396 -1.1659
   27DOPE   H3X 3438   7.817   0.417   6.351 -0.7646  1.9535  2.4591
   27DOPE   H3Y 3439   7.726   0.558   6.300  2.6088  0.8307 -0.2961
   27DOPE   C34 3440   7.756   0.424   6.147 -0.0489 -1.0907  0.0514
   27DOPE   H4X 3441   7.754   0.317   6.117 -0.5240 -0.8620 -0.7774
   27DOPE   H4Y 3442   7.680   0.480   6.089  0.2164 -0.6024  0.1713
   27DOPE   C35 3443   7.889   0.487   6.122  0.2506 -0.7588 -0.0949
   27DOPE   H5X 3444   7.969   0.435   6.178  1.0380 -0.9151 -1.3423
   27DOPE   H5Y 3445   7.891   0.593   6.157  0.7364 -0.1738 -1.8064
   27DOPE   C36 3446   7.919   0.486   5.972 -0.1988 -0.1533 -0.5296
   27DOPE   H6X 3447   7.844   0.552   5.924 -1.4662 -0.2325  1.2322
   27DOPE   H6Y 3448   7.908   0.380   5.941  0.2174 -0.3481 -0.0366
   27DOPE   C37 3449   8.065   0.532   5.945 -0.7949 -0.7201 -0.1624
   27DOPE   H7X 3450   8.072   0.638   5.977  0.2911 -0.7596 -0.2318
   27DOPE   H7Y 3451   8.139   0.473   6.003 -0.4534 -1.0694 -0.9425
   27DOPE   C38 3452   8.102   0.532   5.794 -0.1279 -0.0438 -0.5870
   27DOPE   H8X 3453   8.048   0.440   5.765  1.0640 -1.0317  0.2052
   27DOPE   H8Y 3454   8.210   0.507   5.789 -0.5318 -1.7862 -1.5070
   27DOPE   C39 3455   8.065   0.662   5.718 -0.0765  0.1548  0.7288
   27DOPE   H9X 3456   7.968   0.708   5.743 -0.6990 -0.0347 -1.1639
   27DOPE  C310 3457   8.134   0.722   5.624  0.4136  0.2673  0.4016
   27DOPE  H10X 3458   8.091   0.808   5.571 -0.6384 -1.2783 -1.4294
   27DOPE  C311 3459   8.265   0.674   5.573  0.3130  0.1858  0.1616
   27DOPE  H11X 3460   8.334   0.665   5.660 -2.8873 -0.7820  2.7844
   27DOPE  H11Y 3461   8.262   0.566   5.546  2.1070  0.1144  0.0906
   27DOPE  C312 3462   8.332   0.754   5.461  0.3470  0.1403  0.0914
   27DOPE  H12X 3463   8.434   0.710   5.465 -1.4797 -4.9515 -1.3416
   27DOPE  H12Y 3464   8.329   0.865   5.467  2.9614  0.2188  0.9389
   27DOPE  C313 3465   8.258   0.725   5.325  0.2070  0.6383  0.5463
   27DOPE  H13X 3466   8.239   0.617   5.343  0.7132  0.5432  0.5309
   27DOPE  H13Y 3467   8.164   0.784   5.317  0.0193  0.4504  1.2815
   27DOPE  C314 3468   8.346   0.734   5.201  0.7864 -0.2355  0.1113
   27DOPE  H14X 3469   8.437   0.671   5.217 -0.4960 -3.2910 -3.2809
   27DOPE  H14Y 3470   8.380   0.839   5.191  2.9098 -0.7028  1.6796
   27DOPE  C315 3471   8.282   0.690   5.065 -0.4235 -0.1287 -0.1818
   27DOPE  H15X 3472   8.359   0.702   4.986 -0.3165  1.1969  0.0900
   27DOPE  H15Y 3473   8.194   0.749   5.030  0.1469 -0.4360 -2.2288
   27DOPE  C316 3474   8.245   0.543   5.072 -0.5177 -0.6576 -0.2239
   27DOPE  H16X 3475   8.139   0.542   5.104 -0.4398  2.3200  0.4476
   27DOPE  H16Y 3476   8.304   0.487   5.148  1.2901  0.5725 -0.6578
   27DOPE  C317 3477   8.271   0.473   4.937  0.7893  0.0806 -0.9228
   27DOPE  H17X 3478   8.376   0.489   4.906  1.4097 -1.6524  0.1500
   27DOPE  H17Y 3479   8.264   0.363   4.946 -2.3920  0.2783  0.4509
   27DOPE  C318 3480   8.198   0.531   4.819  0.4670  0.7461 -1.0878
   27DOPE  H18X 3481   8.254   0.504   4.726 -0.7473 -1.9927 -1.1313
   27DOPE  H18Y 3482   8.093   0.495   4.817  0.5160  0.6072 -1.1973
   27DOPE  H18Z 3483   8.190   0.641   4.834 -2.5674  0.3042  1.5608
   28DOPE     N 3484   0.525   6.773   7.324 -0.1502 -0.3865 -0.1146
   28DOPE   HN1 3485   0.472   6.700   7.273  0.4071  0.4347 -1.9503
   28DOPE   HN2 3486   0.552   6.857   7.270  1.5320  0.0357  1.2634
   28DOPE   HN3 3487   0.617   6.729   7.345 -0.1873 -2.3120 -3.3475
   28DOPE   C12 3488   0.450   6.822   7.447 -0.4002  0.3482  0.4652
   28DOPE  H12A 3489   0.522   6.888   7.499  3.0169 -3.4881  1.1310
   28DOPE  H12B 3490   0.438   6.734   7.514 -1.4203  1.0648  1.2386
   28DOPE   C11 3491   0.312   6.874   7.402 -0.2329  0.7137 -0.0210
   28DOPE  H11A 3492   0.319   6.959   7.331  3.4271  1.6370  1.1790
   28DOPE  H11B 3493   0.266   6.923   7.491 -0.7911 -0.3018  0.2695
   28DOPE     P 3494   0.108   6.780   7.245  0.0197  0.2254  0.1481
   28DOPE   O13 3495  -0.022   6.795   7.311  0.6235 -0.9266  0.5892
   28DOPE   O14 3496   0.121   6.665   7.156 -0.1876  0.1088  0.2208
   28DOPE   O11 3497   0.139   6.908   7.157  0.2236  0.1873  0.0094
   28DOPE   O12 3498   0.225   6.777   7.361  0.1412  0.0418  0.2641
   28DOPE    C1 3499   0.245   6.922   7.069  0.1905 -0.4677 -0.1401
   28DOPE    HA 3500   0.329   6.852   7.091 -0.5543 -0.8383  1.7430
   28DOPE    HB 3501   0.276   7.028   7.081 -1.6854  0.0922  0.1665
   28DOPE    C2 3502   0.216   6.909   6.914 -0.5451  0.1306 -0.0497
   28DOPE    HS 3503   0.222   6.801   6.887 -0.0333  0.9779 -4.0987
   28DOPE   O21 3504   0.320   6.977   6.834  0.2314  0.3408 -0.0476
   28DOPE   C21 3505   0.443   6.923   6.829  1.4426 -0.9864  0.5210
   28DOPE   O22 3506   0.482   6.846   6.910  0.1368  0.1001  0.2209
   28DOPE   C22 3507   0.512   6.968   6.701 -0.3923 -0.4553  0.1688
   28DOPE   H2R 3508   0.609   6.914   6.707 -0.9236 -1.3157  1.3889
   28DOPE   H2S 3509   0.540   7.074   6.720 -1.2032 -0.3047  0.5599
   28DOPE    C3 3510   0.074   6.963   6.882 -0.2041 -0.7408  0.3474
   28DOPE    HX 3511   0.063   7.063   6.928  0.2252 -0.5661  0.0778
   28DOPE    HY 3512   0.005   6.895   6.937 -1.2042  1.1614  1.5718
   28DOPE   O31 3513   0.040   6.972   6.745  0.2096  0.4230  0.0512
   28DOPE   C31 3514   0.003   6.857   6.695 -0.0094  0.0028  0.0947
   28DOPE   O32 3515   0.015   6.748   6.751  0.3621  0.4093  0.0976
   28DOPE   C32 3516  -0.058   6.871   6.555  0.3983  0.6909 -0.1799
   28DOPE   H2X 3517  -0.157   6.921   6.559  0.3660  0.6707 -0.6342
   28DOPE   H2Y 3518   0.004   6.932   6.487  0.2468 -0.6075 -1.5324
   28DOPE   C23 3519   0.447   6.947   6.568 -0.6382 -0.3333 -0.0478
   28DOPE   H3R 3520   0.392   6.851   6.559 -2.4745  0.6411  0.3017
   28DOPE   H3S 3521   0.529   6.943   6.493  0.6765  3.0627  1.0193
   28DOPE   C24 3522   0.351   7.063   6.530 -0.1096 -0.0948  0.3534
   28DOPE   H4R 3523   0.406   7.159   6.525 -0.8485  0.3838  1.1543
   28DOPE   H4S 3524   0.274   7.086   6.607  0.6526  0.1150  1.0670
   28DOPE   C25 3525   0.279   7.041   6.394 -0.0035 -0.1103 -0.0344
   28DOPE   H5R 3526   0.220   7.133   6.374  2.1156  1.2413 -0.3110
   28DOPE   H5S 3527   0.210   6.954   6.410 -1.1773  0.6177 -0.9203
   28DOPE   C26 3528   0.368   7.011   6.270  0.2424  0.1512 -0.4750
   28DOPE   H6R 3529   0.439   6.928   6.292 -0.3742 -0.8485 -2.1101
   28DOPE   H6S 3530   0.423   7.099   6.232 -2.8045  1.9385 -1.0857
   28DOPE   C27 3531   0.286   6.957   6.149 -0.6576  0.3686 -0.9031
   28DOPE   H7R 3532   0.228   7.044   6.111  1.5443  1.9545 -0.8106
   28DOPE   H7S 3533   0.227   6.866   6.173  0.4448 -0.3474 -0.8085
   28DOPE   C28 3534   0.383   6.914   6.033  0.1324  0.3903  0.5399
   28DOPE   H8R 3535   0.441   6.827   6.071  1.3858  0.5097 -1.0008
   28DOPE   H8S 3536   0.462   6.989   6.012 -0.5684  1.0011  0.0216
   28DOPE   C29 3537   0.300   6.881   5.903 -0.2255 -0.6482 -0.5965
   28DOPE   H9R 3538   0.231   6.799   5.926 -0.0525 -0.4849  0.5677
   28DOPE  C210 3539   0.289   6.964   5.797  0.3645  0.8550 -0.2872
   28DOPE  H10R 3540   0.231   6.932   5.710  2.4994 -0.8260 -1.1939
   28DOPE  C211 3541   0.363   7.094   5.780 -0.4539 -0.7946  0.5240
   28DOPE  H11R 3542   0.349   7.149   5.876 -0.4534  2.0911 -1.0113
   28DOPE  H11S 3543   0.326   7.148   5.690  1.0066 -0.2652  0.2120
   28DOPE  C212 3544   0.515   7.086   5.744 -0.1343 -0.1840 -0.2821
   28DOPE  H12R 3545   0.522   7.014   5.659 -4.1367  0.3953 -1.3167
   28DOPE  H12S 3546   0.575   7.051   5.830  0.7398 -0.2710 -0.9041
   28DOPE  C213 3547   0.578   7.216   5.689  0.1688 -0.8973  0.7070
   28DOPE  H13R 3548   0.527   7.290   5.755 -1.5361 -0.2833 -1.2012
   28DOPE  H13S 3549   0.541   7.227   5.585  3.3110 -0.1902 -0.4397
   28DOPE  C214 3550   0.729   7.221   5.706 -0.0825  0.4437 -0.6311
   28DOPE  H14R 3551   0.764   7.132   5.650  1.6388  0.3449  0.5354
   28DOPE  H14S 3552   0.756   7.219   5.814 -0.9493 -2.0769 -0.4025
   28DOPE  C215 3553   0.784   7.345   5.633  0.4352 -0.4713  0.1150
   28DOPE  H15R 3554   0.723   7.362   5.542 -1.3548 -0.4483  1.2629
   28DOPE  H15S 3555   0.889   7.340   5.596  0.3445  1.2695 -0.5079
   28DOPE  C216 3556   0.775   7.473   5.726  0.3808 -0.4668  0.6612
   28DOPE  H16R 3557   0.863   7.458   5.792  0.7165  0.2311  0.3937
   28DOPE  H16S 3558   0.676   7.483   5.774  0.1617 -1.2832  0.3853
   28DOPE  C217 3559   0.791   7.603   5.653 -0.0103 -0.4545  0.1091
   28DOPE  H17R 3560   0.759   7.690   5.715  0.2449  0.8453 -1.5198
   28DOPE  H17S 3561   0.713   7.609   5.574 -0.1854 -1.2127  0.2201
   28DOPE  C218 3562   0.924   7.627   5.585  0.2584  0.0103 -0.4040
   28DOPE  H18R 3563   0.940   7.546   5.510  3.0420 -0.0710  0.1821
   28DOPE  H18S 3564   1.000   7.630   5.666 -1.0616  0.4319  0.8519
   28DOPE  H18T 3565   0.915   7.724   5.531 -0.5125 -0.4753 -1.1773
   28DOPE   C33 3566  -0.074   6.727   6.492  0.0162 -0.1724 -0.2097
   28DOPE   H3X 3567  -0.142   6.674   6.562 -0.4397  1.2419  0.4678
   28DOPE   H3Y 3568   0.022   6.672   6.493  1.4097  2.1023 -1.2189
   28DOPE   C34 3569  -0.142   6.733   6.354 -0.6612 -0.3760  0.5855
   28DOPE   H4X 3570  -0.194   6.637   6.332  0.7876 -0.8744 -0.8720
   28DOPE   H4Y 3571  -0.228   6.802   6.369  0.6885  1.3962  0.5030
   28DOPE   C35 3572  -0.058   6.783   6.239 -0.1775  0.0937  0.4130
   28DOPE   H5X 3573   0.032   6.717   6.234  0.5204  0.8993  1.6978
   28DOPE   H5Y 3574  -0.015   6.884   6.253 -1.4671  0.7718 -0.4145
   28DOPE   C36 3575  -0.130   6.783   6.105  0.1068  0.1151  0.0728
   28DOPE   H6X 3576  -0.231   6.823   6.128  0.2922 -0.3410  1.7859
   28DOPE   H6Y 3577  -0.152   6.679   6.072  2.3609 -0.9101  1.5316
   28DOPE   C37 3578  -0.055   6.859   5.994  0.3533 -0.0794  0.3429
   28DOPE   H7X 3579  -0.019   6.955   6.037 -0.2054 -0.5670  1.9934
   28DOPE   H7Y 3580   0.025   6.792   5.954 -0.4262 -0.3714 -0.7630
   28DOPE   C38 3581  -0.147   6.903   5.876 -0.0272 -0.1183 -0.3997
   28DOPE   H8X 3582  -0.093   6.989   5.831  1.2501 -0.1524  0.9921
   28DOPE   H8Y 3583  -0.240   6.949   5.915 -1.7416 -3.7907  0.2307
   28DOPE   C39 3584  -0.197   6.796   5.776  0.6177  0.2981  0.7228
   28DOPE   H9X 3585  -0.195   6.694   5.818 -0.2179  1.1260  2.9154
   28DOPE  C310 3586  -0.220   6.810   5.641  0.0429  0.8396  0.1423
   28DOPE  H10X 3587  -0.265   6.729   5.582 -1.7157  2.2644 -0.5605
   28DOPE  C311 3588  -0.193   6.944   5.572  0.0021  0.2362 -0.0922
   28DOPE  H11X 3589  -0.140   7.013   5.640 -0.3894 -1.1391  1.6809
   28DOPE  H11Y 3590  -0.143   6.936   5.473 -1.1358 -0.9602 -0.6078
   28DOPE  C312 3591  -0.329   7.012   5.542 -0.0015 -0.2943 -0.1755
   28DOPE  H12X 3592  -0.316   7.112   5.496  0.0172  0.2043  0.8964
   28DOPE  H12Y 3593  -0.373   7.039   5.640 -0.3966 -0.4911 -0.2972
   28DOPE  C313 3594  -0.427   6.934   5.453 -0.3841  0.1992 -0.2851
   28DOPE  H13X 3595  -0.470   6.847   5.507 -0.9717  1.0853  0.7406
   28DOPE  H13Y 3596  -0.516   7.000   5.436  0.2463  1.3547  0.7319
   28DOPE  C314 3597  -0.363   6.889   5.321  0.0261 -0.2766  0.6546
   28DOPE  H14X 3598  -0.304   6.797   5.341  1.0902  0.5569  1.5376
   28DOPE  H14Y 3599  -0.297   6.971   5.283 -4.3096  2.9248 -0.8315
   28DOPE  C315 3600  -0.470   6.867   5.216 -0.0430 -0.0135  0.0796
   28DOPE  H15X 3601  -0.530   6.961   5.211  0.9014  0.5377 -1.5786
   28DOPE  H15Y 3602  -0.536   6.782   5.245 -1.3848  0.2365 -1.9782
   28DOPE  C316 3603  -0.418   6.840   5.075 -0.2301 -0.2978 -0.1246
   28DOPE  H16X 3604  -0.340   6.914   5.049 -0.1166 -0.4516 -0.2176
   28DOPE  H16Y 3605  -0.501   6.860   5.004 -1.0825  0.0806  0.9372
   28DOPE  C317 3606  -0.361   6.694   5.056  0.4447 -0.0210  0.9981
   28DOPE  H17X 3607  -0.275   6.668   5.121 -0.1271  0.1043  1.8219
   28DOPE  H17Y 3608  -0.444   6.629   5.089 -0.4082  0.4670 -0.1171
   28DOPE  C318 3609  -0.339   6.670   4.907 -0.6229  0.3042 -0.8107
   28DOPE  H18X 3610  -0.297   6.567   4.901 -0.2895  0.3731  0.1386
   28DOPE  H18Y 3611  -0.439   6.670   4.860 -1.0523  1.8060  0.0121
   28DOPE  H18Z 3612  -0.260   6.740   4.871 -0.6052 -0.2362 -1.8486
   29DOPE     N 3613   0.234   0.825   7.261 -0.5230 -0.3119 -0.1585
   29DOPE   HN1 3614   0.319   0.862   7.306  0.0918 -1.3054 -0.4648
   29DOPE   HN2 3615   0.148   0.881   7.276 -0.2635  1.4089 -3.8663
   29DOPE   HN3 3616   0.226   0.727   7.296 -0.0788  0.0146  0.8916
   29DOPE   C12 3617   0.273   0.836   7.120 -1.1159 -0.0248  0.4930
   29DOPE  H12A 3618   0.268   0.941   7.084 -0.0074 -0.3053 -0.5102
   29DOPE  H12B 3619   0.198   0.771   7.070 -0.0768 -1.3545  0.6017
   29DOPE   C11 3620   0.414   0.785   7.101  0.9565 -1.1336 -0.4862
   29DOPE  H11A 3621   0.451   0.803   6.997  1.4656  0.0405 -0.1235
   29DOPE  H11B 3622   0.407   0.674   7.097 -1.2435 -1.0243 -1.0097
   29DOPE     P 3623   0.560   0.790   7.323 -0.0759 -0.1277 -0.3271
   29DOPE   O13 3624   0.452   0.819   7.420  0.1950  0.1039  0.1491
   29DOPE   O14 3625   0.694   0.838   7.359  0.3458  0.2716 -0.0897
   29DOPE   O11 3626   0.571   0.638   7.293  0.5040  0.0464 -0.0924
   29DOPE   O12 3627   0.509   0.852   7.188  0.2630  0.6127 -0.7410
   29DOPE    C1 3628   0.695   0.569   7.260 -0.2839  0.8430 -0.8409
   29DOPE    HA 3629   0.708   0.491   7.338 -0.3377  2.6519  1.0792
   29DOPE    HB 3630   0.790   0.625   7.276  1.1607 -0.5673 -3.8474
   29DOPE    C2 3631   0.698   0.515   7.119 -0.0084 -0.0960  0.9012
   29DOPE    HS 3632   0.796   0.464   7.109 -0.4977 -0.6806 -2.3590
   29DOPE   O21 3633   0.685   0.622   7.021 -0.5398  0.5578  0.0638
   29DOPE   C21 3634   0.781   0.707   7.012 -0.0299 -0.3682 -0.4988
   29DOPE   O22 3635   0.884   0.706   7.080 -0.2088 -0.4213 -0.2115
   29DOPE   C22 3636   0.747   0.817   6.911 -0.3251 -0.3031  0.0437
   29DOPE   H2R 3637   0.697   0.904   6.958  0.7878 -0.0913  0.8733
   29DOPE   H2S 3638   0.676   0.774   6.837 -0.8196  0.8190 -0.1504
   29DOPE    C3 3639   0.570   0.425   7.103 -1.1063 -0.2055  0.2593
   29DOPE    HX 3640   0.487   0.474   7.159 -0.6325  0.0343  0.7537
   29DOPE    HY 3641   0.588   0.330   7.157 -0.1203 -1.3741 -2.0173
   29DOPE   O31 3642   0.531   0.386   6.977 -0.2197 -0.3690  0.1103
   29DOPE   C31 3643   0.620   0.334   6.887 -0.3236  0.0086  0.1341
   29DOPE   O32 3644   0.736   0.312   6.909  0.1483  0.0277 -0.6008
   29DOPE   C32 3645   0.548   0.298   6.761 -0.0330 -0.5953  0.4211
   29DOPE   H2X 3646   0.458   0.246   6.797  0.1680  0.3138  2.3390
   29DOPE   H2Y 3647   0.515   0.393   6.713  5.2983  1.0699 -0.6392
   29DOPE   C23 3648   0.873   0.869   6.846 -0.2216  0.0623  0.2273
   29DOPE   H3R 3649   0.942   0.787   6.818 -1.5454 -0.3576 -2.1151
   29DOPE   H3S 3650   0.925   0.922   6.929 -0.6014 -0.4777  0.8261
   29DOPE   C24 3651   0.854   0.952   6.721  0.9558 -0.2237  0.0838
   29DOPE   H4R 3652   0.782   1.036   6.738  0.7691 -0.5525  0.9917
   29DOPE   H4S 3653   0.805   0.879   6.653  0.5946 -0.7282  0.8701
   29DOPE   C25 3654   0.969   1.027   6.648 -0.2397 -0.0583 -0.1806
   29DOPE   H5R 3655   1.060   0.963   6.649 -1.4306 -1.8159 -0.3633
   29DOPE   H5S 3656   0.987   1.117   6.710 -1.7074  0.7895 -0.9239
   29DOPE   C26 3657   0.926   1.059   6.503  0.5937  0.4655  0.5890
   29DOPE   H6R 3658   0.827   1.108   6.500  0.3271 -0.1003 -0.1539
   29DOPE   H6S 3659   0.914   0.961   6.452  0.7140  0.0325  1.3751
   29DOPE   C27 3660   1.032   1.127   6.411 -0.2477  0.5917  0.1986
   29DOPE   H7R 3661   1.109   1.053   6.382 -0.2581  0.9780 -0.8792
   29DOPE   H7S 3662   1.065   1.207   6.481  0.1846  0.4158  0.2002
   29DOPE   C28 3663   0.973   1.183   6.283  0.7905 -0.8604 -0.3934
   29DOPE   H8R 3664   0.873   1.219   6.317  1.0291  0.4090 -0.9531
   29DOPE   H8S 3665   0.943   1.107   6.208 -3.1390 -1.2100  1.2773
   29DOPE   C29 3666   1.056   1.291   6.226 -0.1796 -1.1851 -0.3061
   29DOPE   H9R 3667   1.133   1.342   6.286 -1.1131  2.5273 -1.9732
   29DOPE  C210 3668   1.051   1.338   6.099 -0.2404  0.4631 -0.2344
   29DOPE  H10R 3669   1.121   1.413   6.059  0.0192 -0.0206 -0.6899
   29DOPE  C211 3670   0.954   1.302   5.990 -0.1965  0.6999 -0.3033
   29DOPE  H11R 3671   0.927   1.196   6.008 -0.7460  0.8316 -0.3111
   29DOPE  H11S 3672   1.003   1.289   5.891  1.1740 -1.5721  0.6121
   29DOPE  C212 3673   0.836   1.401   5.981  0.3158 -0.1220  0.1666
   29DOPE  H12R 3674   0.800   1.414   6.085 -2.6602 -1.1372 -0.6496
   29DOPE  H12S 3675   0.752   1.353   5.927 -1.1468  0.8488  1.4908
   29DOPE  C213 3676   0.874   1.529   5.908 -0.3493 -0.3563  0.6959
   29DOPE  H13R 3677   0.926   1.506   5.812 -1.3180 -0.5160  0.2039
   29DOPE  H13S 3678   0.939   1.593   5.972  0.7706  0.3550 -1.0845
   29DOPE  C214 3679   0.749   1.619   5.875 -0.2320 -0.3319 -0.6540
   29DOPE  H14R 3680   0.694   1.653   5.965 -0.2192  1.2090 -1.2016
   29DOPE  H14S 3681   0.672   1.559   5.822  0.4309 -1.1925 -0.6722
   29DOPE  C215 3682   0.765   1.733   5.764 -0.1006  1.2208  0.2307
   29DOPE  H15R 3683   0.847   1.798   5.802 -1.2485  2.0567  1.3724
   29DOPE  H15S 3684   0.675   1.795   5.782 -1.4499  0.0626 -2.1731
   29DOPE  C216 3685   0.782   1.681   5.622 -0.0718 -0.5090 -0.6764
   29DOPE  H16R 3686   0.696   1.622   5.583 -0.2691  1.6606 -3.9638
   29DOPE  H16S 3687   0.872   1.616   5.614 -0.2337 -0.6797 -1.1463
   29DOPE  C217 3688   0.800   1.797   5.527 -0.9075 -0.3060  0.5131
   29DOPE  H17R 3689   0.886   1.859   5.560 -1.4641  0.3312  0.7973
   29DOPE  H17S 3690   0.708   1.859   5.526 -0.5691  0.3030 -2.6293
   29DOPE  C218 3691   0.828   1.761   5.376 -0.2059  0.1275  0.0402
   29DOPE  H18R 3692   0.928   1.716   5.359  0.0738  0.1302  1.6026
   29DOPE  H18S 3693   0.810   1.853   5.315  0.3648  1.2512  1.4984
   29DOPE  H18T 3694   0.758   1.682   5.343 -0.2921  0.5560 -0.8673
   29DOPE   C33 3695   0.635   0.209   6.669  0.0027 -0.8426 -0.6677
   29DOPE   H3X 3696   0.679   0.122   6.723 -1.6564 -1.9074 -0.9746
   29DOPE   H3Y 3697   0.721   0.267   6.630  0.9155 -1.2922  0.5885
   29DOPE   C34 3698   0.565   0.164   6.538  0.0557  0.2430 -0.3826
   29DOPE   H4X 3699   0.628   0.103   6.470 -1.3620  0.2402 -1.7478
   29DOPE   H4Y 3700   0.471   0.112   6.568 -0.7094  1.9668  0.3487
   29DOPE   C35 3701   0.521   0.279   6.449 -0.4298 -0.2229  1.2068
   29DOPE   H5X 3702   0.431   0.326   6.494  0.0894  4.2421 -1.7889
   29DOPE   H5Y 3703   0.487   0.233   6.354  3.0907  0.0197 -0.3095
   29DOPE   C36 3704   0.633   0.384   6.414  0.0521 -0.9542  0.1684
   29DOPE   H6X 3705   0.729   0.337   6.388  0.2687 -0.9449  0.9195
   29DOPE   H6Y 3706   0.657   0.450   6.500  0.3167  0.1213 -0.7080
   29DOPE   C37 3707   0.596   0.470   6.287 -0.3185  0.5394 -0.1269
   29DOPE   H7X 3708   0.692   0.489   6.234  0.7929 -0.8848  1.2732
   29DOPE   H7Y 3709   0.540   0.403   6.218  0.1848  1.8389 -1.8963
   29DOPE   C38 3710   0.502   0.588   6.326 -0.2767 -0.0106  0.3289
   29DOPE   H8X 3711   0.436   0.538   6.400 -0.5564 -0.6043 -0.3140
   29DOPE   H8Y 3712   0.447   0.610   6.231  0.0829 -0.6307 -0.0298
   29DOPE   C39 3713   0.573   0.707   6.379 -0.0959 -1.0674  0.9776
   29DOPE   H9X 3714   0.609   0.700   6.483 -0.7892 -1.5927  1.1895
   29DOPE  C310 3715   0.587   0.829   6.318  0.2463 -0.2869  0.0899
   29DOPE  H10X 3716   0.637   0.910   6.374  0.9605  0.1730 -1.1819
   29DOPE  C311 3717   0.545   0.873   6.181  0.0705 -0.5350  0.5584
   29DOPE  H11X 3718   0.509   0.785   6.124 -0.5908  0.7897 -1.1585
   29DOPE  H11Y 3719   0.454   0.937   6.189  1.6414  1.9016 -0.2061
   29DOPE  C312 3720   0.645   0.961   6.098 -0.2869  0.1803 -0.0237
   29DOPE  H12X 3721   0.751   0.929   6.098  0.2036  1.5824  1.8941
   29DOPE  H12Y 3722   0.655   1.067   6.130 -1.6037 -0.1361  1.5999
   29DOPE  C313 3723   0.580   0.966   5.952 -0.4753  0.6268 -0.7583
   29DOPE  H13X 3724   0.567   0.864   5.913  1.2823  0.9059 -2.1956
   29DOPE  H13Y 3725   0.494   1.035   5.957 -0.4072  0.6383  1.2111
   29DOPE  C314 3726   0.670   1.030   5.844 -0.5579 -0.0234 -0.3391
   29DOPE  H14X 3727   0.738   0.946   5.820  0.0173 -0.6903  3.1157
   29DOPE  H14Y 3728   0.737   1.113   5.878  2.4934 -1.2772 -2.7976
   29DOPE  C315 3729   0.583   1.079   5.725  0.0190 -0.4655  0.1274
   29DOPE  H15X 3730   0.515   1.162   5.751 -1.8587 -1.2614 -1.9926
   29DOPE  H15Y 3731   0.527   0.989   5.692  0.7701 -0.3717 -1.5138
   29DOPE  C316 3732   0.670   1.108   5.605  0.2828 -1.6507  0.7899
   29DOPE  H16X 3733   0.736   1.023   5.580  1.4587 -0.5996  0.2513
   29DOPE  H16Y 3734   0.731   1.198   5.631  1.6851 -1.8592 -1.4918
   29DOPE  C317 3735   0.596   1.140   5.471  0.2322 -0.2425  0.2611
   29DOPE  H17X 3736   0.679   1.139   5.397 -0.4017  1.5761 -0.5170
   29DOPE  H17Y 3737   0.523   1.059   5.450  0.9450 -1.1740  1.3035
   29DOPE  C318 3738   0.525   1.276   5.457  0.3897 -0.0204  0.2025
   29DOPE  H18X 3739   0.595   1.362   5.451  0.6485  0.0187  2.7961
   29DOPE  H18Y 3740   0.464   1.270   5.364  1.5032  1.6043 -0.6825
   29DOPE  H18Z 3741   0.459   1.298   5.543 -0.4777  1.4658 -0.7958
   30DOPE     N 3742   1.122   1.071   7.171 -0.5998 -0.8520 -0.1995
   30DOPE   HN1 3743   1.179   1.096   7.255 -0.3811 -0.2541 -0.5205
   30DOPE   HN2 3744   1.138   1.144   7.099 -0.9833  0.3879  0.9211
   30DOPE   HN3 3745   1.023   1.057   7.201 -0.7905 -0.9001 -0.8369
   30DOPE   C12 3746   1.178   0.942   7.121 -0.1599  0.2884 -0.4009
   30DOPE  H12A 3747   1.123   0.919   7.028  0.4237 -1.3226 -0.3863
   30DOPE  H12B 3748   1.152   0.868   7.200  0.7667 -0.5322 -0.8323
   30DOPE   C11 3749   1.327   0.950   7.112  0.1281 -0.8099  0.1715
   30DOPE  H11A 3750   1.382   0.984   7.202  0.1064 -0.3059 -0.0044
   30DOPE  H11B 3751   1.348   1.032   7.040 -1.7153  2.4732  3.0494
   30DOPE     P 3752   1.426   0.707   7.159 -0.1621 -0.5166  0.1233
   30DOPE   O13 3753   1.325   0.603   7.168 -0.1376  0.6674  0.1478
   30DOPE   O14 3754   1.473   0.772   7.285 -0.1389  0.3729 -0.0731
   30DOPE   O11 3755   1.553   0.640   7.083  0.7843 -0.2922 -0.2245
   30DOPE   O12 3756   1.381   0.823   7.068 -0.4092 -0.3083  0.6033
   30DOPE    C1 3757   1.641   0.738   7.027 -0.4833 -0.0469  0.1549
   30DOPE    HA 3758   1.694   0.801   7.102  0.7860 -1.7775  0.7897
   30DOPE    HB 3759   1.589   0.808   6.958 -1.9185 -0.6795  0.5669
   30DOPE    C2 3760   1.773   0.682   6.964  0.4450  0.3737  0.0388
   30DOPE    HS 3761   1.845   0.766   6.959  1.3401 -0.3491  0.5986
   30DOPE   O21 3762   1.741   0.631   6.827  0.0653  0.5332 -0.2866
   30DOPE   C21 3763   1.727   0.715   6.735  0.7200 -0.5576  0.4913
   30DOPE   O22 3764   1.737   0.836   6.738  0.7288 -0.4298 -0.2524
   30DOPE   C22 3765   1.697   0.634   6.612  0.2108  0.1755 -0.2293
   30DOPE   H2R 3766   1.608   0.569   6.631 -1.8618  3.2409  1.6082
   30DOPE   H2S 3767   1.792   0.580   6.597  0.5741  0.8944 -0.5268
   30DOPE    C3 3768   1.842   0.579   7.061  0.0067 -0.0827  0.1324
   30DOPE    HX 3769   1.767   0.524   7.122 -1.9428  1.4032 -0.8021
   30DOPE    HY 3770   1.883   0.651   7.135  0.6252 -0.3659  0.0775
   30DOPE   O31 3771   1.940   0.507   6.983  0.1123  0.1596  0.3174
   30DOPE   C31 3772   1.917   0.379   6.971  0.1124 -0.2261  0.0773
   30DOPE   O32 3773   1.811   0.325   7.000 -0.2302  0.2522  0.6460
   30DOPE   C32 3774   2.037   0.306   6.910  0.4264 -0.0845 -0.1474
   30DOPE   H2X 3775   2.110   0.386   6.881 -0.0188  0.6582  0.7283
   30DOPE   H2Y 3776   2.091   0.238   6.979  0.5803  0.2546  0.0720
   30DOPE   C23 3777   1.673   0.731   6.492  0.4869 -0.3978  0.0754
   30DOPE   H3R 3778   1.744   0.816   6.481 -0.9852  1.1154  1.6143
   30DOPE   H3S 3779   1.572   0.777   6.503 -0.4085 -2.2211 -0.1812
   30DOPE   C24 3780   1.678   0.656   6.363 -0.0237 -0.2907  0.3181
   30DOPE   H4R 3781   1.586   0.594   6.366 -2.7761  3.4153  2.6553
   30DOPE   H4S 3782   1.769   0.593   6.356 -1.1596 -1.8914 -0.5651
   30DOPE   C25 3783   1.661   0.744   6.233  0.4261  0.0450 -0.2846
   30DOPE   H5R 3784   1.739   0.822   6.223 -1.5655  2.4133  1.2320
   30DOPE   H5S 3785   1.565   0.801   6.243  0.3642 -0.0049 -0.5726
   30DOPE   C26 3786   1.662   0.640   6.119  0.0228  0.1588  0.5663
   30DOPE   H6R 3787   1.572   0.580   6.146  1.6489 -1.8080  1.8833
   30DOPE   H6S 3788   1.760   0.589   6.121 -0.0722 -0.0204  1.8762
   30DOPE   C27 3789   1.639   0.720   5.992 -0.2580 -0.4040  0.2252
   30DOPE   H7R 3790   1.711   0.804   5.988 -1.0665  0.5081  2.9226
   30DOPE   H7S 3791   1.542   0.773   6.002  0.7493  1.4555  0.4995
   30DOPE   C28 3792   1.660   0.640   5.860  0.2196 -0.2759 -0.0733
   30DOPE   H8R 3793   1.623   0.535   5.869 -0.4632  0.0824  1.8102
   30DOPE   H8S 3794   1.770   0.639   5.844 -0.0652 -0.9595 -2.2576
   30DOPE   C29 3795   1.619   0.716   5.738  0.3791  0.2643 -0.3517
   30DOPE   H9R 3796   1.569   0.812   5.763  0.1511 -0.4898  2.4333
   30DOPE  C210 3797   1.679   0.708   5.622  0.2759  0.2277 -0.0254
   30DOPE  H10R 3798   1.625   0.761   5.542 -2.8650 -2.6397 -0.0566
   30DOPE  C211 3799   1.764   0.604   5.562  0.1824 -0.5308  0.6187
   30DOPE  H11R 3800   1.707   0.531   5.500  2.2645  0.6421 -2.9852
   30DOPE  H11S 3801   1.834   0.557   5.635  0.3125  1.7024  2.0058
   30DOPE  C212 3802   1.860   0.676   5.467 -0.0632  0.2477 -0.0879
   30DOPE  H12R 3803   1.917   0.760   5.513  1.5509 -0.7544 -0.1835
   30DOPE  H12S 3804   1.808   0.708   5.375 -0.6311 -1.0815 -0.2477
   30DOPE  C213 3805   1.967   0.581   5.414 -0.4434  0.4901 -0.5435
   30DOPE  H13R 3806   1.920   0.500   5.355  1.2915  1.6524 -3.7735
   30DOPE  H13S 3807   2.014   0.531   5.502 -0.7665  0.5748 -0.3228
   30DOPE  C214 3808   2.075   0.641   5.317  0.3761 -0.0189  0.2941
   30DOPE  H14R 3809   2.114   0.726   5.376  0.0152 -0.4820  1.2129
   30DOPE  H14S 3810   2.023   0.686   5.229  1.6119  0.4659 -0.2064
   30DOPE  C215 3811   2.178   0.533   5.262  0.2073 -0.2028  0.1246
   30DOPE  H15R 3812   2.134   0.467   5.185  3.2459 -0.7005 -1.3516
   30DOPE  H15S 3813   2.213   0.471   5.348 -0.3272 -1.0346 -0.2529
   30DOPE  C216 3814   2.303   0.599   5.208 -0.1590 -0.3404 -0.1250
   30DOPE  H16R 3815   2.329   0.676   5.283 -1.9801 -1.5510  1.8410
   30DOPE  H16S 3816   2.280   0.641   5.107  0.2683 -2.0534 -0.9771
   30DOPE  C217 3817   2.428   0.497   5.196  0.6146 -0.5132  0.4497
   30DOPE  H17R 3818   2.450   0.463   5.300 -1.8229  0.0854  1.2354
   30DOPE  H17S 3819   2.519   0.551   5.162  2.3174 -1.8110  2.6612
   30DOPE  C218 3820   2.402   0.379   5.101 -0.6546 -0.3121 -0.0478
   30DOPE  H18R 3821   2.480   0.300   5.115 -1.3662 -1.3784 -1.7257
   30DOPE  H18S 3822   2.402   0.399   4.992 -1.2503 -1.0307 -0.1880
   30DOPE  H18T 3823   2.303   0.340   5.132 -0.8475 -0.4989 -0.8670
   30DOPE   C33 3824   2.008   0.219   6.780 -0.1712 -0.3662 -0.1055
   30DOPE   H3X 3825   2.095   0.236   6.714  0.9004  0.6138  1.4667
   30DOPE   H3Y 3826   1.925   0.263   6.720  0.6210  0.9854 -0.2612
   30DOPE   C34 3827   1.984   0.076   6.808 -0.4152 -0.1540  0.2057
   30DOPE   H4X 3828   2.071   0.030   6.859 -2.0879 -1.8161  1.7140
   30DOPE   H4Y 3829   1.898   0.064   6.877 -0.5258 -0.0583  0.0852
   30DOPE   C35 3830   1.949  -0.003   6.679 -0.3241  0.1146 -0.4657
   30DOPE   H5X 3831   1.899   0.075   6.618 -3.1786 -0.6298  0.7527
   30DOPE   H5Y 3832   1.877  -0.087   6.688  0.0674 -0.0225  2.6132
   30DOPE   C36 3833   2.074  -0.061   6.611  0.3517 -0.6022 -0.2581
   30DOPE   H6X 3834   2.140  -0.106   6.688  0.2796  0.1382  0.2469
   30DOPE   H6Y 3835   2.128   0.024   6.564  0.0726  0.5066  1.3540
   30DOPE   C37 3836   2.051  -0.168   6.497 -0.0393  0.6272 -0.3106
   30DOPE   H7X 3837   2.149  -0.208   6.462  0.5716  3.3332 -1.9341
   30DOPE   H7Y 3838   2.002  -0.254   6.549 -1.7495  1.6164 -0.2102
   30DOPE   C38 3839   1.975  -0.118   6.369 -0.1719  0.0812  0.0624
   30DOPE   H8X 3840   2.027  -0.043   6.304  1.0878 -2.5368 -2.1644
   30DOPE   H8Y 3841   1.897  -0.056   6.417  0.6735  0.8914  0.4398
   30DOPE   C39 3842   1.929  -0.235   6.273 -0.5610 -0.0490  0.2321
   30DOPE   H9X 3843   1.869  -0.313   6.323 -2.2599  1.4970  0.7164
   30DOPE  C310 3844   1.977  -0.252   6.146  0.2235 -0.6518  0.3515
   30DOPE  H10X 3845   1.943  -0.338   6.087  2.5073 -3.2708  2.5472
   30DOPE  C311 3846   2.056  -0.146   6.074 -0.5850  0.0679 -0.1178
   30DOPE  H11X 3847   2.148  -0.109   6.124  0.1613  0.2019 -1.5553
   30DOPE  H11Y 3848   2.104  -0.192   5.985 -2.5963 -3.4837  0.4104
   30DOPE  C312 3849   1.983  -0.018   6.032 -0.6719 -0.1882  0.6391
   30DOPE  H12X 3850   1.924   0.024   6.116 -1.4183 -0.1422  0.1072
   30DOPE  H12Y 3851   1.927  -0.036   5.937  1.4302 -2.1707 -0.3152
   30DOPE  C313 3852   2.088   0.098   5.995  0.7535  0.4004 -0.2422
   30DOPE  H13X 3853   2.035   0.187   5.956 -0.1339 -0.0093  0.0120
   30DOPE  H13Y 3854   2.124   0.126   6.096 -1.6780  0.1097  0.7610
   30DOPE  C314 3855   2.196   0.063   5.888  0.0746 -0.3294 -0.0484
   30DOPE  H14X 3856   2.146   0.037   5.792 -0.2681  1.4316 -0.3703
   30DOPE  H14Y 3857   2.248  -0.031   5.916  1.6001  0.8751  1.3291
   30DOPE  C315 3858   2.300   0.169   5.861  0.0960 -0.1680 -0.4492
   30DOPE  H15X 3859   2.336   0.202   5.961 -0.3150  0.8115 -0.6089
   30DOPE  H15Y 3860   2.260   0.262   5.816  2.0115  0.6494 -0.5617
   30DOPE  C316 3861   2.416   0.133   5.767  0.5493  0.3560 -0.2975
   30DOPE  H16X 3862   2.375   0.090   5.673  1.6394  2.0665 -1.6268
   30DOPE  H16Y 3863   2.484   0.055   5.808  2.1678  1.4095 -0.8819
   30DOPE  C317 3864   2.499   0.251   5.741 -0.7237  0.2546  0.2296
   30DOPE  H17X 3865   2.427   0.331   5.715 -0.1425  0.5636 -0.4568
   30DOPE  H17Y 3866   2.550   0.274   5.837 -0.9393 -0.8657  0.6249
   30DOPE  C318 3867   2.599   0.227   5.617 -0.4101 -0.1698 -0.2123
   30DOPE  H18X 3868   2.545   0.198   5.524 -1.5902  0.2953  0.3191
   30DOPE  H18Y 3869   2.664   0.314   5.594 -0.6266  0.3221  0.9673
   30DOPE  H18Z 3870   2.674   0.148   5.640  0.8078  0.6011 -1.3711
   31DOPE     N 3871   1.888   3.403   2.968  0.8746 -0.0706 -0.2972
   31DOPE   HN1 3872   1.786   3.409   2.990  0.9430 -1.5429  0.5296
   31DOPE   HN2 3873   1.894   3.327   2.898 -1.0813 -2.0110  1.5213
   31DOPE   HN3 3874   1.939   3.375   3.054  3.1750  2.8533 -0.5362
   31DOPE   C12 3875   1.944   3.530   2.915 -0.0569  0.4973 -0.5182
   31DOPE  H12A 3876   1.931   3.612   2.989 -0.0036 -0.9445  1.1419
   31DOPE  H12B 3877   1.884   3.554   2.824 -3.2051 -0.0068  1.2743
   31DOPE   C11 3878   2.090   3.498   2.870  0.5254 -0.2749  0.1990
   31DOPE  H11A 3879   2.144   3.589   2.837  0.5832 -0.8578 -1.3988
   31DOPE  H11B 3880   2.089   3.440   2.775  3.2953  0.5529 -0.4446
   31DOPE     P 3881   2.253   3.510   3.079  0.1711 -0.3505 -0.1341
   31DOPE   O13 3882   2.358   3.589   3.006  0.4430  0.0369  0.4550
   31DOPE   O14 3883   2.302   3.413   3.179 -0.1174  0.3039 -0.0611
   31DOPE   O11 3884   2.151   3.611   3.146  0.0176 -0.2235  0.4240
   31DOPE   O12 3885   2.167   3.425   2.968  0.1963  0.0506  0.0308
   31DOPE    C1 3886   2.054   3.578   3.244  0.2725  0.0359 -0.1213
   31DOPE    HA 3887   2.027   3.471   3.236  0.1787  0.0986 -0.7358
   31DOPE    HB 3888   1.960   3.635   3.226  1.1181  0.8580 -2.4279
   31DOPE    C2 3889   2.102   3.610   3.393  0.1936  0.1500  0.8311
   31DOPE    HS 3890   2.016   3.613   3.463  0.4334 -3.2178  1.4371
   31DOPE   O21 3891   2.172   3.740   3.397 -0.8034 -0.1687  0.2432
   31DOPE   C21 3892   2.092   3.841   3.385  0.1270  1.0568  0.0905
   31DOPE   O22 3893   1.969   3.830   3.375 -0.5913  0.0098 -0.2431
   31DOPE   C22 3894   2.160   3.968   3.418 -0.0695 -0.3698  0.6767
   31DOPE   H2R 3895   2.250   3.991   3.356 -0.0011 -0.4588  0.7444
   31DOPE   H2S 3896   2.198   3.959   3.521 -0.0213 -0.0709  0.6863
   31DOPE    C3 3897   2.196   3.501   3.438  0.6482 -0.2457  0.2993
   31DOPE    HX 3898   2.292   3.523   3.387  0.5575 -0.4663  0.0308
   31DOPE    HY 3899   2.143   3.407   3.412 -2.8333  1.7936 -0.7591
   31DOPE   O31 3900   2.229   3.506   3.575  0.0382 -0.2522 -0.3534
   31DOPE   C31 3901   2.320   3.416   3.612 -0.4719 -0.2052  0.7324
   31DOPE   O32 3902   2.374   3.344   3.534 -0.2165  0.2534  0.2935
   31DOPE   C32 3903   2.357   3.437   3.757 -0.9019 -0.4763 -0.6463
   31DOPE   H2X 3904   2.266   3.468   3.814 -0.4926 -1.0834  0.3758
   31DOPE   H2Y 3905   2.389   3.337   3.791 -1.6529 -0.3097  0.6202
   31DOPE   C23 3906   2.081   4.099   3.411  0.0731  0.2461 -0.1633
   31DOPE   H3R 3907   2.016   4.098   3.321  0.5618 -2.0812 -0.5354
   31DOPE   H3S 3908   2.149   4.186   3.393  1.8132 -1.1624 -0.6431
   31DOPE   C24 3909   2.003   4.125   3.541  0.0464 -0.7571  0.4798
   31DOPE   H4R 3910   2.071   4.134   3.628 -0.3084  1.0587  0.6119
   31DOPE   H4S 3911   1.926   4.049   3.565 -0.9578 -0.1546 -0.7040
   31DOPE   C25 3912   1.933   4.261   3.525 -0.2158 -0.2299 -0.4455
   31DOPE   H5R 3913   1.873   4.266   3.432 -0.7571  0.5342 -0.0712
   31DOPE   H5S 3914   2.009   4.343   3.519 -0.9851  0.7918  2.2575
   31DOPE   C26 3915   1.840   4.296   3.643  0.4771  0.1790 -0.0574
   31DOPE   H6R 3916   1.749   4.233   3.635  0.1759  0.6383 -0.2303
   31DOPE   H6S 3917   1.802   4.400   3.637  0.1129  0.0007 -0.9246
   31DOPE   C27 3918   1.893   4.277   3.785 -0.1008  0.2351  0.7907
   31DOPE   H7R 3919   1.993   4.326   3.783  1.1394 -2.0483  2.1841
   31DOPE   H7S 3920   1.905   4.168   3.804  1.6809  0.2686  0.0235
   31DOPE   C28 3921   1.808   4.340   3.894 -0.6484  0.1167  0.1705
   31DOPE   H8R 3922   1.790   4.446   3.865 -0.2663  0.7190  1.9640
   31DOPE   H8S 3923   1.866   4.341   3.989  0.0411  2.8225 -0.1877
   31DOPE   C29 3924   1.679   4.269   3.917 -0.2530  0.5591 -0.4574
   31DOPE   H9R 3925   1.683   4.160   3.900 -1.0986 -0.2064  3.2006
   31DOPE  C210 3926   1.568   4.320   3.974  0.2656  1.0589 -1.0712
   31DOPE  H10R 3927   1.484   4.250   3.984  1.2632 -0.0969 -0.5445
   31DOPE  C211 3928   1.532   4.454   4.034 -0.5980  0.3362  0.2500
   31DOPE  H11R 3929   1.432   4.488   4.001 -0.3746  1.5453  0.7361
   31DOPE  H11S 3930   1.607   4.523   3.988  0.2379 -0.7942 -0.1230
   31DOPE  C212 3931   1.525   4.466   4.191  0.3883 -0.9910 -0.5526
   31DOPE  H12R 3932   1.624   4.457   4.241 -0.2785 -0.8062  0.8196
   31DOPE  H12S 3933   1.454   4.395   4.237  0.8614 -0.1757  1.5566
   31DOPE  C213 3934   1.448   4.597   4.235 -0.0008  0.5751 -0.4441
   31DOPE  H13R 3935   1.345   4.616   4.199 -0.4716  1.6209  1.3348
   31DOPE  H13S 3936   1.506   4.683   4.196  1.8011 -1.1362 -1.7244
   31DOPE  C214 3937   1.433   4.616   4.386  0.8012 -0.3118 -0.0111
   31DOPE  H14R 3938   1.401   4.723   4.387  0.2427 -0.2903 -3.7883
   31DOPE  H14S 3939   1.533   4.598   4.430  0.3294 -1.1066  0.7558
   31DOPE  C215 3940   1.331   4.524   4.454 -0.5786 -0.5120 -0.4633
   31DOPE  H15R 3941   1.362   4.417   4.451  0.0196 -0.3423 -3.3181
   31DOPE  H15S 3942   1.234   4.511   4.401  0.0352 -2.1267 -1.2755
   31DOPE  C216 3943   1.300   4.576   4.595 -0.3460  0.0814  0.2139
   31DOPE  H16R 3944   1.245   4.671   4.575  0.6446  0.3717 -1.2902
   31DOPE  H16S 3945   1.393   4.617   4.640 -1.3087  2.1495  0.4398
   31DOPE  C217 3946   1.220   4.482   4.685  0.0074 -0.5560  0.2438
   31DOPE  H17R 3947   1.133   4.443   4.627 -2.3365  0.5216  2.8380
   31DOPE  H17S 3948   1.167   4.543   4.760  2.2870  1.1174  0.5914
   31DOPE  C218 3949   1.300   4.385   4.771 -0.2432 -0.3776  0.4937
   31DOPE  H18R 3950   1.362   4.439   4.846 -1.3252  1.7028 -0.0394
   31DOPE  H18S 3951   1.374   4.324   4.714  0.7344  1.2355 -0.0511
   31DOPE  H18T 3952   1.232   4.316   4.825 -2.0668  0.3829 -0.7258
   31DOPE   C33 3953   2.472   3.538   3.766 -0.1362  0.0218 -0.1842
   31DOPE   H3X 3954   2.559   3.520   3.699  1.1807  2.4962  0.7122
   31DOPE   H3Y 3955   2.509   3.548   3.871 -4.8833  1.1042  1.6453
   31DOPE   C34 3956   2.413   3.671   3.717 -0.6850 -0.6338  0.4399
   31DOPE   H4X 3957   2.435   3.676   3.608 -0.5995 -1.6269  0.4085
   31DOPE   H4Y 3958   2.306   3.690   3.738 -0.1927  0.9252  1.8227
   31DOPE   C35 3959   2.485   3.795   3.789 -0.4934  0.1461  0.0995
   31DOPE   H5X 3960   2.594   3.778   3.775 -0.0498  2.2953  0.5837
   31DOPE   H5Y 3961   2.467   3.809   3.897  2.3743  0.0877  0.6587
   31DOPE   C36 3962   2.458   3.926   3.714  0.5910 -0.1038  0.5695
   31DOPE   H6X 3963   2.445   3.909   3.605  0.2949  0.7172  0.4689
   31DOPE   H6Y 3964   2.536   4.004   3.725 -1.6981  2.6720 -1.2071
   31DOPE   C37 3965   2.330   4.000   3.767 -0.2041  0.2085 -0.5946
   31DOPE   H7X 3966   2.302   4.068   3.684  0.3732  0.6881 -0.4016
   31DOPE   H7Y 3967   2.238   3.939   3.780  0.0494 -0.0052  0.3217
   31DOPE   C38 3968   2.359   4.079   3.899 -0.4908  0.2898 -0.3047
   31DOPE   H8X 3969   2.455   4.131   3.879  0.4492 -0.6105  1.6269
   31DOPE   H8Y 3970   2.380   4.010   3.984  2.3417  1.9961  0.4971
   31DOPE   C39 3971   2.263   4.188   3.936 -0.1972  0.0915 -0.3707
   31DOPE   H9X 3972   2.167   4.171   3.885  0.5018 -1.8255 -1.1459
   31DOPE  C310 3973   2.270   4.289   4.027 -0.0836 -0.0488  0.1092
   31DOPE  H10X 3974   2.185   4.358   4.021 -0.3918 -0.3784  0.5858
   31DOPE  C311 3975   2.387   4.336   4.105 -0.3458 -0.2784  0.6261
   31DOPE  H11X 3976   2.478   4.279   4.078 -1.2675 -0.1769 -3.3112
   31DOPE  H11Y 3977   2.402   4.444   4.081 -0.9035 -0.4247 -0.4288
   31DOPE  C312 3978   2.361   4.340   4.261 -0.7261 -0.3542  0.1803
   31DOPE  H12X 3979   2.274   4.283   4.298 -1.8308  1.4340  0.4684
   31DOPE  H12Y 3980   2.336   4.444   4.293  0.0291 -0.0654 -0.1415
   31DOPE  C313 3981   2.482   4.285   4.330 -0.7293  0.3275 -0.3129
   31DOPE  H13X 3982   2.509   4.185   4.290 -0.3350  0.5761 -0.6753
   31DOPE  H13Y 3983   2.573   4.349   4.336  0.9133 -1.9927  1.2957
   31DOPE  C314 3984   2.443   4.238   4.472 -0.2371 -0.3000  0.1927
   31DOPE  H14X 3985   2.367   4.158   4.484 -0.7953  0.2811  0.6210
   31DOPE  H14Y 3986   2.400   4.330   4.517  0.1468 -0.2159  0.3926
   31DOPE  C315 3987   2.564   4.193   4.553  0.5165  0.4130  0.0165
   31DOPE  H15X 3988   2.547   4.189   4.663  2.4856 -1.8183  0.3191
   31DOPE  H15Y 3989   2.641   4.271   4.531  2.6388 -1.3039  0.9975
   31DOPE  C316 3990   2.620   4.052   4.507  0.2888 -0.4512 -0.8275
   31DOPE  H16X 3991   2.624   4.046   4.396  0.5928  0.8882 -0.9030
   31DOPE  H16Y 3992   2.548   3.972   4.533 -0.5524  0.4454 -0.3268
   31DOPE  C317 3993   2.757   4.015   4.560  0.2424 -0.1697  0.1404
   31DOPE  H17X 3994   2.766   3.907   4.536  2.1981 -0.0083 -0.0244
   31DOPE  H17Y 3995   2.830   4.071   4.498  1.9282 -1.3564  0.9903
   31DOPE  C318 3996   2.774   4.026   4.715 -0.0134 -0.0373 -0.1282
   31DOPE  H18X 3997   2.760   4.128   4.755  0.6497 -0.0562  0.1508
   31DOPE  H18Y 3998   2.707   3.953   4.766  0.1064 -0.4981 -0.6236
   31DOPE  H18Z 3999   2.879   3.998   4.737  0.2038  1.1373  0.3504
   32DOPE     N 4000   5.014   3.377   2.589 -0.1777 -0.4158  0.1848
   32DOPE   HN1 4001   5.056   3.473   2.591  2.4897 -1.3883 -2.2082
   32DOPE   HN2 4002   5.094   3.320   2.624  0.1665 -1.8708 -2.6794
   32DOPE   HN3 4003   5.000   3.358   2.488  3.2583 -1.6209 -0.1908
   32DOPE   C12 4004   4.892   3.359   2.674 -0.3319  0.0594 -0.9390
   32DOPE  H12A 4005   4.809   3.363   2.601 -1.1765 -1.7280 -0.1630
   32DOPE  H12B 4006   4.897   3.440   2.749  0.9256 -0.8421  0.0022
   32DOPE   C11 4007   4.896   3.224   2.747 -0.1856 -0.1053  0.2170
   32DOPE  H11A 4008   4.875   3.145   2.672 -0.5153 -1.0930  1.3327
   32DOPE  H11B 4009   4.807   3.222   2.813  0.3641 -1.1560  0.9558
   32DOPE     P 4010   5.040   3.236   2.965  0.1822  0.0126  0.3508
   32DOPE   O13 4011   5.186   3.249   2.987 -0.1412  0.0902 -0.1444
   32DOPE   O14 4012   4.971   3.132   3.046 -0.0222  0.0718  0.2218
   32DOPE   O11 4013   4.963   3.371   2.980  0.4423 -0.0551 -0.1777
   32DOPE   O12 4014   5.018   3.190   2.813 -0.2718 -0.0600  0.1553
   32DOPE    C1 4015   5.006   3.480   3.065 -0.3975  0.5696  0.0776
   32DOPE    HA 4016   4.974   3.577   3.020 -1.2612  2.2328  3.8829
   32DOPE    HB 4017   5.117   3.488   3.069 -0.3832  1.0899 -0.9890
   32DOPE    C2 4018   4.948   3.473   3.207  0.1835 -0.4731  0.6939
   32DOPE    HS 4019   4.962   3.573   3.254 -0.9890  0.7037 -1.2833
   32DOPE   O21 4020   5.006   3.370   3.287  0.4295  0.4405  0.3597
   32DOPE   C21 4021   5.124   3.395   3.354 -0.2826  0.7037 -0.0632
   32DOPE   O22 4022   5.207   3.477   3.318  0.4600  0.1831  0.1234
   32DOPE   C22 4023   5.142   3.283   3.459  0.1682  0.7291  0.4598
   32DOPE   H2R 4024   5.178   3.194   3.403 -1.7492 -0.1044  0.4681
   32DOPE   H2S 4025   5.038   3.264   3.493 -0.0099  0.8802  0.0048
   32DOPE    C3 4026   4.793   3.441   3.205  0.2232  1.0065  0.5077
   32DOPE    HX 4027   4.791   3.339   3.160  1.6208  1.7280 -1.3350
   32DOPE    HY 4028   4.752   3.514   3.132 -0.0025  0.9836  0.6097
   32DOPE   O31 4029   4.733   3.446   3.339 -0.5877 -0.2148  0.0470
   32DOPE   C31 4030   4.731   3.338   3.411  0.2897  0.1727  0.5096
   32DOPE   O32 4031   4.781   3.232   3.375  0.2497 -0.4024  0.1478
   32DOPE   C32 4032   4.642   3.360   3.526 -0.1941 -0.5614 -0.1019
   32DOPE   H2X 4033   4.671   3.449   3.586  0.4830  0.1796 -1.4796
   32DOPE   H2Y 4034   4.551   3.393   3.471  0.3556  0.6321 -0.3264
   32DOPE   C23 4035   5.247   3.312   3.572  0.0068 -0.2359 -0.1053
   32DOPE   H3R 4036   5.349   3.342   3.540  0.9348 -1.6528  1.3693
   32DOPE   H3S 4037   5.272   3.223   3.633 -4.2684 -2.8119 -1.7082
   32DOPE   C24 4038   5.181   3.409   3.677 -0.5474 -0.5697 -0.2122
   32DOPE   H4R 4039   5.127   3.345   3.750 -0.7019 -1.7990 -1.3679
   32DOPE   H4S 4040   5.098   3.475   3.647 -0.0455 -0.2027 -0.8191
   32DOPE   C25 4041   5.288   3.478   3.760  0.2141  0.0947  0.1918
   32DOPE   H5R 4042   5.359   3.395   3.783 -0.3489 -1.1044 -2.1551
   32DOPE   H5S 4043   5.248   3.522   3.854 -2.8845  0.4941 -1.2173
   32DOPE   C26 4044   5.362   3.584   3.680  0.1688 -0.1894 -1.0052
   32DOPE   H6R 4045   5.285   3.654   3.642 -0.1092 -0.6426 -1.2903
   32DOPE   H6S 4046   5.408   3.539   3.589  1.7018  0.1126 -0.4189
   32DOPE   C27 4047   5.477   3.658   3.748 -0.4075  0.2718  0.0981
   32DOPE   H7R 4048   5.511   3.733   3.673  1.3389 -0.6250 -0.0586
   32DOPE   H7S 4049   5.557   3.582   3.763 -0.2244  0.7244  1.6432
   32DOPE   C28 4050   5.442   3.725   3.879  0.1637 -0.3606 -0.0281
   32DOPE   H8R 4051   5.532   3.784   3.906  0.2450 -0.4593 -0.0823
   32DOPE   H8S 4052   5.421   3.641   3.949  0.7985 -0.2522  0.3035
   32DOPE   C29 4053   5.325   3.827   3.869  0.6372  0.2325  0.0788
   32DOPE   H9R 4054   5.286   3.846   3.768  1.2780 -2.2600 -0.7331
   32DOPE  C210 4055   5.282   3.904   3.973  0.1246  0.6493  0.2150
   32DOPE  H10R 4056   5.203   3.979   3.955 -1.3993 -1.1159 -0.7853
   32DOPE  C211 4057   5.335   3.889   4.113  0.3646  0.3288  0.4170
   32DOPE  H11R 4058   5.438   3.850   4.098  0.3687  0.8406 -1.1378
   32DOPE  H11S 4059   5.274   3.832   4.186  0.9515 -0.2339  0.4715
   32DOPE  C212 4060   5.368   4.024   4.178  0.0169  0.0701 -0.0484
   32DOPE  H12R 4061   5.414   4.094   4.105 -0.2198  0.9080  0.5892
   32DOPE  H12S 4062   5.449   4.013   4.253  0.7947  0.9318 -0.7455
   32DOPE  C213 4063   5.253   4.088   4.253  0.9260 -0.1674  0.3609
   32DOPE  H13R 4064   5.204   4.022   4.328  0.9336  0.4785  0.9498
   32DOPE  H13S 4065   5.183   4.114   4.171  1.0155 -0.8841  0.0555
   32DOPE  C214 4066   5.289   4.225   4.325  0.4043  0.3267  0.6772
   32DOPE  H14R 4067   5.353   4.288   4.259 -1.8116 -0.9436 -2.9706
   32DOPE  H14S 4068   5.347   4.203   4.417  0.1737  0.9111  0.9701
   32DOPE  C215 4069   5.159   4.310   4.363 -0.2959 -0.6858  0.5321
   32DOPE  H15R 4070   5.101   4.322   4.269  0.3152  0.3805  0.2618
   32DOPE  H15S 4071   5.180   4.413   4.401 -0.3337 -0.4622 -0.0424
   32DOPE  C216 4072   5.072   4.239   4.472  0.1700  0.1143  0.7517
   32DOPE  H16R 4073   5.130   4.222   4.565 -1.0869 -0.8173  1.3971
   32DOPE  H16S 4074   5.018   4.149   4.435 -0.4202  0.5534  0.5395
   32DOPE  C217 4075   4.964   4.328   4.543  0.1504 -0.1269  0.0753
   32DOPE  H17R 4076   4.918   4.406   4.479  1.2659  0.5405  0.0656
   32DOPE  H17S 4077   5.013   4.375   4.631  1.1579 -2.7570  1.0336
   32DOPE  C218 4078   4.854   4.246   4.601  0.0496  0.7324  0.1686
   32DOPE  H18R 4079   4.781   4.317   4.646  0.0634  0.1615  1.1148
   32DOPE  H18S 4080   4.881   4.176   4.683 -2.6128 -0.7039 -0.0916
   32DOPE  H18T 4081   4.808   4.182   4.523  0.1139 -0.7925  1.3338
   32DOPE   C33 4082   4.608   3.238   3.609  0.0782  0.3828  0.4499
   32DOPE   H3X 4083   4.587   3.149   3.546 -1.1181  2.1534 -1.7842
   32DOPE   H3Y 4084   4.511   3.256   3.662  0.4506  0.2730  1.1850
   32DOPE   C34 4085   4.717   3.202   3.713 -0.4345  0.3403 -0.8562
   32DOPE   H4X 4086   4.812   3.229   3.663  1.1230 -1.2420  1.0856
   32DOPE   H4Y 4087   4.713   3.257   3.809 -0.3961 -1.3811  0.1708
   32DOPE   C35 4088   4.740   3.052   3.746 -0.2685 -0.1638 -0.9784
   32DOPE   H5X 4089   4.741   3.005   3.646  0.2093  1.2896 -1.6966
   32DOPE   H5Y 4090   4.658   3.021   3.814 -0.1152  0.6063 -0.4195
   32DOPE   C36 4091   4.863   3.015   3.832 -0.1774  0.0957  0.5249
   32DOPE   H6X 4092   4.880   2.905   3.840 -0.7984  0.0809  2.1039
   32DOPE   H6Y 4093   4.839   3.036   3.939  1.1742  0.8003  0.7112
   32DOPE   C37 4094   4.983   3.079   3.782 -0.4166 -0.1818 -0.3178
   32DOPE   H7X 4095   4.975   3.057   3.673 -1.7411 -1.2013 -0.0477
   32DOPE   H7Y 4096   4.993   3.190   3.788 -2.3889 -0.0395  1.5120
   32DOPE   C38 4097   5.115   3.012   3.839 -0.1179 -0.2264  0.1178
   32DOPE   H8X 4098   5.196   3.059   3.780 -1.4063  0.6921 -0.9824
   32DOPE   H8Y 4099   5.118   2.903   3.820  1.5282 -0.4318  1.3491
   32DOPE   C39 4100   5.133   3.046   3.982 -0.5211 -0.1377 -0.3008
   32DOPE   H9X 4101   5.178   3.146   3.990  3.7964 -2.0210  3.6070
   32DOPE  C310 4102   5.124   2.972   4.094  0.2507 -0.4377  0.2627
   32DOPE  H10X 4103   5.133   3.027   4.189 -1.1313 -0.9760  0.7288
   32DOPE  C311 4104   5.074   2.830   4.103 -0.7359  0.3166  0.2058
   32DOPE  H11X 4105   5.089   2.783   4.004  1.0159  1.3107 -0.0672
   32DOPE  H11Y 4106   5.155   2.786   4.165  0.6847  1.7308 -0.5270
   32DOPE  C312 4107   4.931   2.809   4.155  0.1159 -0.0236  0.0932
   32DOPE  H12X 4108   4.915   2.702   4.179  1.4397 -0.5206 -1.0671
   32DOPE  H12Y 4109   4.863   2.831   4.070  1.0642 -0.6290 -0.8544
   32DOPE  C313 4110   4.887   2.887   4.279  0.2558 -0.6783 -0.3013
   32DOPE  H13X 4111   4.878   2.994   4.254 -0.2240 -0.8757 -1.0071
   32DOPE  H13Y 4112   4.783   2.852   4.298  0.7915 -1.5981  1.1311
   32DOPE  C314 4113   4.973   2.869   4.405 -0.1605  0.6634  0.3188
   32DOPE  H14X 4114   5.078   2.893   4.377  0.0240 -1.3163 -0.8125
   32DOPE  H14Y 4115   4.960   2.763   4.435  0.4097  0.8358  1.2037
   32DOPE  C315 4116   4.928   2.969   4.516  0.2636 -0.5474  0.3333
   32DOPE  H15X 4117   4.918   3.074   4.480  1.8739  0.1208  1.7058
   32DOPE  H15Y 4118   5.007   2.980   4.594  1.1593  0.3734 -0.6646
   32DOPE  C316 4119   4.793   2.939   4.579  0.1033  0.4081  0.5087
   32DOPE  H16X 4120   4.803   2.828   4.581  3.2066  0.5135 -1.5538
   32DOPE  H16Y 4121   4.712   2.968   4.508 -0.0381  0.7893  0.8255
   32DOPE  C317 4122   4.755   2.992   4.713  0.5680 -0.4403 -0.4984
   32DOPE  H17X 4123   4.801   2.924   4.788 -0.8708  0.4672  1.2927
   32DOPE  H17Y 4124   4.802   3.092   4.723  0.6027 -0.2923 -1.9288
   32DOPE  C318 4125   4.606   2.993   4.743 -0.2949 -0.2345 -0.1957
   32DOPE  H18X 4126   4.592   2.986   4.853 -0.6764  0.7537 -0.1657
   32DOPE  H18Y 4127   4.555   3.086   4.709  0.8405  0.1309 -0.9816
   32DOPE  H18Z 4128   4.562   2.904   4.694  1.3019 -2.0145  1.4342
   33DOPE     N 4129   4.394   2.451   3.120  0.1376  0.1856 -0.2330
   33DOPE   HN1 4130   4.315   2.422   3.183  0.7535  1.1267  1.0134
   33DOPE   HN2 4131   4.416   2.365   3.066 -1.6429  0.5974 -1.7245
   33DOPE   HN3 4132   4.473   2.485   3.178 -0.2095  0.7952 -0.1110
   33DOPE   C12 4133   4.345   2.553   3.021 -0.4856  0.1757 -0.4804
   33DOPE  H12A 4134   4.412   2.536   2.934 -1.1506 -0.3242 -0.9042
   33DOPE  H12B 4135   4.351   2.654   3.066  0.6912 -0.2410  0.3463
   33DOPE   C11 4136   4.203   2.533   2.978 -0.3445 -0.0188  0.6648
   33DOPE  H11A 4137   4.205   2.430   2.935  2.4303 -0.0621  0.7203
   33DOPE  H11B 4138   4.182   2.610   2.901  0.3148 -1.1057 -0.6345
   33DOPE     P 4139   4.064   2.670   3.157 -0.1309  0.3272  0.2061
   33DOPE   O13 4140   3.946   2.645   3.247  0.1019  0.7756  0.4385
   33DOPE   O14 4141   4.037   2.773   3.053  0.1353  0.3638  0.4409
   33DOPE   O11 4142   4.184   2.707   3.252  0.3618  0.1897 -0.0069
   33DOPE   O12 4143   4.110   2.537   3.083  0.2960 -0.8707  0.0289
   33DOPE    C1 4144   4.181   2.792   3.356 -0.2870  0.5990  0.3859
   33DOPE    HA 4145   4.111   2.878   3.345  0.5895  1.3355  0.4950
   33DOPE    HB 4146   4.280   2.839   3.366  0.0612 -0.2933  1.2970
   33DOPE    C2 4147   4.154   2.716   3.484 -0.5031  0.0568  0.1464
   33DOPE    HS 4148   4.044   2.699   3.491 -0.4294 -1.6580 -1.9224
   33DOPE   O21 4149   4.216   2.786   3.601  0.0129 -1.2810  0.4988
   33DOPE   C21 4150   4.150   2.885   3.652  0.2845  0.6320 -0.5094
   33DOPE   O22 4151   4.045   2.929   3.616 -0.0825 -0.5076  0.2614
   33DOPE   C22 4152   4.208   2.906   3.793  0.2391 -0.6012 -0.6124
   33DOPE   H2R 4153   4.319   2.910   3.789  0.3381 -2.0494 -0.0023
   33DOPE   H2S 4154   4.181   2.812   3.846 -0.4286 -0.4485 -0.6734
   33DOPE    C3 4155   4.227   2.574   3.484 -0.0132 -0.1064 -0.4460
   33DOPE    HX 4156   4.336   2.586   3.465 -0.0589  0.7058 -0.2365
   33DOPE    HY 4157   4.189   2.515   3.398  0.7061  0.0525 -0.8800
   33DOPE   O31 4158   4.207   2.494   3.603  0.0388  0.1373  0.2866
   33DOPE   C31 4159   4.090   2.493   3.663  0.2606  0.3414 -0.0598
   33DOPE   O32 4160   3.986   2.547   3.630  0.1245  0.1418 -0.5443
   33DOPE   C32 4161   4.105   2.404   3.788  0.0247  0.3818 -0.8902
   33DOPE   H2X 4162   4.138   2.301   3.762 -0.7533 -0.1370  0.0793
   33DOPE   H2Y 4163   4.193   2.445   3.841 -0.9371 -0.9904  2.0002
   33DOPE   C23 4164   4.155   3.039   3.859 -0.2874  1.0860 -0.2147
   33DOPE   H3R 4165   4.050   3.028   3.891 -0.1373  0.6062  0.1258
   33DOPE   H3S 4166   4.163   3.125   3.788 -0.3176  0.4057 -1.0535
   33DOPE   C24 4167   4.235   3.056   3.988 -0.0460  0.2154 -0.4552
   33DOPE   H4R 4168   4.224   2.969   4.056 -1.3467  0.9484  0.3049
   33DOPE   H4S 4169   4.184   3.131   4.052 -0.7514  1.1551 -2.0501
   33DOPE   C25 4170   4.390   3.086   3.974  0.3899  0.0570 -0.0013
   33DOPE   H5R 4171   4.408   3.139   3.879  0.2955 -0.0495 -0.0803
   33DOPE   H5S 4172   4.454   2.995   3.968  1.2435  0.2088  4.0789
   33DOPE   C26 4173   4.438   3.169   4.099 -0.2649 -0.0331 -0.2896
   33DOPE   H6R 4174   4.395   3.134   4.195  4.2604 -1.2994  1.5297
   33DOPE   H6S 4175   4.392   3.268   4.079 -1.5342 -0.7942 -1.3632
   33DOPE   C27 4176   4.583   3.165   4.104 -0.5631  0.6765 -0.2444
   33DOPE   H7R 4177   4.641   3.215   4.024  0.6230 -2.5582 -1.5988
   33DOPE   H7S 4178   4.618   3.061   4.086 -0.3148  0.6788  0.2105
   33DOPE   C28 4179   4.631   3.204   4.249 -0.1108  0.8332  0.7244
   33DOPE   H8R 4180   4.735   3.168   4.258 -0.9578 -1.7513  1.1366
   33DOPE   H8S 4181   4.573   3.132   4.310 -0.5598 -1.4753 -2.1763
   33DOPE   C29 4182   4.623   3.345   4.301 -0.1751 -0.6470  0.2764
   33DOPE   H9R 4183   4.678   3.417   4.239  0.9760 -1.1400  0.6923
   33DOPE  C210 4184   4.577   3.397   4.412 -0.6529 -0.0441  0.0702
   33DOPE  H10R 4185   4.585   3.506   4.415 -1.1745  0.0264 -0.8024
   33DOPE  C211 4186   4.523   3.328   4.533  0.0820 -0.1694  0.2379
   33DOPE  H11R 4187   4.566   3.384   4.619 -0.9160 -0.4077  0.9060
   33DOPE  H11S 4188   4.557   3.222   4.534 -0.5366 -0.4326 -1.6604
   33DOPE  C212 4189   4.374   3.327   4.551  0.1233  0.1572  0.0831
   33DOPE  H12R 4190   4.342   3.433   4.540 -0.2114 -0.1499 -2.4964
   33DOPE  H12S 4191   4.358   3.287   4.653  2.1076 -0.4963  0.1822
   33DOPE  C213 4192   4.300   3.241   4.448 -0.7915 -0.4634  0.2316
   33DOPE  H13R 4193   4.348   3.142   4.459 -1.6151 -0.9142 -0.1584
   33DOPE  H13S 4194   4.333   3.283   4.350  0.2104 -1.0539  0.2970
   33DOPE  C214 4195   4.148   3.236   4.466 -0.1487  0.3729 -0.2063
   33DOPE  H14R 4196   4.112   3.167   4.387  1.1163 -2.9840  1.9069
   33DOPE  H14S 4197   4.099   3.335   4.451  0.9569  0.8061 -1.0355
   33DOPE  C215 4198   4.105   3.170   4.604  0.2909  1.1022 -0.4276
   33DOPE  H15R 4199   4.149   3.208   4.699 -0.2630  1.1879 -0.2054
   33DOPE  H15S 4200   4.144   3.066   4.593 -2.5871  0.0441 -1.6720
   33DOPE  C216 4201   3.953   3.164   4.599 -0.1778 -0.3040  0.2351
   33DOPE  H16R 4202   3.918   3.126   4.501 -2.6877 -0.3395  1.0715
   33DOPE  H16S 4203   3.901   3.262   4.607 -0.1256 -0.3119  0.6893
   33DOPE  C217 4204   3.902   3.068   4.705 -0.3149 -0.2912  0.1595
   33DOPE  H17R 4205   3.924   3.116   4.803  2.8860 -0.5198 -0.3551
   33DOPE  H17S 4206   3.944   2.966   4.692 -0.8774 -0.4038 -0.8720
   33DOPE  C218 4207   3.753   3.066   4.692 -0.3415  0.9801 -0.1923
   33DOPE  H18R 4208   3.709   3.168   4.687 -4.4859 -0.6801 -3.2960
   33DOPE  H18S 4209   3.704   3.016   4.779  2.0498 -2.9665 -0.8607
   33DOPE  H18T 4210   3.733   3.015   4.596 -0.0578  1.0584 -0.2935
   33DOPE   C33 4211   3.973   2.391   3.860 -0.0467  0.6590 -0.4337
   33DOPE   H3X 4212   3.978   2.309   3.934 -0.4166  0.9992 -0.0170
   33DOPE   H3Y 4213   3.889   2.374   3.789  3.0787 -2.8178 -3.6858
   33DOPE   C34 4214   3.934   2.515   3.956  0.3450  0.1671  0.4586
   33DOPE   H4X 4215   3.912   2.596   3.883  0.4031  0.1536  0.4266
   33DOPE   H4Y 4216   3.835   2.494   4.003  0.2399 -0.7229 -0.1423
   33DOPE   C35 4217   4.033   2.554   4.059  0.5901  0.9170  0.5414
   33DOPE   H5X 4218   4.059   2.661   4.045 -0.9742  1.2164 -0.2938
   33DOPE   H5Y 4219   4.125   2.495   4.041  0.5047  1.0476 -0.3866
   33DOPE   C36 4220   3.986   2.527   4.204  0.3828  0.1536 -0.1357
   33DOPE   H6X 4221   3.980   2.419   4.229  1.1329  0.7945  3.2648
   33DOPE   H6Y 4222   3.886   2.567   4.229 -0.0821 -1.5639  0.8608
   33DOPE   C37 4223   4.082   2.589   4.307 -0.0282  0.3118 -0.1984
   33DOPE   H7X 4224   4.183   2.555   4.277 -0.3677 -1.3782  0.4145
   33DOPE   H7Y 4225   4.078   2.700   4.301 -0.0002  0.8812  5.4414
   33DOPE   C38 4226   4.059   2.538   4.443 -0.2249  0.2510  0.5230
   33DOPE   H8X 4227   3.950   2.555   4.456 -0.5833 -2.4779  1.8695
   33DOPE   H8Y 4228   4.108   2.594   4.526 -0.5273  0.8616  0.2940
   33DOPE   C39 4229   4.074   2.385   4.461  0.3515 -0.0784 -0.1146
   33DOPE   H9X 4230   4.005   2.330   4.395 -0.6665  2.3573 -1.2012
   33DOPE  C310 4231   4.136   2.312   4.551 -0.3365 -0.0042 -0.0125
   33DOPE  H10X 4232   4.132   2.203   4.544  2.4627 -0.2161  0.6486
   33DOPE  C311 4233   4.210   2.366   4.668  0.0365  0.0818 -0.5122
   33DOPE  H11X 4234   4.318   2.344   4.656  0.1286  0.5307 -0.5394
   33DOPE  H11Y 4235   4.198   2.477   4.666 -0.3672  0.0934  1.0522
   33DOPE  C312 4236   4.154   2.316   4.807 -0.3090 -0.4158  0.0612
   33DOPE  H12X 4237   4.229   2.362   4.876  0.1090 -1.1250  0.0915
   33DOPE  H12Y 4238   4.170   2.206   4.811  0.0744 -0.3600  3.3819
   33DOPE  C313 4239   4.007   2.352   4.833 -0.1281  0.2780 -0.0630
   33DOPE  H13X 4240   4.008   2.462   4.823 -0.0442  0.3508  0.6905
   33DOPE  H13Y 4241   3.938   2.308   4.758  0.0279  0.9123 -0.5872
   33DOPE  C314 4242   3.951   2.305   4.971  0.0106 -0.3778  0.3225
   33DOPE  H14X 4243   4.034   2.252   5.023  0.5045  1.8893  2.0180
   33DOPE  H14Y 4244   3.867   2.233   4.963 -2.5205  2.2504  1.4913
   33DOPE  C315 4245   3.921   2.427   5.057  0.0274 -0.1607  0.4282
   33DOPE  H15X 4246   3.999   2.505   5.068 -0.9503  0.8024  0.7573
   33DOPE  H15Y 4247   3.903   2.395   5.162  0.5730  2.1127  1.2828
   33DOPE  C316 4248   3.795   2.503   5.009  0.2444  0.7165 -0.0087
   33DOPE  H16X 4249   3.704   2.442   5.023  0.0073  1.4641  2.0831
   33DOPE  H16Y 4250   3.801   2.520   4.899  1.4136  0.2805 -0.0287
   33DOPE  C317 4251   3.773   2.646   5.068 -0.5817  0.0403  0.0222
   33DOPE  H17X 4252   3.754   2.622   5.175  0.3666 -0.8986 -0.0074
   33DOPE  H17Y 4253   3.865   2.706   5.055 -0.7173  0.2301 -0.0608
   33DOPE  C318 4254   3.650   2.723   5.019  0.2953 -0.0285  0.2954
   33DOPE  H18X 4255   3.651   2.827   5.056 -2.8168 -0.1054  0.8781
   33DOPE  H18Y 4256   3.618   2.718   4.912 -0.6919  0.3030  0.5711
   33DOPE  H18Z 4257   3.557   2.682   5.063  0.6308  0.5392  1.5559
   34DOPE     N 4258   0.681   4.566   3.130  0.0007 -0.0725  0.0363
   34DOPE   HN1 4259   0.590   4.553   3.081 -0.8720  0.4458  1.4666
   34DOPE   HN2 4260   0.764   4.531   3.078 -0.3035 -0.6929 -0.0385
   34DOPE   HN3 4261   0.678   4.523   3.224 -0.1425 -1.7517 -0.6992
   34DOPE   C12 4262   0.700   4.710   3.141  0.4767 -0.2978  0.2692
   34DOPE  H12A 4263   0.624   4.765   3.200 -0.6760  0.0894 -1.5070
   34DOPE  H12B 4264   0.700   4.748   3.037  0.9470  0.1745  0.4402
   34DOPE   C11 4265   0.846   4.731   3.190 -0.3042 -0.5896 -0.7090
   34DOPE  H11A 4266   0.858   4.703   3.297 -0.1657  3.2898  0.4287
   34DOPE  H11B 4267   0.875   4.838   3.196 -0.4010 -0.4911 -1.7649
   34DOPE     P 4268   1.028   4.703   2.990 -0.6132  0.4272  0.0555
   34DOPE   O13 4269   1.054   4.849   2.996  0.1924  0.9914 -0.4613
   34DOPE   O14 4270   0.986   4.652   2.859  0.2891 -0.6592 -0.0837
   34DOPE   O11 4271   1.167   4.635   3.017  0.2812  0.4572  0.5772
   34DOPE   O12 4272   0.932   4.657   3.104  0.2793 -0.7400  0.6263
   34DOPE    C1 4273   1.170   4.498   3.057  0.1593 -0.0558 -0.2471
   34DOPE    HA 4274   1.244   4.451   2.988  1.6948 -0.6862  1.7272
   34DOPE    HB 4275   1.075   4.446   3.034  0.2774 -1.4685  2.1413
   34DOPE    C2 4276   1.234   4.469   3.196  0.7029  0.2446 -0.4214
   34DOPE    HS 4277   1.159   4.515   3.264  0.0390 -0.9024 -0.3504
   34DOPE   O21 4278   1.361   4.529   3.197 -0.5500 -0.0810 -0.5195
   34DOPE   C21 4279   1.380   4.613   3.298 -0.5182  0.1142 -0.6043
   34DOPE   O22 4280   1.291   4.663   3.364  0.0944 -0.2037  0.0716
   34DOPE   C22 4281   1.531   4.647   3.315  0.1505 -0.7091 -0.3336
   34DOPE   H2R 4282   1.548   4.730   3.243 -2.0466  0.6808  0.6598
   34DOPE   H2S 4283   1.592   4.556   3.298  1.1637 -0.0247 -0.4916
   34DOPE    C3 4284   1.248   4.316   3.222  0.1475  0.0871 -0.2879
   34DOPE    HX 4285   1.312   4.289   3.135  0.8202 -0.4786  0.3690
   34DOPE    HY 4286   1.160   4.249   3.214 -0.2398  0.6200 -0.5817
   34DOPE   O31 4287   1.318   4.288   3.345 -0.2290  0.7849  0.1285
   34DOPE   C31 4288   1.236   4.303   3.452  0.2863  0.6483 -0.1183
   34DOPE   O32 4289   1.120   4.347   3.440 -0.0322  0.5697 -0.6982
   34DOPE   C32 4290   1.304   4.268   3.579  0.4364 -0.1527  0.1064
   34DOPE   H2X 4291   1.303   4.157   3.574 -1.3136 -0.2191  1.0874
   34DOPE   H2Y 4292   1.409   4.305   3.577  0.6847 -0.8541 -0.5528
   34DOPE   C23 4293   1.567   4.708   3.460  1.0773  0.2130  0.3445
   34DOPE   H3R 4294   1.496   4.792   3.477 -1.5560 -1.6679 -0.7247
   34DOPE   H3S 4295   1.671   4.745   3.453  0.5610  1.4858 -1.2217
   34DOPE   C24 4296   1.569   4.604   3.575  0.6639  0.1457  0.1069
   34DOPE   H4R 4297   1.651   4.531   3.554  0.0011  0.1787 -3.1654
   34DOPE   H4S 4298   1.473   4.550   3.578  1.1337 -0.6772  0.8823
   34DOPE   C25 4299   1.591   4.680   3.706  0.2737  0.4553 -0.1261
   34DOPE   H5R 4300   1.687   4.736   3.701 -1.2357  3.2153 -0.6984
   34DOPE   H5S 4301   1.603   4.608   3.790  2.0894  1.4319  0.4965
   34DOPE   C26 4302   1.478   4.766   3.758 -0.3365  0.0831  0.1012
   34DOPE   H6R 4303   1.389   4.701   3.771  0.1133 -1.1049 -2.1340
   34DOPE   H6S 4304   1.454   4.852   3.692  2.3463 -0.4102 -1.7171
   34DOPE   C27 4305   1.518   4.834   3.889 -0.2881  0.5915  0.1040
   34DOPE   H7R 4306   1.614   4.888   3.876  0.5091 -1.0635 -1.2952
   34DOPE   H7S 4307   1.540   4.750   3.959 -0.9419  0.0914 -0.2817
   34DOPE   C28 4308   1.405   4.923   3.936 -0.1803 -0.4367  0.0627
   34DOPE   H8R 4309   1.316   4.859   3.952 -0.0718 -0.4000  0.8661
   34DOPE   H8S 4310   1.372   5.000   3.863  1.8323  0.5263  0.0975
   34DOPE   C29 4311   1.438   4.985   4.067  0.0511 -0.1670 -0.4802
   34DOPE   H9R 4312   1.397   4.930   4.153  0.2471 -1.4414 -1.1614
   34DOPE  C210 4313   1.495   5.107   4.081 -0.0499  0.2509  0.1410
   34DOPE  H10R 4314   1.513   5.145   4.183  0.3717 -0.8373  0.4815
   34DOPE  C211 4315   1.544   5.207   3.979  0.2732  0.2489  0.9490
   34DOPE  H11R 4316   1.468   5.287   3.965  0.4415  0.4011  0.8822
   34DOPE  H11S 4317   1.545   5.167   3.875 -3.2630  0.5215  0.6845
   34DOPE  C212 4318   1.687   5.258   3.990  1.3066  0.3615 -0.4318
   34DOPE  H12R 4319   1.760   5.180   3.960  2.4299  1.8888 -1.8122
   34DOPE  H12S 4320   1.713   5.286   4.094 -0.1028  0.4228 -0.0696
   34DOPE  C213 4321   1.724   5.374   3.900  0.3307 -1.2781 -0.0540
   34DOPE  H13R 4322   1.651   5.447   3.940  1.4529  0.2366 -0.6715
   34DOPE  H13S 4323   1.714   5.333   3.797  1.5577 -2.5867  0.3164
   34DOPE  C214 4324   1.875   5.419   3.926  0.0695  0.0244 -0.2750
   34DOPE  H14R 4325   1.908   5.481   3.839  0.2381  0.4711  0.1009
   34DOPE  H14S 4326   1.944   5.332   3.924  0.3237  0.1640  1.2535
   34DOPE  C215 4327   1.885   5.514   4.050 -0.2475 -0.6383  0.2396
   34DOPE  H15R 4328   1.899   5.448   4.138  0.2845 -1.3906 -0.3896
   34DOPE  H15S 4329   1.790   5.570   4.058 -0.3848 -1.1103  2.4899
   34DOPE  C216 4330   2.010   5.607   4.048  0.4699  1.0073 -0.1863
   34DOPE  H16R 4331   1.978   5.698   3.993 -2.0501  0.9599  1.0725
   34DOPE  H16S 4332   2.099   5.573   3.991  0.0452  0.1758 -0.3702
   34DOPE  C217 4333   2.037   5.658   4.194  0.3131  0.8565  0.4741
   34DOPE  H17R 4334   1.939   5.694   4.233 -0.2164 -0.2581  0.2284
   34DOPE  H17S 4335   2.099   5.750   4.187  2.5477 -0.5498  0.8697
   34DOPE  C218 4336   2.118   5.549   4.280  0.5164  1.4756  0.5512
   34DOPE  H18R 4337   2.113   5.583   4.385  0.3251 -1.2483  1.4945
   34DOPE  H18S 4338   2.219   5.555   4.235 -0.6908 -1.1125 -2.9692
   34DOPE  H18T 4339   2.064   5.452   4.272 -0.9627  2.0422  2.7297
   34DOPE   C33 4340   1.229   4.302   3.708  0.3601  0.2414  0.4073
   34DOPE   H3X 4341   1.270   4.248   3.796 -2.4370  1.5812  2.7008
   34DOPE   H3Y 4342   1.122   4.273   3.699  1.0183 -2.2852 -0.1394
   34DOPE   C34 4343   1.234   4.456   3.745 -0.2364  0.3940 -0.2697
   34DOPE   H4X 4344   1.340   4.484   3.767 -0.4881  0.7471  0.5268
   34DOPE   H4Y 4345   1.204   4.512   3.654  0.6371  0.3893 -0.5697
   34DOPE   C35 4346   1.130   4.489   3.857  0.0492 -0.5084 -0.0529
   34DOPE   H5X 4347   1.185   4.479   3.953 -0.6199 -1.7032  0.2115
   34DOPE   H5Y 4348   1.039   4.427   3.855 -0.2023 -0.1723  0.6046
   34DOPE   C36 4349   1.107   4.639   3.859 -0.5923  0.3780  0.1027
   34DOPE   H6X 4350   1.058   4.677   3.766  0.1072  3.2515  0.8092
   34DOPE   H6Y 4351   1.205   4.690   3.866 -1.3035  1.9752 -0.7797
   34DOPE   C37 4352   1.003   4.686   3.965  0.5633  0.1510  0.6810
   34DOPE   H7X 4353   0.952   4.596   4.005  0.2982 -1.1187 -2.2074
   34DOPE   H7Y 4354   1.048   4.735   4.054 -2.6140 -0.2812  2.6767
   34DOPE   C38 4355   0.892   4.776   3.916 -0.0591  0.2461 -0.1433
   34DOPE   H8X 4356   0.938   4.875   3.894 -2.1340  1.2927 -0.0523
   34DOPE   H8Y 4357   0.839   4.808   4.008  2.7582 -0.2498  1.7646
   34DOPE   C39 4358   0.807   4.722   3.803  0.2090 -1.0728 -0.0149
   34DOPE   H9X 4359   0.859   4.694   3.710 -2.5166 -0.2819 -1.8868
   34DOPE  C310 4360   0.680   4.689   3.806  1.3403 -0.4088 -0.1880
   34DOPE  H10X 4361   0.649   4.617   3.729  3.3548 -1.8652  0.2777
   34DOPE  C311 4362   0.581   4.701   3.925 -0.2170  0.2576 -0.5180
   34DOPE  H11X 4363   0.505   4.621   3.935 -0.5413  0.6194 -0.0526
   34DOPE  H11Y 4364   0.643   4.689   4.016  1.3286 -1.9889 -1.7826
   34DOPE  C312 4365   0.519   4.838   3.924  0.4323  0.4103  0.2725
   34DOPE  H12X 4366   0.458   4.847   3.831 -0.3884  0.0993  0.7699
   34DOPE  H12Y 4367   0.605   4.908   3.930  0.6556  0.1538  0.0801
   34DOPE  C313 4368   0.417   4.851   4.043 -0.1855  0.1181  0.2967
   34DOPE  H13X 4369   0.370   4.951   4.033 -4.0686 -0.8552  5.2810
   34DOPE  H13Y 4370   0.333   4.779   4.037 -0.8838  0.9186  0.3592
   34DOPE  C314 4371   0.479   4.848   4.180  0.9584 -0.0818  0.1760
   34DOPE  H14X 4372   0.570   4.911   4.186  0.5394  0.5552  0.0816
   34DOPE  H14Y 4373   0.504   4.744   4.209 -1.9843 -2.0745 -3.5340
   34DOPE  C315 4374   0.367   4.902   4.273  0.3086  0.3755  0.5305
   34DOPE  H15X 4375   0.265   4.892   4.230  0.2274 -2.0186  1.1114
   34DOPE  H15Y 4376   0.392   5.010   4.270  0.3710  0.3442 -0.6482
   34DOPE  C316 4377   0.365   4.843   4.415 -0.7315 -0.2028 -0.6339
   34DOPE  H16X 4378   0.452   4.868   4.479 -2.3554  0.2010  1.5132
   34DOPE  H16Y 4379   0.356   4.732   4.409  1.8526 -0.6421  1.6535
   34DOPE  C317 4380   0.237   4.893   4.487  0.0854 -0.4615  0.4041
   34DOPE  H17X 4381   0.246   5.001   4.510 -2.7123  0.3349 -1.6919
   34DOPE  H17Y 4382   0.153   4.894   4.415 -1.3301  0.6789  2.0036
   34DOPE  C318 4383   0.203   4.819   4.610 -0.4050  0.7930 -0.0555
   34DOPE  H18X 4384   0.107   4.864   4.641 -0.0875  0.1683  2.0053
   34DOPE  H18Y 4385   0.198   4.710   4.589  3.2937  0.9075 -2.4137
   34DOPE  H18Z 4386   0.283   4.827   4.687 -0.0510 -0.5877 -0.2539
   35DOPE     N 4387   6.082   3.766   2.494  0.7999  0.3245 -0.2138
   35DOPE   HN1 4388   6.127   3.818   2.416 -0.3933 -2.3633 -2.8949
   35DOPE   HN2 4389   5.991   3.735   2.455  0.7274  1.6715 -1.1804
   35DOPE   HN3 4390   6.065   3.821   2.581 -1.8582 -0.9582  0.1882
   35DOPE   C12 4391   6.154   3.635   2.518  0.2842 -0.1048 -0.2045
   35DOPE  H12A 4392   6.261   3.664   2.514 -0.1446  1.6641  0.3363
   35DOPE  H12B 4393   6.143   3.571   2.428 -2.0104 -1.3782  0.9133
   35DOPE   C11 4394   6.104   3.568   2.644 -0.1873  0.0527 -0.2859
   35DOPE  H11A 4395   6.120   3.623   2.740 -3.0431 -0.5867  0.6393
   35DOPE  H11B 4396   6.160   3.473   2.661  0.1132  0.0602 -1.1978
   35DOPE     P 4397   5.899   3.403   2.633 -0.1082  0.1445  0.2413
   35DOPE   O13 4398   5.985   3.317   2.549 -0.3951  0.5254  0.6609
   35DOPE   O14 4399   5.758   3.420   2.603  0.1532  0.6795 -0.1791
   35DOPE   O11 4400   5.912   3.345   2.777  0.0018  0.4277  0.3246
   35DOPE   O12 4401   5.965   3.547   2.650 -0.2449  0.2955 -0.0504
   35DOPE    C1 4402   5.870   3.418   2.886 -0.1454  0.7326  0.1547
   35DOPE    HA 4403   5.762   3.441   2.876  0.0439  0.9416 -1.6154
   35DOPE    HB 4404   5.934   3.509   2.887  2.0661 -0.7616 -0.1322
   35DOPE    C2 4405   5.893   3.349   3.022  0.0367  0.5131  0.1763
   35DOPE    HS 4406   5.879   3.422   3.104 -3.9699  0.0948  0.0650
   35DOPE   O21 4407   6.018   3.275   3.032 -0.0253 -0.1090 -0.4135
   35DOPE   C21 4408   6.124   3.350   3.065 -0.4016 -0.2177 -0.7570
   35DOPE   O22 4409   6.123   3.472   3.080 -0.7401 -0.2384  0.4071
   35DOPE   C22 4410   6.250   3.262   3.083 -0.4691 -0.0025  0.1455
   35DOPE   H2R 4411   6.342   3.322   3.071 -0.2410 -0.7289 -2.1735
   35DOPE   H2S 4412   6.244   3.182   3.007  0.9101  0.6915 -0.7330
   35DOPE    C3 4413   5.767   3.250   3.040 -0.4953  0.0794 -0.0191
   35DOPE    HX 4414   5.780   3.177   2.958  3.3936  0.4568  0.0779
   35DOPE    HY 4415   5.674   3.305   3.016 -0.8965 -0.2177  0.8096
   35DOPE   O31 4416   5.769   3.190   3.171 -0.3026  0.0520 -0.1650
   35DOPE   C31 4417   5.726   3.261   3.264  0.4796 -0.8122 -0.7283
   35DOPE   O32 4418   5.678   3.375   3.248  0.2981 -0.1345 -0.5114
   35DOPE   C32 4419   5.763   3.192   3.389 -0.4890 -0.7931  0.0571
   35DOPE   H2X 4420   5.672   3.148   3.435 -0.9592  1.8032  1.8618
   35DOPE   H2Y 4421   5.826   3.102   3.375 -0.9501 -1.2746  0.9945
   35DOPE   C23 4422   6.233   3.196   3.222  0.2485 -0.7859  0.3782
   35DOPE   H3R 4423   6.296   3.104   3.220  1.3626 -0.0609  0.9451
   35DOPE   H3S 4424   6.132   3.159   3.250 -0.7954  1.7035  0.1192
   35DOPE   C24 4425   6.275   3.291   3.331 -0.3999 -0.4897 -0.3371
   35DOPE   H4R 4426   6.206   3.378   3.334  0.7730  0.5664 -2.0389
   35DOPE   H4S 4427   6.380   3.322   3.309  0.2522 -2.6445 -0.5655
   35DOPE   C25 4428   6.271   3.228   3.469 -0.0944  0.5509 -0.0994
   35DOPE   H5R 4429   6.368   3.175   3.474  0.9669  2.5140  1.5606
   35DOPE   H5S 4430   6.192   3.149   3.464  2.0151 -1.9534  2.6630
   35DOPE   C26 4431   6.253   3.305   3.598 -0.8837  0.4190  0.3744
   35DOPE   H6R 4432   6.148   3.339   3.612  0.2053  3.8573  1.2762
   35DOPE   H6S 4433   6.315   3.395   3.615 -1.1242  0.4712  1.0280
   35DOPE   C27 4434   6.279   3.215   3.715 -0.6006 -0.3058  0.9190
   35DOPE   H7R 4435   6.383   3.176   3.720 -0.3057  0.5441  1.5354
   35DOPE   H7S 4436   6.219   3.122   3.704 -2.5663  0.9827  0.2596
   35DOPE   C28 4437   6.229   3.278   3.848  0.0979  0.6187 -0.1260
   35DOPE   H8R 4438   6.118   3.270   3.851 -0.1254  2.7284 -0.6949
   35DOPE   H8S 4439   6.271   3.380   3.837  0.9457  0.0721 -2.3884
   35DOPE   C29 4440   6.277   3.212   3.969 -0.4402  0.2603  0.0984
   35DOPE   H9R 4441   6.286   3.103   3.954 -1.0618  0.1562  0.4431
   35DOPE  C210 4442   6.324   3.273   4.073 -0.1394 -0.4816 -0.7904
   35DOPE  H10R 4443   6.363   3.212   4.156  0.2030  0.8747  0.0848
   35DOPE  C211 4444   6.338   3.422   4.097 -0.3921 -0.0320  0.6707
   35DOPE  H11R 4445   6.309   3.490   4.015  2.2330  0.6543  0.2194
   35DOPE  H11S 4446   6.445   3.440   4.118 -0.2595 -1.4066  1.3299
   35DOPE  C212 4447   6.264   3.473   4.223 -0.4535  0.1491  0.1892
   35DOPE  H12R 4448   6.327   3.554   4.267 -1.5218  0.8570  0.4472
   35DOPE  H12S 4449   6.261   3.394   4.301 -0.8615 -0.1225 -0.0986
   35DOPE  C213 4450   6.129   3.540   4.192 -0.2492  0.1967  0.6245
   35DOPE  H13R 4451   6.057   3.485   4.128  0.9513 -0.9300  0.1999
   35DOPE  H13S 4452   6.153   3.631   4.133 -0.6631 -0.6816 -0.9574
   35DOPE  C214 4453   6.062   3.568   4.329 -0.3208 -0.4611 -0.5602
   35DOPE  H14R 4454   6.044   3.476   4.388 -0.8927  1.1470  1.9253
   35DOPE  H14S 4455   5.966   3.619   4.308  0.5885  2.4654  1.6550
   35DOPE  C215 4456   6.135   3.661   4.427  0.0748  0.4239 -0.4624
   35DOPE  H15R 4457   6.192   3.739   4.372  1.0304 -0.6319 -1.0037
   35DOPE  H15S 4458   6.204   3.592   4.480  0.1429  1.1643  0.4398
   35DOPE  C216 4459   6.044   3.728   4.533 -0.2065  0.0867  0.5509
   35DOPE  H16R 4460   6.019   3.658   4.615 -0.1921  1.1221  1.4603
   35DOPE  H16S 4461   5.957   3.765   4.475  0.0562  1.5533  1.0450
   35DOPE  C217 4462   6.106   3.851   4.601  0.5820 -0.2955  0.2124
   35DOPE  H17R 4463   6.105   3.932   4.524  0.9463 -0.5252 -0.0413
   35DOPE  H17S 4464   6.208   3.827   4.639  1.0227  1.4958  0.2705
   35DOPE  C218 4465   6.021   3.894   4.721  0.0650 -0.0254  0.0771
   35DOPE  H18R 4466   6.070   3.976   4.778 -0.2164  1.4067 -1.6716
   35DOPE  H18S 4467   5.992   3.804   4.780 -0.1354 -1.1264 -1.6119
   35DOPE  H18T 4468   5.924   3.945   4.700  0.7664  1.5211  0.5024
   35DOPE   C33 4469   5.829   3.286   3.490  1.0065 -0.2525 -1.0625
   35DOPE   H3X 4470   5.770   3.379   3.503  1.8802 -0.0547  2.8080
   35DOPE   H3Y 4471   5.930   3.311   3.448  1.4166 -0.9769 -0.5258
   35DOPE   C34 4472   5.842   3.222   3.632  0.3744 -0.3352  0.1258
   35DOPE   H4X 4473   5.741   3.177   3.647 -0.1191 -0.2979 -2.5718
   35DOPE   H4Y 4474   5.914   3.137   3.633 -0.0456 -0.6924  1.1417
   35DOPE   C35 4475   5.868   3.317   3.744 -0.1536 -0.2316 -1.1284
   35DOPE   H5X 4476   5.800   3.402   3.720 -3.0045 -1.2367  2.3788
   35DOPE   H5Y 4477   5.971   3.358   3.749 -0.4769  0.5068 -0.2080
   35DOPE   C36 4478   5.822   3.253   3.877 -0.4655  0.8867  0.1629
   35DOPE   H6X 4479   5.883   3.159   3.879  0.5152  1.3362 -2.9492
   35DOPE   H6Y 4480   5.716   3.221   3.872 -0.1605 -0.8865  2.6893
   35DOPE   C37 4481   5.841   3.351   3.999  0.1575 -1.3223 -0.0878
   35DOPE   H7X 4482   5.948   3.345   4.028  0.2528 -0.9387 -0.3500
   35DOPE   H7Y 4483   5.825   3.450   3.952  0.1056 -0.8651  0.8713
   35DOPE   C38 4484   5.737   3.323   4.106 -0.1315  0.4512  0.5680
   35DOPE   H8X 4485   5.729   3.213   4.118  1.5134  0.4337  1.8383
   35DOPE   H8Y 4486   5.635   3.349   4.072 -0.7992 -2.5578  0.0121
   35DOPE   C39 4487   5.766   3.393   4.231  0.1455  0.4497  0.5445
   35DOPE   H9X 4488   5.837   3.350   4.304  1.0680  3.4717  1.5544
   35DOPE  C310 4489   5.710   3.507   4.273  0.2396 -0.6798  0.1041
   35DOPE  H10X 4490   5.740   3.548   4.371 -1.5188  0.9045  0.0278
   35DOPE  C311 4491   5.601   3.590   4.203  0.1926 -0.2913 -0.7985
   35DOPE  H11X 4492   5.639   3.690   4.177 -0.6196  0.5999  1.2252
   35DOPE  H11Y 4493   5.556   3.538   4.115 -1.6232 -2.8280  1.4487
   35DOPE  C312 4494   5.484   3.617   4.299 -0.4934  0.0079 -0.3039
   35DOPE  H12X 4495   5.453   3.524   4.351  1.9473 -1.2717 -0.9553
   35DOPE  H12Y 4496   5.407   3.658   4.230 -2.1944 -0.6031  1.1727
   35DOPE  C313 4497   5.510   3.733   4.396 -0.0148 -0.4011  0.2964
   35DOPE  H13X 4498   5.580   3.692   4.472 -0.8894  0.9336  1.8713
   35DOPE  H13Y 4499   5.556   3.817   4.339  0.5647 -0.2301  1.0013
   35DOPE  C314 4500   5.389   3.778   4.482 -0.0123 -1.1994  0.2765
   35DOPE  H14X 4501   5.348   3.695   4.544  1.3293 -1.9755  0.1698
   35DOPE  H14Y 4502   5.313   3.816   4.411  0.7161 -0.8796 -0.3412
   35DOPE  C315 4503   5.430   3.890   4.582 -0.5946 -0.3909 -0.4718
   35DOPE  H15X 4504   5.452   3.979   4.519  0.7419  0.7107  1.4527
   35DOPE  H15Y 4505   5.519   3.854   4.637  0.3773  1.8181 -0.4906
   35DOPE  C316 4506   5.315   3.919   4.683  0.0853  0.6206  0.7416
   35DOPE  H16X 4507   5.281   3.827   4.735 -0.9179  0.0241 -0.8920
   35DOPE  H16Y 4508   5.227   3.954   4.625 -0.0382 -1.2936 -0.2935
   35DOPE  C317 4509   5.352   4.029   4.780  0.4286  0.7158 -0.0381
   35DOPE  H17X 4510   5.432   3.989   4.846  1.6446  0.1499 -1.7815
   35DOPE  H17Y 4511   5.402   4.113   4.729  1.3984 -0.7728 -1.6535
   35DOPE  C318 4512   5.239   4.095   4.869  0.1378 -0.3134  0.3236
   35DOPE  H18X 4513   5.195   4.012   4.929  3.1338 -0.2658  2.8460
   35DOPE  H18Y 4514   5.273   4.166   4.948  0.6339  0.4734 -0.5800
   35DOPE  H18Z 4515   5.158   4.143   4.811 -1.2065 -0.6450  1.8565
   36DOPE     N 4516   5.488   4.863   2.385 -0.1819  0.4799 -0.0170
   36DOPE   HN1 4517   5.574   4.890   2.333  0.4585 -0.5107  0.4989
   36DOPE   HN2 4518   5.449   4.788   2.325 -0.6913  0.8243 -0.1282
   36DOPE   HN3 4519   5.424   4.943   2.368  0.1702  0.9253  0.7191
   36DOPE   C12 4520   5.502   4.841   2.533  0.4672  0.2830  0.2853
   36DOPE  H12A 4521   5.550   4.743   2.551 -0.8877 -0.1802  1.6024
   36DOPE  H12B 4522   5.399   4.835   2.575  0.6864 -1.3444  0.6557
   36DOPE   C11 4523   5.578   4.952   2.613  0.1140 -0.1779 -0.4753
   36DOPE  H11A 4524   5.593   4.928   2.720  1.8339 -0.0581 -0.6707
   36DOPE  H11B 4525   5.528   5.051   2.602 -2.3991 -1.2485  0.3761
   36DOPE     P 4526   5.842   4.893   2.573 -0.4692  0.3642  0.1738
   36DOPE   O13 4527   5.940   4.947   2.486  0.1224 -0.4381  0.3280
   36DOPE   O14 4528   5.821   4.744   2.560  0.4340  0.1016  0.0500
   36DOPE   O11 4529   5.876   4.917   2.722 -0.0203 -0.0448 -0.3084
   36DOPE   O12 4530   5.706   4.972   2.551 -0.1293  0.1147  0.5467
   36DOPE    C1 4531   5.983   4.840   2.785 -0.3341 -0.6114 -0.3876
   36DOPE    HA 4532   6.021   4.905   2.867 -1.6481 -0.6407  0.2739
   36DOPE    HB 4533   6.069   4.813   2.720 -0.7476 -0.1850 -1.1178
   36DOPE    C2 4534   5.913   4.724   2.847  0.4174  0.0317  0.3020
   36DOPE    HS 4535   5.907   4.646   2.768 -0.8603  2.6110 -2.3264
   36DOPE   O21 4536   5.783   4.762   2.910  0.2130  0.0656 -0.1271
   36DOPE   C21 4537   5.707   4.658   2.949  0.0371 -0.6462  0.0066
   36DOPE   O22 4538   5.731   4.542   2.936  0.2542  0.4363  0.2847
   36DOPE   C22 4539   5.583   4.720   3.009 -0.0063 -0.0252 -0.6420
   36DOPE   H2R 4540   5.523   4.637   3.050 -0.6660  0.7957  0.1099
   36DOPE   H2S 4541   5.523   4.761   2.925  0.7810  0.5735 -0.9269
   36DOPE    C3 4542   6.004   4.659   2.965  0.6147 -0.2494  0.3324
   36DOPE    HX 4543   6.098   4.618   2.921  2.2603  1.4928  1.9916
   36DOPE    HY 4544   5.956   4.570   3.010  1.5570 -0.7833  0.3132
   36DOPE   O31 4545   6.045   4.759   3.062  0.4200  0.0353 -0.0163
   36DOPE   C31 4546   6.114   4.706   3.165  0.0122 -0.2905 -0.0294
   36DOPE   O32 4547   6.137   4.585   3.170 -0.1790 -0.4718 -0.7442
   36DOPE   C32 4548   6.133   4.808   3.273 -0.2397  0.5056 -0.2250
   36DOPE   H2X 4549   6.164   4.903   3.224 -2.0177  0.9307 -0.5769
   36DOPE   H2Y 4550   6.037   4.816   3.329 -0.7234 -0.4539 -0.8922
   36DOPE   C23 4551   5.604   4.831   3.112 -0.2584 -0.5557 -0.3794
   36DOPE   H3R 4552   5.507   4.856   3.159 -1.1723 -1.1104 -1.9036
   36DOPE   H3S 4553   5.656   4.914   3.059 -0.6948  0.0197  0.0812
   36DOPE   C24 4554   5.692   4.781   3.232  0.3428  0.3118 -0.1325
   36DOPE   H4R 4555   5.793   4.827   3.229  0.6047 -0.2166  0.3241
   36DOPE   H4S 4556   5.702   4.673   3.206  0.9002  0.4862 -0.6865
   36DOPE   C25 4557   5.623   4.807   3.362 -0.1028  0.2563  0.0864
   36DOPE   H5R 4558   5.526   4.754   3.373  0.5523 -1.0227 -0.1847
   36DOPE   H5S 4559   5.596   4.915   3.370 -1.7767 -0.1159 -0.1729
   36DOPE   C26 4560   5.713   4.765   3.482  1.0382  0.0584  0.2018
   36DOPE   H6R 4561   5.730   4.858   3.540  0.2048  1.4612 -1.7091
   36DOPE   H6S 4562   5.802   4.732   3.424 -0.4134 -0.7414 -1.6547
   36DOPE   C27 4563   5.657   4.648   3.565  0.1747  0.1245 -0.3179
   36DOPE   H7R 4564   5.743   4.600   3.617 -0.6037 -1.1040 -0.1433
   36DOPE   H7S 4565   5.619   4.568   3.498 -1.2181  0.4906  0.0231
   36DOPE   C28 4566   5.549   4.691   3.664 -0.2745 -0.2167  0.7743
   36DOPE   H8R 4567   5.472   4.747   3.608 -0.9857  0.6283  2.5448
   36DOPE   H8S 4568   5.589   4.757   3.744  0.9875 -1.3999  1.1576
   36DOPE   C29 4569   5.507   4.563   3.727 -0.3001 -0.2200 -0.3279
   36DOPE   H9R 4570   5.583   4.486   3.749  0.4664  0.7798  0.6603
   36DOPE  C210 4571   5.382   4.537   3.766  0.0479 -0.5332  0.7358
   36DOPE  H10R 4572   5.358   4.439   3.811  1.0971 -0.1937  2.1141
   36DOPE  C211 4573   5.261   4.624   3.741 -0.1399  0.0356 -0.1074
   36DOPE  H11R 4574   5.179   4.560   3.701  1.2689 -1.0729 -1.3039
   36DOPE  H11S 4575   5.268   4.702   3.663 -3.6743  0.1034 -0.5150
   36DOPE  C212 4576   5.191   4.679   3.874  0.4740  0.0632 -0.0869
   36DOPE  H12R 4577   5.093   4.722   3.842  1.0722  0.2244 -1.7797
   36DOPE  H12S 4578   5.255   4.762   3.909 -0.4007  0.5587  0.3901
   36DOPE  C213 4579   5.161   4.570   3.982 -0.1381 -0.4023  0.1623
   36DOPE  H13R 4580   5.259   4.543   4.029  0.5649 -0.8372 -1.4704
   36DOPE  H13S 4581   5.112   4.479   3.940  1.1744  0.0833 -2.6862
   36DOPE  C214 4582   5.063   4.637   4.081 -0.1254  0.2864 -0.1823
   36DOPE  H14R 4583   5.025   4.550   4.139 -3.5299  0.4314 -1.9675
   36DOPE  H14S 4584   4.970   4.670   4.031 -1.7758 -0.7890  1.9756
   36DOPE  C215 4585   5.125   4.746   4.173 -0.6004 -0.1599  0.1538
   36DOPE  H15R 4586   5.118   4.839   4.112  1.5992 -0.6424 -0.9567
   36DOPE  H15S 4587   5.231   4.722   4.198 -0.8891 -1.1562  0.4302
   36DOPE  C216 4588   5.048   4.741   4.311  0.5919 -0.2576 -0.0335
   36DOPE  H16R 4589   5.035   4.638   4.352  1.7407 -0.3472  0.1364
   36DOPE  H16S 4590   4.943   4.777   4.307  0.7277  0.1492  0.0506
   36DOPE  C217 4591   5.092   4.831   4.432  0.0036 -1.2773 -0.5915
   36DOPE  H17R 4592   5.081   4.937   4.401 -0.4354 -1.0102  0.4512
   36DOPE  H17S 4593   5.200   4.829   4.458  0.2119 -0.2646 -1.2810
   36DOPE  C218 4594   4.996   4.797   4.555 -0.1539  0.4789 -0.2435
   36DOPE  H18R 4595   4.890   4.795   4.524 -0.3628  1.5358  0.3584
   36DOPE  H18S 4596   5.013   4.888   4.617 -2.0317  2.8480 -2.9789
   36DOPE  H18T 4597   5.031   4.701   4.598 -2.2408 -0.5765 -0.7881
   36DOPE   C33 4598   6.242   4.760   3.374 -0.7833  0.1103 -0.5576
   36DOPE   H3X 4599   6.327   4.829   3.354 -2.3988  1.8249 -1.8960
   36DOPE   H3Y 4600   6.277   4.655   3.366 -0.0340  0.3792 -0.9911
   36DOPE   C34 4601   6.206   4.792   3.522 -0.4290 -0.2339  0.6893
   36DOPE   H4X 4602   6.174   4.898   3.529 -2.3321 -0.8462  2.4976
   36DOPE   H4Y 4603   6.124   4.721   3.549 -1.4229  0.8510  0.5965
   36DOPE   C35 4604   6.326   4.780   3.618 -0.3118  0.0097 -0.6521
   36DOPE   H5X 4605   6.369   4.680   3.599 -0.2596 -0.0316 -0.3130
   36DOPE   H5Y 4606   6.281   4.781   3.719 -4.4571  1.8437 -2.2881
   36DOPE   C36 4607   6.437   4.892   3.608 -0.2987  0.3983  0.4637
   36DOPE   H6X 4608   6.412   4.966   3.529  1.5899  1.8548  1.1769
   36DOPE   H6Y 4609   6.541   4.865   3.579 -0.3737  1.9405 -1.4959
   36DOPE   C37 4610   6.435   4.964   3.743 -0.0978 -0.3721  0.6875
   36DOPE   H7X 4611   6.334   5.009   3.746 -0.1195  0.2281 -3.3066
   36DOPE   H7Y 4612   6.455   4.899   3.831  1.3284 -1.4197 -0.3558
   36DOPE   C38 4613   6.543   5.075   3.734 -0.0172 -0.5160 -0.0719
   36DOPE   H8X 4614   6.536   5.119   3.633 -0.3850 -0.0476  0.1516
   36DOPE   H8Y 4615   6.645   5.030   3.733 -0.4691 -1.8981  3.3844
   36DOPE   C39 4616   6.528   5.178   3.839  0.5386 -0.1276  1.1690
   36DOPE   H9X 4617   6.438   5.241   3.840 -0.0876 -0.8771 -0.9238
   36DOPE  C310 4618   6.616   5.201   3.935 -0.4515  0.0510 -0.3036
   36DOPE  H10X 4619   6.607   5.292   3.996 -1.4351  0.6067 -1.2248
   36DOPE  C311 4620   6.735   5.118   3.975  0.5106 -0.7754  0.2204
   36DOPE  H11X 4621   6.750   5.035   3.903 -0.0901 -1.1725  0.5514
   36DOPE  H11Y 4622   6.824   5.185   3.968  0.4891 -0.6535  1.0387
   36DOPE  C312 4623   6.733   5.075   4.115 -0.0111  0.7094 -0.3638
   36DOPE  H12X 4624   6.805   4.992   4.132  0.0528  0.8840  0.2345
   36DOPE  H12Y 4625   6.639   5.026   4.147  0.7130 -1.3318 -1.1439
   36DOPE  C313 4626   6.752   5.186   4.212 -0.2902  0.3973 -0.4441
   36DOPE  H13X 4627   6.850   5.232   4.189 -1.2292  2.0794 -1.2565
   36DOPE  H13Y 4628   6.678   5.268   4.207  2.1710  3.1218  2.8695
   36DOPE  C314 4629   6.758   5.135   4.358  0.4619 -0.1818 -0.4117
   36DOPE  H14X 4630   6.853   5.078   4.372  0.1890 -0.7788 -0.9260
   36DOPE  H14Y 4631   6.672   5.065   4.365  0.2697  0.1995  1.7014
   36DOPE  C315 4632   6.743   5.261   4.449 -0.0907  0.6552 -0.0034
   36DOPE  H15X 4633   6.670   5.326   4.395  0.1252 -1.0426 -2.4784
   36DOPE  H15Y 4634   6.845   5.303   4.460  0.3587 -0.6781  1.1451
   36DOPE  C316 4635   6.696   5.230   4.592  0.7409 -0.0073 -0.1944
   36DOPE  H16X 4636   6.771   5.169   4.646  1.5348 -0.6955 -1.9911
   36DOPE  H16Y 4637   6.598   5.177   4.593  0.1329  0.7475 -3.9830
   36DOPE  C317 4638   6.679   5.376   4.656  0.9310  0.7498  0.4559
   36DOPE  H17X 4639   6.780   5.422   4.645  1.7841 -1.1870 -0.3090
   36DOPE  H17Y 4640   6.595   5.439   4.620  0.6101  0.3981  0.5774
   36DOPE  C318 4641   6.651   5.348   4.803 -0.0266 -0.0814 -0.4270
   36DOPE  H18X 4642   6.544   5.374   4.821 -0.8972 -0.7579 -3.8900
   36DOPE  H18Y 4643   6.656   5.240   4.830 -0.9098  0.3261  1.5754
   36DOPE  H18Z 4644   6.713   5.405   4.876  2.1575 -0.7307 -1.6874
   37DOPE     N 4645   3.551   2.874   3.384 -0.0910  0.0744 -0.0984
   37DOPE   HN1 4646   3.598   2.839   3.298 -1.8355 -0.1183 -1.0160
   37DOPE   HN2 4647   3.487   2.949   3.352 -1.7721 -1.1424  0.2529
   37DOPE   HN3 4648   3.613   2.929   3.446  0.2739  0.0437 -0.4341
   37DOPE   C12 4649   3.485   2.756   3.451 -0.0250  0.0384  0.4504
   37DOPE  H12A 4650   3.399   2.794   3.510 -0.9066  2.3472 -2.1183
   37DOPE  H12B 4651   3.556   2.693   3.509 -0.1580 -1.7179 -1.2012
   37DOPE   C11 4652   3.416   2.673   3.341 -0.2980 -0.2279 -0.1973
   37DOPE  H11A 4653   3.369   2.585   3.390 -0.5081  1.9775  3.9147
   37DOPE  H11B 4654   3.495   2.646   3.268  1.7662  1.3395  1.3519
   37DOPE     P 4655   3.177   2.775   3.320  0.3436 -0.1906 -0.5052
   37DOPE   O13 4656   3.076   2.726   3.225  0.5657 -0.1003 -0.6166
   37DOPE   O14 4657   3.174   2.917   3.367  0.5093 -0.1529  0.5651
   37DOPE   O11 4658   3.169   2.681   3.446 -0.3558  0.1648 -0.4148
   37DOPE   O12 4659   3.322   2.747   3.258 -0.3043  0.2597  0.0671
   37DOPE    C1 4660   3.063   2.586   3.459  0.6267  0.0666  0.2147
   37DOPE    HA 4661   3.075   2.508   3.380 -1.8634 -0.2838  0.0928
   37DOPE    HB 4662   2.965   2.637   3.448  0.2669 -0.4317  1.0580
   37DOPE    C2 4663   3.067   2.494   3.584 -0.2617 -0.1456 -0.2640
   37DOPE    HS 4664   2.973   2.436   3.590 -0.8755  0.7622 -0.7769
   37DOPE   O21 4665   3.076   2.580   3.701 -0.4380  0.4406  0.5370
   37DOPE   C21 4666   2.971   2.650   3.738 -0.2696  0.4018  0.4475
   37DOPE   O22 4667   2.858   2.639   3.692 -0.1722 -0.2828 -0.4835
   37DOPE   C22 4668   3.010   2.762   3.833  0.0017 -0.1188  0.2263
   37DOPE   H2R 4669   2.915   2.818   3.845  0.2130  0.2878  0.0099
   37DOPE   H2S 4670   3.092   2.829   3.798  1.4963 -1.9859 -0.0556
   37DOPE    C3 4671   3.185   2.395   3.570  0.2436 -0.1100 -0.3935
   37DOPE    HX 4672   3.276   2.455   3.551 -1.2207  1.5744 -2.5570
   37DOPE    HY 4673   3.155   2.345   3.475 -0.4839  3.0734 -1.9558
   37DOPE   O31 4674   3.202   2.303   3.681 -0.2390 -1.0195 -0.3654
   37DOPE   C31 4675   3.285   2.206   3.654  0.4652 -0.6749  0.2535
   37DOPE   O32 4676   3.342   2.189   3.551 -0.4911  0.0993 -0.1535
   37DOPE   C32 4677   3.304   2.116   3.779 -0.9062 -0.6523  0.0301
   37DOPE   H2X 4678   3.276   2.178   3.866 -1.1621  0.1467 -0.6072
   37DOPE   H2Y 4679   3.221   2.043   3.773 -1.2108 -0.2593 -0.6035
   37DOPE   C23 4680   3.040   2.702   3.975 -0.3879 -0.7159  0.2964
   37DOPE   H3R 4681   3.124   2.629   3.980  1.7745  1.6410  0.6854
   37DOPE   H3S 4682   2.955   2.649   4.023 -1.3857  1.4332  1.0377
   37DOPE   C24 4683   3.068   2.819   4.068 -0.5157 -0.3744 -0.5304
   37DOPE   H4R 4684   3.155   2.876   4.030  1.6493 -3.0136  0.1660
   37DOPE   H4S 4685   3.104   2.787   4.169  1.3486  0.4274 -0.9023
   37DOPE   C25 4686   2.953   2.916   4.092 -0.5451 -0.7818  0.2265
   37DOPE   H5R 4687   2.864   2.853   4.117 -1.8785 -0.0174 -2.2299
   37DOPE   H5S 4688   2.929   2.969   3.997 -0.2750  0.5858  0.8982
   37DOPE   C26 4689   2.974   3.025   4.203 -0.2120  0.1066 -0.8438
   37DOPE   H6R 4690   3.011   2.983   4.299  0.0660 -0.5223 -1.2122
   37DOPE   H6S 4691   2.874   3.067   4.224  0.3932  0.6765  1.0925
   37DOPE   C27 4692   3.079   3.136   4.170 -0.3382  0.2814  0.2078
   37DOPE   H7R 4693   3.052   3.191   4.077  1.6910 -0.2908 -0.7727
   37DOPE   H7S 4694   3.170   3.080   4.139 -0.7741  0.4158 -1.3966
   37DOPE   C28 4695   3.107   3.229   4.289  0.5047 -0.3881 -0.0804
   37DOPE   H8R 4696   3.149   3.166   4.370  3.0886 -0.2641 -1.2328
   37DOPE   H8S 4697   3.011   3.270   4.327  0.5917 -2.1724  2.2908
   37DOPE   C29 4698   3.198   3.345   4.254  0.1412 -0.2490 -0.5571
   37DOPE   H9R 4699   3.293   3.326   4.202 -0.4070 -3.4573 -0.6006
   37DOPE  C210 4700   3.160   3.471   4.271 -0.4224  0.4248 -0.1485
   37DOPE  H10R 4701   3.232   3.549   4.242 -0.4910 -0.2420 -2.2950
   37DOPE  C211 4702   3.033   3.521   4.313  0.1703  0.5273  0.5816
   37DOPE  H11R 4703   2.953   3.461   4.265  0.2531  1.7736 -1.1713
   37DOPE  H11S 4704   3.013   3.622   4.270 -1.9641  0.2576  0.7928
   37DOPE  C212 4705   3.004   3.513   4.467 -0.1338  0.6912  0.3582
   37DOPE  H12R 4706   3.082   3.570   4.520  0.3659 -0.2399  0.6493
   37DOPE  H12S 4707   3.027   3.408   4.494 -1.5873 -0.0840 -1.2202
   37DOPE  C213 4708   2.859   3.545   4.508  0.3675  0.4986 -0.8299
   37DOPE  H13R 4709   2.784   3.477   4.463  0.7990  0.8646 -2.1657
   37DOPE  H13S 4710   2.837   3.645   4.465 -0.4065  1.5749  1.8748
   37DOPE  C214 4711   2.841   3.555   4.660  0.1929 -0.1780 -0.3850
   37DOPE  H14R 4712   2.907   3.631   4.707 -0.8130 -0.7056  2.0444
   37DOPE  H14S 4713   2.869   3.455   4.699 -0.5358  0.2200  1.2475
   37DOPE  C215 4714   2.696   3.589   4.704 -0.1362  1.4131 -0.6354
   37DOPE  H15R 4715   2.617   3.520   4.666 -0.5619  0.2546  2.1177
   37DOPE  H15S 4716   2.680   3.694   4.672 -1.1064  2.1425  2.0043
   37DOPE  C216 4717   2.670   3.593   4.854  0.1633  0.6997 -0.7995
   37DOPE  H16R 4718   2.745   3.664   4.892 -0.7358  1.4062 -0.3097
   37DOPE  H16S 4719   2.696   3.488   4.881  2.0112  1.3674  0.1803
   37DOPE  C217 4720   2.532   3.635   4.895 -0.3064 -0.6407 -0.0147
   37DOPE  H17R 4721   2.522   3.603   5.001  0.5464  0.1972  0.3373
   37DOPE  H17S 4722   2.461   3.584   4.827 -0.6791  3.3861 -3.0855
   37DOPE  C218 4723   2.512   3.785   4.873 -0.2079 -0.0666  0.1696
   37DOPE  H18R 4724   2.585   3.850   4.925 -0.1324  0.7002 -0.8571
   37DOPE  H18S 4725   2.408   3.816   4.895 -0.6272  0.6502 -2.4930
   37DOPE  H18T 4726   2.517   3.815   4.766 -2.0052 -0.8785 -0.1900
   37DOPE   C33 4727   3.445   2.051   3.780 -0.2427  0.2266 -0.5223
   37DOPE   H3X 4728   3.464   1.997   3.684  1.4214  1.5095 -0.9660
   37DOPE   H3Y 4729   3.448   1.979   3.864 -0.5540 -1.0578 -1.5641
   37DOPE   C34 4730   3.548   2.164   3.799 -0.7169  0.1849  0.0305
   37DOPE   H4X 4731   3.561   2.214   3.700 -0.6218  0.3284  0.1153
   37DOPE   H4Y 4732   3.521   2.244   3.871  1.1440  0.7542  0.1440
   37DOPE   C35 4733   3.689   2.103   3.844  0.1330 -0.1541  0.2110
   37DOPE   H5X 4734   3.765   2.179   3.816  0.1883 -0.8311 -1.6172
   37DOPE   H5Y 4735   3.710   2.010   3.787 -0.1153 -0.0595 -0.0324
   37DOPE   C36 4736   3.703   2.068   3.989  0.3626 -0.8039 -0.1071
   37DOPE   H6X 4737   3.805   2.027   4.006  1.5235  0.8683 -2.5137
   37DOPE   H6Y 4738   3.620   2.002   4.022  1.2376 -2.8015 -1.6987
   37DOPE   C37 4739   3.703   2.195   4.074 -0.3097  0.0676 -0.5581
   37DOPE   H7X 4740   3.736   2.285   4.017  2.5691 -0.8748 -0.5739
   37DOPE   H7Y 4741   3.602   2.218   4.113 -0.2669 -0.4139 -0.1529
   37DOPE   C38 4742   3.803   2.191   4.195  0.1689 -1.4985 -0.5310
   37DOPE   H8X 4743   3.777   2.277   4.259 -0.2363 -0.0191 -2.5705
   37DOPE   H8Y 4744   3.906   2.215   4.161 -0.0854  1.1535  0.3314
   37DOPE   C39 4745   3.792   2.067   4.282 -0.5357  0.0020  0.4829
   37DOPE   H9X 4746   3.864   1.991   4.248 -0.5762 -0.4141  1.3195
   37DOPE  C310 4747   3.725   2.040   4.397 -0.7921  0.0111  0.3924
   37DOPE  H10X 4748   3.743   1.946   4.453  0.1395 -1.1359 -1.7312
   37DOPE  C311 4749   3.632   2.142   4.461  0.1054  0.2294  0.4283
   37DOPE  H11X 4750   3.632   2.234   4.399 -3.9685  0.1517  0.0510
   37DOPE  H11Y 4751   3.529   2.099   4.462  1.0137 -2.1762  2.3403
   37DOPE  C312 4752   3.678   2.182   4.603  0.3015  0.5206 -0.2899
   37DOPE  H12X 4753   3.783   2.217   4.595  0.7172 -0.8717 -1.3238
   37DOPE  H12Y 4754   3.667   2.085   4.655 -1.4482 -0.0208 -1.5414
   37DOPE  C313 4755   3.583   2.276   4.677 -0.3353 -0.8589  1.1083
   37DOPE  H13X 4756   3.625   2.299   4.778  1.0523 -0.0555  0.3907
   37DOPE  H13Y 4757   3.584   2.372   4.621 -0.4361 -1.1735  0.5655
   37DOPE  C314 4758   3.438   2.229   4.692  0.1482  0.6148  0.1923
   37DOPE  H14X 4759   3.442   2.124   4.728  0.5229  0.5485 -0.0305
   37DOPE  H14Y 4760   3.388   2.224   4.593  1.6114  0.6877 -0.5835
   37DOPE  C315 4761   3.353   2.309   4.787 -0.4492 -0.1082 -0.0171
   37DOPE  H15X 4762   3.245   2.301   4.764 -1.3258 -0.7912  3.7346
   37DOPE  H15Y 4763   3.384   2.415   4.781  1.3343 -0.5840  0.0219
   37DOPE  C316 4764   3.353   2.257   4.934  0.5326 -0.2266 -0.2997
   37DOPE  H16X 4765   3.450   2.209   4.958 -0.3295 -3.0627 -2.0785
   37DOPE  H16Y 4766   3.285   2.169   4.944  0.5176 -0.0488  1.6779
   37DOPE  C317 4767   3.312   2.359   5.040 -0.1456  0.0516  0.1746
   37DOPE  H17X 4768   3.339   2.329   5.144 -1.0018  2.0675  1.0440
   37DOPE  H17Y 4769   3.371   2.450   5.013 -0.1786 -0.1849 -0.7026
   37DOPE  C318 4770   3.160   2.393   5.033  0.6857 -0.1539  0.5456
   37DOPE  H18X 4771   3.132   2.425   4.931  0.2364  0.7518  0.9366
   37DOPE  H18Y 4772   3.100   2.311   5.079 -1.2250  0.4819 -0.6931
   37DOPE  H18Z 4773   3.142   2.482   5.097 -2.9749  0.1004 -0.5831
   38DOPE     N 4774   3.867   4.355   2.693 -0.0075  0.0507 -0.1959
   38DOPE   HN1 4775   3.908   4.443   2.729 -0.3037 -0.3867  1.2898
   38DOPE   HN2 4776   3.821   4.373   2.601  1.8921 -0.3420 -1.2677
   38DOPE   HN3 4777   3.795   4.311   2.754 -0.3835  0.1206 -0.5856
   38DOPE   C12 4778   3.977   4.261   2.665  0.2658  0.5104 -0.1170
   38DOPE  H12A 4779   4.047   4.294   2.586  2.6287  0.2039  1.7274
   38DOPE  H12B 4780   3.925   4.166   2.640 -2.2700  1.6629  0.4709
   38DOPE   C11 4781   4.060   4.244   2.794  1.3953 -0.0231  0.2293
   38DOPE  H11A 4782   4.107   4.144   2.785  2.0899  0.3710 -0.6178
   38DOPE  H11B 4783   3.996   4.255   2.885  0.3799  2.1834 -0.6905
   38DOPE     P 4784   4.140   4.485   2.864  0.6962 -0.2115 -0.0833
   38DOPE   O13 4785   4.052   4.563   2.779  0.8733  0.1177 -0.0172
   38DOPE   O14 4786   4.269   4.554   2.890 -0.0503  0.0079 -0.7030
   38DOPE   O11 4787   4.054   4.459   2.996  0.2110  0.3080  0.3593
   38DOPE   O12 4788   4.158   4.342   2.806 -0.7939 -0.3391  0.3634
   38DOPE    C1 4789   4.124   4.420   3.111  0.8082 -0.0244 -0.0087
   38DOPE    HA 4790   4.221   4.374   3.082 -0.2495 -1.2437 -1.8299
   38DOPE    HB 4791   4.061   4.346   3.166  1.0041  0.6081  1.0944
   38DOPE    C2 4792   4.154   4.534   3.208 -0.0956 -0.3676 -0.9321
   38DOPE    HS 4793   4.246   4.590   3.180  0.3488 -0.7599 -0.2822
   38DOPE   O21 4794   4.185   4.477   3.333  0.1376 -0.8261 -0.3170
   38DOPE   C21 4795   4.269   4.545   3.418  0.4009 -0.7506  1.0279
   38DOPE   O22 4796   4.332   4.645   3.388  0.0664 -0.3233 -0.0697
   38DOPE   C22 4797   4.283   4.486   3.556  0.0894  1.1547 -0.2396
   38DOPE   H2R 4798   4.197   4.519   3.619 -0.9568 -1.2761 -0.2773
   38DOPE   H2S 4799   4.375   4.520   3.608  0.1429 -1.4726  1.5910
   38DOPE    C3 4800   4.031   4.637   3.217  0.0244 -0.3096 -0.4077
   38DOPE    HX 4801   3.945   4.580   3.258 -1.7838  2.4859 -0.0957
   38DOPE    HY 4802   4.007   4.684   3.120  0.5729  0.6797 -0.0832
   38DOPE   O31 4803   4.066   4.742   3.317  0.3058  0.6951  0.5192
   38DOPE   C31 4804   4.043   4.861   3.286 -0.2604  0.1445 -0.4370
   38DOPE   O32 4805   3.990   4.911   3.192 -0.2866 -0.3308 -0.3362
   38DOPE   C32 4806   4.099   4.938   3.402  0.5464  0.0538 -0.3050
   38DOPE   H2X 4807   4.056   4.900   3.497  0.1471 -0.0843 -0.5389
   38DOPE   H2Y 4808   4.205   4.908   3.419  0.5298 -0.8617 -1.6150
   38DOPE   C23 4809   4.286   4.328   3.558 -0.2731  0.0859  0.5042
   38DOPE   H3R 4810   4.357   4.309   3.476  0.4252  0.6881  0.9611
   38DOPE   H3S 4811   4.182   4.291   3.547 -0.5290  1.3150 -1.7798
   38DOPE   C24 4812   4.364   4.272   3.683 -0.6455 -0.9117 -0.9572
   38DOPE   H4R 4813   4.474   4.287   3.677 -0.3381 -2.8092 -0.4328
   38DOPE   H4S 4814   4.349   4.163   3.674 -0.3746 -0.8719 -2.0859
   38DOPE   C25 4815   4.302   4.317   3.818 -0.4555  0.0557 -0.1425
   38DOPE   H5R 4816   4.193   4.319   3.798 -0.7100 -0.1150  1.1446
   38DOPE   H5S 4817   4.332   4.423   3.838 -1.1930  0.3712 -0.6665
   38DOPE   C26 4818   4.345   4.236   3.935 -0.5265  0.1917  0.6897
   38DOPE   H6R 4819   4.455   4.228   3.931 -0.6406 -1.9155 -3.1338
   38DOPE   H6S 4820   4.302   4.138   3.906 -1.7631  1.1463 -0.8627
   38DOPE   C27 4821   4.285   4.293   4.059 -0.0323 -0.2180  0.5038
   38DOPE   H7R 4822   4.174   4.300   4.054 -0.0342 -0.8585 -0.5919
   38DOPE   H7S 4823   4.321   4.397   4.074  0.4675 -0.5576  1.7811
   38DOPE   C28 4824   4.321   4.210   4.183  0.2815  0.2409 -0.9394
   38DOPE   H8R 4825   4.431   4.206   4.196 -0.0417  0.6447  3.2690
   38DOPE   H8S 4826   4.285   4.105   4.188 -0.5730  0.5549 -0.3241
   38DOPE   C29 4827   4.256   4.281   4.302  0.4059 -0.9244  0.1700
   38DOPE   H9R 4828   4.178   4.353   4.275  1.0128  0.1817  1.2324
   38DOPE  C210 4829   4.301   4.263   4.429  0.3468  0.7984  0.8185
   38DOPE  H10R 4830   4.248   4.322   4.506  0.1042  1.9951 -0.2286
   38DOPE  C211 4831   4.420   4.190   4.480 -0.0488  0.1606 -1.0402
   38DOPE  H11R 4832   4.493   4.171   4.398  2.3585  0.7294  0.8629
   38DOPE  H11S 4833   4.396   4.086   4.511 -0.0483  0.1600 -1.0408
   38DOPE  C212 4834   4.486   4.270   4.591 -0.0935 -1.1590  0.1910
   38DOPE  H12R 4835   4.536   4.363   4.556  0.2499 -0.7234  1.7418
   38DOPE  H12S 4836   4.570   4.201   4.615  0.9665  0.9369  3.1220
   38DOPE  C213 4837   4.415   4.294   4.722 -0.2822 -0.1691  0.1502
   38DOPE  H13R 4838   4.346   4.208   4.735  0.1670 -0.3045  1.7544
   38DOPE  H13S 4839   4.348   4.382   4.716 -1.6498 -1.1359  0.7216
   38DOPE  C214 4840   4.501   4.311   4.852  0.0335  0.1330  0.3654
   38DOPE  H14R 4841   4.576   4.229   4.849 -1.0356 -0.9882  2.2267
   38DOPE  H14S 4842   4.444   4.301   4.947  0.9129  2.3882  1.2103
   38DOPE  C215 4843   4.570   4.449   4.848 -0.3880 -0.7119 -0.4901
   38DOPE  H15R 4844   4.499   4.532   4.828  0.3970  0.6384  1.9364
   38DOPE  H15S 4845   4.625   4.448   4.751 -1.2201 -2.1431 -0.9778
   38DOPE  C216 4846   4.681   4.464   4.950  0.3192 -0.1542 -0.1576
   38DOPE  H16R 4847   4.774   4.412   4.919  0.2333  1.3204 -3.3565
   38DOPE  H16S 4848   4.642   4.415   5.041  0.3717  0.7294  0.3525
   38DOPE  C217 4849   4.719   4.607   4.986  0.0837 -0.0907 -0.9406
   38DOPE  H17R 4850   4.633   4.672   5.015  0.2770 -0.4918  0.5871
   38DOPE  H17S 4851   4.765   4.675   4.911 -0.2669  2.4609  1.0280
   38DOPE  C218 4852   4.813   4.608   5.108 -0.2016  0.0141 -0.7799
   38DOPE  H18R 4853   4.761   4.588   5.204 -0.2001  0.6486 -0.6423
   38DOPE  H18S 4854   4.872   4.702   5.111  0.2305 -0.2815  1.1818
   38DOPE  H18T 4855   4.882   4.523   5.092 -2.1076 -2.0119  1.0470
   38DOPE   C33 4856   4.074   5.087   3.368  0.9903  0.1100 -0.0544
   38DOPE   H3X 4857   3.969   5.121   3.364  0.1382 -2.4519 -2.4839
   38DOPE   H3Y 4858   4.117   5.101   3.267 -0.1607  0.2641 -0.5352
   38DOPE   C34 4859   4.152   5.173   3.463 -0.1921  0.3329  0.2959
   38DOPE   H4X 4860   4.252   5.129   3.484  0.8846  2.6874  0.4225
   38DOPE   H4Y 4861   4.169   5.272   3.415 -0.5923 -0.8315 -2.4142
   38DOPE   C35 4862   4.079   5.190   3.597  0.3306  0.2499 -0.1031
   38DOPE   H5X 4863   4.052   5.094   3.646 -1.6160  1.2141  0.8037
   38DOPE   H5Y 4864   3.976   5.228   3.583  0.4999  0.2456 -1.5749
   38DOPE   C36 4865   4.148   5.274   3.702 -0.0967  0.0444  0.7179
   38DOPE   H6X 4866   4.183   5.373   3.665  1.6184 -0.5024  0.7750
   38DOPE   H6Y 4867   4.240   5.216   3.728 -1.4546 -2.9400 -0.6398
   38DOPE   C37 4868   4.054   5.298   3.822  0.0199 -0.0530 -0.1661
   38DOPE   H7X 4869   3.955   5.334   3.788 -0.0909  0.1905  0.4091
   38DOPE   H7Y 4870   4.039   5.197   3.865  1.0754 -0.2540 -0.2354
   38DOPE   C38 4871   4.116   5.393   3.925 -0.0157  0.2007  0.0638
   38DOPE   H8X 4872   4.045   5.420   4.006 -1.9038  1.0278 -1.7759
   38DOPE   H8Y 4873   4.138   5.490   3.877 -2.6425  1.3580  1.0149
   38DOPE   C39 4874   4.243   5.334   3.980 -0.1389  0.3133 -0.5477
   38DOPE   H9X 4875   4.323   5.326   3.905  0.2951  0.5186 -0.1129
   38DOPE  C310 4876   4.262   5.300   4.111 -0.7559 -0.7819 -0.3702
   38DOPE  H10X 4877   4.346   5.236   4.139  0.0212  0.7958  1.0803
   38DOPE  C311 4878   4.162   5.315   4.227 -0.1123  0.0539 -0.5429
   38DOPE  H11X 4879   4.211   5.358   4.317 -0.0055 -0.9032 -0.1401
   38DOPE  H11Y 4880   4.085   5.392   4.203 -1.2362 -1.3798 -1.7734
   38DOPE  C312 4881   4.092   5.180   4.270  0.8792 -0.0499  0.3939
   38DOPE  H12X 4882   4.029   5.162   4.181 -0.8417  1.2079  1.3029
   38DOPE  H12Y 4883   4.018   5.205   4.349 -1.8009 -1.8324 -1.3801
   38DOPE  C313 4884   4.188   5.065   4.313  0.1360  0.5114  0.1009
   38DOPE  H13X 4885   4.248   5.029   4.226 -0.5494  1.2396 -0.6899
   38DOPE  H13Y 4886   4.243   5.116   4.395 -1.2797  0.7416  0.9398
   38DOPE  C314 4887   4.116   4.947   4.369  0.4224  0.2752 -0.1520
   38DOPE  H14X 4888   4.034   4.929   4.297  1.0526 -1.8099 -0.4029
   38DOPE  H14Y 4889   4.063   4.969   4.464  0.3506 -0.3647 -0.0418
   38DOPE  C315 4890   4.208   4.827   4.389 -0.2651  0.4084  0.2261
   38DOPE  H15X 4891   4.302   4.850   4.444 -1.7846 -2.4850  4.4783
   38DOPE  H15Y 4892   4.245   4.781   4.295 -0.3531 -0.2836  0.5262
   38DOPE  C316 4893   4.137   4.710   4.459 -0.3822 -1.0644  0.0148
   38DOPE  H16X 4894   4.088   4.751   4.550  2.5977  1.3736  0.6974
   38DOPE  H16Y 4895   4.217   4.640   4.490  0.9155  0.1382 -0.4908
   38DOPE  C317 4896   4.042   4.627   4.375  0.6356 -0.4050 -0.6969
   38DOPE  H17X 4897   4.078   4.628   4.270  1.2647 -0.6261 -0.4825
   38DOPE  H17Y 4898   4.050   4.522   4.412 -0.5712 -0.1388  0.4042
   38DOPE  C318 4899   3.888   4.652   4.397 -0.5580  0.0867 -0.3782
   38DOPE  H18X 4900   3.822   4.633   4.310 -2.1463  1.0733  0.5660
   38DOPE  H18Y 4901   3.838   4.591   4.475  0.4521  0.8959  0.9553
   38DOPE  H18Z 4902   3.875   4.758   4.429  1.3815 -0.3434  2.1700
   39DOPE     N 4903   2.585   3.195   3.086  0.5962 -0.3517 -0.1902
   39DOPE   HN1 4904   2.572   3.242   3.178 -0.8071 -2.2968  0.6761
   39DOPE   HN2 4905   2.663   3.128   3.097  0.7050  0.1135  2.6074
   39DOPE   HN3 4906   2.600   3.265   3.011 -2.7340  1.2778  0.4364
   39DOPE   C12 4907   2.464   3.115   3.057  0.3408 -0.0283  0.2905
   39DOPE  H12A 4908   2.489   3.060   2.964 -1.6634  1.5535 -1.2755
   39DOPE  H12B 4909   2.378   3.176   3.022 -1.1908 -1.6122  1.0450
   39DOPE   C11 4910   2.429   3.022   3.176 -0.6597  0.0826 -0.4999
   39DOPE  H11A 4911   2.439   3.081   3.270 -1.3477  1.0562 -1.0174
   39DOPE  H11B 4912   2.501   2.938   3.183 -1.2015 -0.4889 -1.5198
   39DOPE     P 4913   2.256   2.831   3.114  0.1604 -0.1788  0.2380
   39DOPE   O13 4914   2.348   2.786   3.009 -0.4236 -0.1333  0.2357
   39DOPE   O14 4915   2.112   2.824   3.071 -0.0253  0.3056 -0.1749
   39DOPE   O11 4916   2.288   2.749   3.246 -0.0295 -0.3438 -0.3980
   39DOPE   O12 4917   2.295   2.984   3.155  0.4646  0.3282  0.2063
   39DOPE    C1 4918   2.199   2.771   3.352  0.1337  0.3138 -0.3924
   39DOPE    HA 4919   2.109   2.708   3.337 -0.5200  0.7010  1.5992
   39DOPE    HB 4920   2.164   2.875   3.364  0.3176  0.1556  2.0971
   39DOPE    C2 4921   2.247   2.731   3.492  0.8501  0.1384 -0.6522
   39DOPE    HS 4922   2.185   2.778   3.572  1.4002  0.5800 -0.4751
   39DOPE   O21 4923   2.382   2.782   3.498 -0.6398  0.5349 -0.2124
   39DOPE   C21 4924   2.399   2.904   3.524 -0.1500  0.6458 -0.0740
   39DOPE   O22 4925   2.318   2.992   3.527 -0.1583 -0.3385 -0.0131
   39DOPE   C22 4926   2.543   2.936   3.569  0.3601  0.0847  0.3047
   39DOPE   H2R 4927   2.563   2.858   3.645  0.6156  0.2373  0.3972
   39DOPE   H2S 4928   2.550   3.033   3.623 -1.2380 -0.0017  0.7099
   39DOPE    C3 4929   2.248   2.582   3.510 -0.7805  0.3777  0.7061
   39DOPE    HX 4930   2.319   2.547   3.433  0.0948  0.8483  1.2888
   39DOPE    HY 4931   2.151   2.537   3.478 -0.3454 -0.6560  0.8146
   39DOPE   O31 4932   2.281   2.545   3.646  0.3024 -0.1677  0.2633
   39DOPE   C31 4933   2.391   2.472   3.665  0.5470 -0.2570 -0.2621
   39DOPE   O32 4934   2.464   2.431   3.581 -0.2657 -0.5964 -0.4769
   39DOPE   C32 4935   2.404   2.451   3.818 -0.3050  0.4358 -0.6007
   39DOPE   H2X 4936   2.431   2.545   3.870 -0.1484 -0.0198  0.1696
   39DOPE   H2Y 4937   2.300   2.434   3.853  0.3475 -3.5386 -0.0108
   39DOPE   C23 4938   2.647   2.941   3.449 -0.0389  0.9285 -0.4112
   39DOPE   H3R 4939   2.629   3.033   3.390  0.1298  2.5715  1.9623
   39DOPE   H3S 4940   2.628   2.860   3.376  1.3622  0.1049  0.0939
   39DOPE   C24 4941   2.790   2.935   3.497  0.7036  0.3798  0.1449
   39DOPE   H4R 4942   2.844   2.954   3.402 -1.2964  1.4161 -0.8371
   39DOPE   H4S 4943   2.816   2.833   3.532  3.3182  1.8135  2.9129
   39DOPE   C25 4944   2.828   3.039   3.595  0.1070 -0.0051  0.4251
   39DOPE   H5R 4945   2.781   3.027   3.695  2.2369  2.8651  1.9433
   39DOPE   H5S 4946   2.792   3.141   3.570  0.2914  0.6221  2.4990
   39DOPE   C26 4947   2.977   3.049   3.622  0.7612  0.5554  0.0794
   39DOPE   H6R 4948   3.037   3.093   3.540  0.4743 -0.8704 -0.9244
   39DOPE   H6S 4949   3.012   2.948   3.653  0.7631  0.8572  1.1192
   39DOPE   C27 4950   3.006   3.147   3.740 -0.4666 -0.4859 -0.6733
   39DOPE   H7R 4951   2.947   3.098   3.821  0.5569 -1.2297 -0.3573
   39DOPE   H7S 4952   2.958   3.246   3.724 -1.2422 -0.5616  0.9327
   39DOPE   C28 4953   3.157   3.155   3.777 -0.0671 -0.1801  0.2784
   39DOPE   H8R 4954   3.210   3.059   3.765 -1.0981 -0.6091 -1.3088
   39DOPE   H8S 4955   3.162   3.180   3.885  0.2920 -2.3742  0.8168
   39DOPE   C29 4956   3.226   3.258   3.693 -0.5669  0.1574  0.0950
   39DOPE   H9R 4957   3.202   3.271   3.587  0.2058  0.0526 -0.1005
   39DOPE  C210 4958   3.355   3.300   3.724 -0.4385  0.1037 -0.4692
   39DOPE  H10R 4959   3.408   3.369   3.657 -2.3338  2.5712  0.4361
   39DOPE  C211 4960   3.428   3.258   3.850 -0.4228  0.4886  0.3064
   39DOPE  H11R 4961   3.371   3.178   3.903 -0.1381  0.5343  0.6869
   39DOPE  H11S 4962   3.437   3.344   3.920 -1.2104 -0.0557  1.1029
   39DOPE  C212 4963   3.565   3.205   3.815  0.0285  0.0991  0.3060
   39DOPE  H12R 4964   3.628   3.198   3.907 -2.7551 -3.0793  2.2055
   39DOPE  H12S 4965   3.620   3.270   3.743  0.6969 -1.6113 -0.7933
   39DOPE  C213 4966   3.566   3.059   3.748  0.0527 -0.8594 -0.1145
   39DOPE  H13R 4967   3.651   3.052   3.676  0.5205 -0.9079  0.4342
   39DOPE  H13S 4968   3.466   3.061   3.701 -0.0438 -1.5656  0.0504
   39DOPE  C214 4969   3.568   2.956   3.854 -0.6590 -0.1076 -0.3091
   39DOPE  H14R 4970   3.494   2.975   3.934  0.0659 -0.1555  0.3833
   39DOPE  H14S 4971   3.662   2.962   3.913  0.3437  0.5558 -1.9174
   39DOPE  C215 4972   3.563   2.814   3.799  0.2306  0.2271 -0.0868
   39DOPE  H15R 4973   3.654   2.789   3.741  0.0186 -0.1480 -0.2637
   39DOPE  H15S 4974   3.463   2.814   3.751  0.1321  4.1303 -0.1592
   39DOPE  C216 4975   3.564   2.704   3.918 -0.5912 -0.1723  0.4433
   39DOPE  H16R 4976   3.490   2.734   3.995 -2.8076 -1.5773 -1.0384
   39DOPE  H16S 4977   3.666   2.709   3.962  0.3951 -2.1294 -1.4783
   39DOPE  C217 4978   3.550   2.566   3.856 -0.5693 -0.0717  0.5766
   39DOPE  H17R 4979   3.629   2.502   3.901 -0.1950  0.7340  1.0880
   39DOPE  H17S 4980   3.583   2.560   3.750  2.5093 -3.8183  1.5120
   39DOPE  C218 4981   3.408   2.516   3.858  0.1112 -0.0479 -0.1790
   39DOPE  H18R 4982   3.394   2.407   3.843 -0.8769  0.2265 -1.4806
   39DOPE  H18S 4983   3.350   2.574   3.783 -0.3681  1.2435  1.1468
   39DOPE  H18T 4984   3.362   2.541   3.956 -2.0490  2.6472 -1.7270
   39DOPE   C33 4985   2.487   2.337   3.865 -0.0380  0.2413 -0.6959
   39DOPE   H3X 4986   2.588   2.356   3.824  0.5749  1.0250  1.0697
   39DOPE   H3Y 4987   2.455   2.239   3.824  0.3735  0.6934 -2.1839
   39DOPE   C34 4988   2.509   2.338   4.017 -0.5908  0.6596  0.3756
   39DOPE   H4X 4989   2.415   2.360   4.071 -0.2901 -1.1698  1.7148
   39DOPE   H4Y 4990   2.522   2.233   4.051 -0.5043  0.0688 -1.3935
   39DOPE   C35 4991   2.622   2.430   4.065 -0.1771 -0.0663  0.2895
   39DOPE   H5X 4992   2.631   2.522   4.003  0.7621 -0.1517  0.2820
   39DOPE   H5Y 4993   2.709   2.362   4.052 -0.9558 -1.4439  1.8930
   39DOPE   C36 4994   2.601   2.472   4.212  0.0042  0.7557  0.4924
   39DOPE   H6X 4995   2.603   2.376   4.268  0.1670  0.0241 -0.7302
   39DOPE   H6Y 4996   2.498   2.513   4.224 -0.5748 -0.8552  1.3636
   39DOPE   C37 4997   2.707   2.567   4.267 -0.2811  0.8963 -0.2430
   39DOPE   H7X 4998   2.810   2.528   4.282 -0.9944 -1.1551 -0.3975
   39DOPE   H7Y 4999   2.735   2.655   4.205 -0.1572  1.1199  0.1330
   39DOPE   C38 5000   2.664   2.633   4.401 -0.6989  0.4425 -0.0227
   39DOPE   H8X 5001   2.755   2.679   4.446 -0.9633  0.1508  0.8181
   39DOPE   H8Y 5002   2.645   2.540   4.458 -2.5788  1.4022  0.9883
   39DOPE   C39 5003   2.541   2.716   4.387 -0.2093  0.2076 -0.3525
   39DOPE   H9X 5004   2.542   2.799   4.314 -2.4219  0.7806  0.1912
   39DOPE  C310 5005   2.421   2.679   4.434  0.0172  0.2175 -0.2910
   39DOPE  H10X 5006   2.332   2.741   4.414 -0.4677  0.2051  1.5927
   39DOPE  C311 5007   2.395   2.562   4.522  0.2805  0.1387 -0.3521
   39DOPE  H11X 5008   2.448   2.467   4.499  0.7288 -0.0040  1.1553
   39DOPE  H11Y 5009   2.427   2.584   4.626 -1.3717  2.2714 -0.2215
   39DOPE  C312 5010   2.251   2.531   4.545  0.0487 -0.0325  0.0342
   39DOPE  H12X 5011   2.187   2.608   4.592 -0.3771 -0.7568  0.6525
   39DOPE  H12Y 5012   2.248   2.441   4.610  1.4407  0.7466  1.2449
   39DOPE  C313 5013   2.169   2.487   4.420 -0.3816  0.6619 -0.4917
   39DOPE  H13X 5014   2.077   2.451   4.469 -0.0431  0.2030 -0.1892
   39DOPE  H13Y 5015   2.144   2.570   4.350  2.7711 -0.1105 -2.8046
   39DOPE  C314 5016   2.225   2.356   4.362  0.3953  0.8054 -0.0731
   39DOPE  H14X 5017   2.257   2.289   4.445 -1.0177 -0.9923 -0.8959
   39DOPE  H14Y 5018   2.303   2.376   4.286 -1.2996 -0.4804 -2.2689
   39DOPE  C315 5019   2.109   2.272   4.299 -0.5672  0.3710  0.4853
   39DOPE  H15X 5020   2.042   2.334   4.236  3.1602  2.5105 -1.7903
   39DOPE  H15Y 5021   2.051   2.227   4.382 -0.0483 -2.4828 -0.5796
   39DOPE  C316 5022   2.160   2.149   4.226  0.6101 -0.0352  0.1562
   39DOPE  H16X 5023   2.223   2.094   4.300 -2.0197 -1.1365  1.7127
   39DOPE  H16Y 5024   2.220   2.183   4.140  0.2100 -0.3708 -0.2618
   39DOPE  C317 5025   2.052   2.058   4.155 -0.2351  0.2404 -0.0302
   39DOPE  H17X 5026   2.101   1.962   4.130  0.2516  0.2151  0.9619
   39DOPE  H17Y 5027   1.979   2.025   4.232  2.8371 -0.2733  2.9027
   39DOPE  C318 5028   1.969   2.128   4.049 -0.0380  0.6887  0.3853
   39DOPE  H18X 5029   1.866   2.088   4.036 -0.7102  2.3416  0.4025
   39DOPE  H18Y 5030   1.963   2.236   4.073  1.2389  0.8080  0.2359
   39DOPE  H18Z 5031   2.020   2.146   3.952 -3.0713 -0.2305 -1.5283
   40DOPE     N 5032   5.434   6.315   2.702 -0.0285  0.4243 -1.0277
   40DOPE   HN1 5033   5.398   6.283   2.795  0.4993 -0.7040 -1.2019
   40DOPE   HN2 5034   5.371   6.292   2.623 -0.3580 -0.7640 -0.4425
   40DOPE   HN3 5035   5.519   6.257   2.690 -0.7159 -0.6863 -0.6493
   40DOPE   C12 5036   5.473   6.463   2.729  0.6928  0.9980 -0.0266
   40DOPE  H12A 5037   5.383   6.519   2.762  0.4583  2.1224 -2.3947
   40DOPE  H12B 5038   5.507   6.499   2.630  1.1297 -0.1465 -0.3153
   40DOPE   C11 5039   5.576   6.468   2.845  0.1242 -0.4456  0.2106
   40DOPE  H11A 5040   5.610   6.573   2.859  2.8444 -1.3809  1.3438
   40DOPE  H11B 5041   5.663   6.409   2.809 -0.4632  0.1225 -2.4075
   40DOPE     P 5042   5.619   6.449   3.101  0.1040 -0.1765 -0.2467
   40DOPE   O13 5043   5.537   6.506   3.204  0.0081 -0.3319 -0.1582
   40DOPE   O14 5044   5.739   6.522   3.067  0.3371  0.4465 -0.5697
   40DOPE   O11 5045   5.649   6.301   3.141  0.1518  0.7026 -0.2205
   40DOPE   O12 5046   5.533   6.424   2.970 -0.5310  0.2276  0.5246
   40DOPE    C1 5047   5.538   6.216   3.172  0.1369  0.3698 -1.2435
   40DOPE    HA 5048   5.486   6.179   3.081 -0.5499  3.1749 -2.1154
   40DOPE    HB 5049   5.460   6.258   3.240 -0.9965 -1.0765 -1.6036
   40DOPE    C2 5050   5.588   6.085   3.248  1.2467 -0.3767 -0.3873
   40DOPE    HS 5051   5.501   6.017   3.261  2.0716 -1.5280 -0.7573
   40DOPE   O21 5052   5.638   6.129   3.374  0.1280  0.0000  0.0310
   40DOPE   C21 5053   5.635   6.046   3.481 -0.5601 -0.3534 -0.7216
   40DOPE   O22 5054   5.576   5.944   3.491 -0.1592  0.2380  0.0341
   40DOPE   C22 5055   5.715   6.101   3.599 -0.4175  0.2483 -0.3973
   40DOPE   H2R 5056   5.789   6.173   3.558  0.0042  0.4368  0.6584
   40DOPE   H2S 5057   5.770   6.017   3.646  0.0136 -1.5009 -3.6866
   40DOPE    C3 5058   5.701   6.021   3.176 -0.3931  0.1245 -0.0617
   40DOPE    HX 5059   5.796   6.077   3.186  0.9180 -1.9768 -0.1821
   40DOPE    HY 5060   5.692   6.026   3.065  1.5214 -1.2690 -0.3290
   40DOPE   O31 5061   5.734   5.886   3.210  0.1767 -0.0702  0.2554
   40DOPE   C31 5062   5.644   5.791   3.183 -0.3465  0.0688 -0.3557
   40DOPE   O32 5063   5.546   5.804   3.115 -0.1929  0.0893  0.0624
   40DOPE   C32 5064   5.679   5.657   3.247 -0.1545 -0.5115 -0.3688
   40DOPE   H2X 5065   5.607   5.574   3.229 -0.1727 -0.6632  0.3883
   40DOPE   H2Y 5066   5.776   5.618   3.210  0.1377 -1.0157  0.8704
   40DOPE   C23 5067   5.636   6.159   3.712 -0.4083 -0.5760  0.4590
   40DOPE   H3R 5068   5.557   6.091   3.752 -1.1948 -2.2298 -3.4164
   40DOPE   H3S 5069   5.590   6.251   3.671  0.6837 -0.0835  0.3192
   40DOPE   C24 5070   5.738   6.198   3.832  0.4945 -0.3803 -0.4610
   40DOPE   H4R 5071   5.824   6.259   3.796  2.0325 -1.8278  0.6246
   40DOPE   H4S 5072   5.791   6.111   3.875  1.9388 -0.7783 -2.8600
   40DOPE   C25 5073   5.662   6.284   3.935  0.5378 -0.1435 -0.3628
   40DOPE   H5R 5074   5.721   6.260   4.026  1.4236 -0.8254 -1.1058
   40DOPE   H5S 5075   5.558   6.246   3.949  0.4068  0.4257  0.2882
   40DOPE   C26 5076   5.659   6.434   3.901 -0.6055 -0.5152  0.1543
   40DOPE   H6R 5077   5.611   6.456   3.803  1.7913  0.6886 -0.8438
   40DOPE   H6S 5078   5.763   6.472   3.891 -0.8057 -0.2866 -1.2963
   40DOPE   C27 5079   5.579   6.526   3.997 -1.0169  0.1050 -0.4561
   40DOPE   H7R 5080   5.473   6.543   3.969 -1.1588  0.7084  0.3957
   40DOPE   H7S 5081   5.625   6.626   3.983  1.6734 -1.2513 -2.2187
   40DOPE   C28 5082   5.585   6.483   4.143 -0.3517  0.0401  0.3521
   40DOPE   H8R 5083   5.694   6.481   4.164  0.0105 -1.5938 -1.4252
   40DOPE   H8S 5084   5.546   6.381   4.162  0.7285 -0.4877 -0.2047
   40DOPE   C29 5085   5.521   6.583   4.240  0.2307 -0.0583 -0.5374
   40DOPE   H9R 5086   5.413   6.565   4.247  0.1852 -1.5855 -3.4430
   40DOPE  C210 5087   5.572   6.689   4.305  0.2435 -0.2424 -0.0998
   40DOPE  H10R 5088   5.516   6.756   4.372  0.0419 -1.6437  1.1780
   40DOPE  C211 5089   5.723   6.720   4.302  0.3264  0.6855 -0.8398
   40DOPE  H11R 5090   5.777   6.675   4.216  1.6018  0.1497  0.2143
   40DOPE  H11S 5091   5.766   6.678   4.396  0.1554 -0.4275 -1.2478
   40DOPE  C212 5092   5.740   6.870   4.275 -0.2310 -0.2876  0.8356
   40DOPE  H12R 5093   5.673   6.893   4.189 -0.3533 -0.9335  0.7558
   40DOPE  H12S 5094   5.844   6.895   4.246  0.3135 -3.2242 -0.0417
   40DOPE  C213 5095   5.708   6.960   4.393  0.8632 -0.2486  0.4256
   40DOPE  H13R 5096   5.600   6.951   4.418  0.4762 -1.4931 -1.4679
   40DOPE  H13S 5097   5.712   7.069   4.369  1.0904 -0.0229  1.4243
   40DOPE  C214 5098   5.776   6.934   4.528 -0.1942  0.1123 -0.2199
   40DOPE  H14R 5099   5.886   6.923   4.529  0.2062  2.4817  3.4206
   40DOPE  H14S 5100   5.739   6.834   4.561  1.7463  0.3207  3.0081
   40DOPE  C215 5101   5.746   7.041   4.635 -0.0587  0.2403 -0.0074
   40DOPE  H15R 5102   5.640   7.075   4.635 -0.0018  0.5055  1.3638
   40DOPE  H15S 5103   5.801   7.128   4.593  0.0191  0.1875 -0.0160
   40DOPE  C216 5104   5.784   7.008   4.781 -0.1102  0.8349  0.2364
   40DOPE  H16R 5105   5.848   6.917   4.785 -0.7178  0.3821 -0.0620
   40DOPE  H16S 5106   5.688   6.994   4.836 -0.6619  0.7917 -0.7147
   40DOPE  C217 5107   5.846   7.126   4.846 -0.2866 -0.3576 -0.9961
   40DOPE  H17R 5108   5.780   7.215   4.841 -0.2991 -0.4615 -3.6825
   40DOPE  H17S 5109   5.941   7.135   4.789  0.6235 -1.4118  0.2714
   40DOPE  C218 5110   5.886   7.102   4.998 -0.2513  0.3259  0.3089
   40DOPE  H18R 5111   5.929   7.190   5.048 -1.0056  0.5590  0.5688
   40DOPE  H18S 5112   5.957   7.017   5.007  0.6374  1.0247 -0.0105
   40DOPE  H18T 5113   5.799   7.058   5.052 -0.0382 -2.5748 -1.4396
   40DOPE   C33 5114   5.691   5.678   3.399  0.1276  0.2931  0.0757
   40DOPE   H3X 5115   5.594   5.706   3.445  0.3288  1.7677 -0.3433
   40DOPE   H3Y 5116   5.759   5.763   3.423 -0.5637  0.7719  0.3771
   40DOPE   C34 5117   5.738   5.554   3.470 -0.1317  0.9618  0.0069
   40DOPE   H4X 5118   5.656   5.483   3.445  0.2990  0.0009  1.2668
   40DOPE   H4Y 5119   5.832   5.516   3.427 -0.8273 -0.0213 -0.6897
   40DOPE   C35 5120   5.750   5.572   3.620  0.8860  0.4460 -0.2853
   40DOPE   H5X 5121   5.781   5.484   3.679  0.4131  1.2680  1.2454
   40DOPE   H5Y 5122   5.647   5.596   3.652  1.3981 -0.1815  2.0014
   40DOPE   C36 5123   5.849   5.677   3.675  0.3136 -0.0933 -0.1422
   40DOPE   H6X 5124   5.803   5.778   3.670  1.5464  0.5618  1.0525
   40DOPE   H6Y 5125   5.941   5.674   3.614 -0.4932  1.1321 -1.4732
   40DOPE   C37 5126   5.879   5.654   3.818  0.7917  0.4784 -0.0962
   40DOPE   H7X 5127   5.781   5.669   3.866  0.1847 -0.4414 -1.0175
   40DOPE   H7Y 5128   5.917   5.551   3.828  1.4011  0.4612 -2.1111
   40DOPE   C38 5129   5.991   5.743   3.876  0.0486 -0.2268 -0.0396
   40DOPE   H8X 5130   5.964   5.850   3.866 -0.4830 -0.3626 -0.1072
   40DOPE   H8Y 5131   6.077   5.725   3.808 -0.6846 -1.5857 -0.6429
   40DOPE   C39 5132   6.033   5.702   4.018  0.6677 -0.1072 -0.0759
   40DOPE   H9X 5133   5.946   5.693   4.085 -1.3742  1.0794 -2.3683
   40DOPE  C310 5134   6.162   5.692   4.071  0.0231  0.4018  0.3871
   40DOPE  H10X 5135   6.178   5.658   4.174 -0.1384 -0.4332  0.1517
   40DOPE  C311 5136   6.285   5.737   4.005  0.3211 -0.5605 -1.0712
   40DOPE  H11X 5137   6.271   5.796   3.912  3.2963  1.9697 -0.0920
   40DOPE  H11Y 5138   6.337   5.806   4.075  2.4977 -2.1718 -0.9977
   40DOPE  C312 5139   6.391   5.623   3.986 -0.6669  0.7906  0.5026
   40DOPE  H12X 5140   6.470   5.653   3.914 -1.6825  0.5626 -0.7444
   40DOPE  H12Y 5141   6.360   5.525   3.944  2.9927 -0.5140  0.4315
   40DOPE  C313 5142   6.462   5.579   4.116  1.1058  0.2829  0.1283
   40DOPE  H13X 5143   6.383   5.569   4.195 -0.4451  0.2610 -1.3678
   40DOPE  H13Y 5144   6.492   5.474   4.098  1.1141  0.1239  1.0220
   40DOPE  C314 5145   6.572   5.678   4.175 -0.9080  0.2176 -0.4294
   40DOPE  H14X 5146   6.534   5.775   4.213 -2.5030 -1.0707  1.4665
   40DOPE  H14Y 5147   6.629   5.700   4.082 -0.2987  0.5839  0.0307
   40DOPE  C315 5148   6.653   5.610   4.287 -0.1803 -0.4978  0.1236
   40DOPE  H15X 5149   6.687   5.512   4.248 -1.1632 -1.5196  1.7259
   40DOPE  H15Y 5150   6.584   5.580   4.369 -0.2628 -3.0229 -0.7863
   40DOPE  C316 5151   6.774   5.692   4.344  0.1606  0.1130 -0.4786
   40DOPE  H16X 5152   6.843   5.621   4.394 -0.3389  0.1614  0.2903
   40DOPE  H16Y 5153   6.742   5.763   4.424 -0.9416  0.3721 -1.1170
   40DOPE  C317 5154   6.858   5.772   4.240  0.2501 -0.1456 -0.0942
   40DOPE  H17X 5155   6.801   5.851   4.186  0.9276 -0.0573 -0.6870
   40DOPE  H17Y 5156   6.931   5.824   4.306  0.9480 -1.1062 -0.1023
   40DOPE  C318 5157   6.932   5.690   4.136 -0.7461  0.1393 -0.0180
   40DOPE  H18X 5158   7.022   5.634   4.170  0.4201  2.0564  0.2359
   40DOPE  H18Y 5159   6.858   5.618   4.094  1.2988 -1.7338 -0.5934
   40DOPE  H18Z 5160   6.961   5.756   4.051  0.5294 -0.3885 -0.0179
   41DOPE     N 5161   1.450   5.509   3.087  0.3296 -0.1348 -0.8522
   41DOPE   HN1 5162   1.548   5.476   3.075  0.6553 -0.1918  1.5062
   41DOPE   HN2 5163   1.454   5.608   3.055  1.9184  0.3736  0.7525
   41DOPE   HN3 5164   1.446   5.503   3.191  2.4960 -0.1597 -0.7303
   41DOPE   C12 5165   1.333   5.442   3.034 -0.4831  0.3258  0.2423
   41DOPE  H12A 5166   1.350   5.337   3.063  1.0667  0.7756  1.0846
   41DOPE  H12B 5167   1.329   5.447   2.923  4.6881 -1.9643 -0.3168
   41DOPE   C11 5168   1.205   5.490   3.103 -0.2174  0.5632 -0.8119
   41DOPE  H11A 5169   1.211   5.483   3.214  1.0705  0.0143 -0.9070
   41DOPE  H11B 5170   1.127   5.420   3.065  0.6838 -0.1558 -1.3699
   41DOPE     P 5171   1.065   5.667   2.972  0.2822 -0.5747  0.1428
   41DOPE   O13 5172   1.084   5.569   2.864 -0.6231 -0.1358  0.0343
   41DOPE   O14 5173   1.076   5.819   2.956 -0.0709  0.2050  0.1582
   41DOPE   O11 5174   0.931   5.629   3.047  0.3219 -1.1570  0.2044
   41DOPE   O12 5175   1.176   5.622   3.076  0.5922  0.0944  0.1350
   41DOPE    C1 5176   0.914   5.665   3.184 -0.4520 -0.1733 -1.1253
   41DOPE    HA 5177   0.818   5.717   3.204  1.3837  2.8424  0.5345
   41DOPE    HB 5178   0.991   5.731   3.230 -0.9422  0.5774 -1.3662
   41DOPE    C2 5179   0.915   5.539   3.281  0.2151  0.2724  0.1378
   41DOPE    HS 5180   1.015   5.491   3.270  1.9376  3.5114  0.4784
   41DOPE   O21 5181   0.815   5.444   3.231 -0.0315  0.2597  0.3715
   41DOPE   C21 5182   0.827   5.314   3.252  1.3071 -0.5740  0.6318
   41DOPE   O22 5183   0.917   5.259   3.316 -0.3017  0.7888  0.1770
   41DOPE   C22 5184   0.730   5.243   3.158 -0.3964  0.3706 -0.3952
   41DOPE   H2R 5185   0.794   5.210   3.072 -0.8910  1.7128 -1.3074
   41DOPE   H2S 5186   0.647   5.312   3.131 -2.3529 -1.3823  0.7909
   41DOPE    C3 5187   0.903   5.569   3.436  0.8846  0.5094 -0.3202
   41DOPE    HX 5188   0.798   5.599   3.456  1.0071  0.2185  0.8901
   41DOPE    HY 5189   0.959   5.660   3.468  0.6693  0.4359  0.2788
   41DOPE   O31 5190   0.916   5.452   3.525  0.5251 -0.4632  0.2559
   41DOPE   C31 5191   1.046   5.425   3.551 -0.8957 -0.0812 -0.3880
   41DOPE   O32 5192   1.144   5.492   3.516 -0.5825  0.2794  0.4549
   41DOPE   C32 5193   1.054   5.294   3.636  0.2586 -0.3923 -0.1299
   41DOPE   H2X 5194   0.949   5.262   3.655  0.0898 -0.0721 -0.5231
   41DOPE   H2Y 5195   1.111   5.223   3.573 -0.1834 -0.0861 -0.8935
   41DOPE   C23 5196   0.672   5.117   3.232 -0.3573  0.0309  0.3801
   41DOPE   H3R 5197   0.750   5.049   3.273 -3.4457 -2.7808  2.0066
   41DOPE   H3S 5198   0.631   5.059   3.146 -0.0365 -0.4299  0.5360
   41DOPE   C24 5199   0.566   5.128   3.348 -0.2415 -0.6267 -0.1273
   41DOPE   H4R 5200   0.557   5.023   3.383  0.0058 -0.3199  0.8840
   41DOPE   H4S 5201   0.473   5.167   3.302 -0.1960  0.7908  0.9208
   41DOPE   C25 5202   0.605   5.215   3.470  0.3745 -0.0529 -0.7920
   41DOPE   H5R 5203   0.580   5.322   3.452  0.1888  0.3444  1.5422
   41DOPE   H5S 5204   0.710   5.210   3.506 -0.3975  2.8619  2.3885
   41DOPE   C26 5205   0.517   5.204   3.603  0.3116  0.4190 -0.3082
   41DOPE   H6R 5206   0.539   5.100   3.637  0.1635  0.5849  0.2949
   41DOPE   H6S 5207   0.411   5.222   3.574  0.2368  0.0698 -0.2601
   41DOPE   C27 5208   0.562   5.315   3.699  0.7371  0.0848 -0.6063
   41DOPE   H7R 5209   0.518   5.406   3.651 -2.1759 -1.3692 -0.8894
   41DOPE   H7S 5210   0.672   5.319   3.716  0.7948  0.5262 -1.0405
   41DOPE   C28 5211   0.494   5.288   3.836 -0.4612 -0.7087 -0.0179
   41DOPE   H8R 5212   0.539   5.191   3.867  1.3085  0.1273  0.1802
   41DOPE   H8S 5213   0.386   5.265   3.827 -0.4253 -1.1535  0.5934
   41DOPE   C29 5214   0.532   5.389   3.943  0.7607 -0.3346 -0.2459
   41DOPE   H9R 5215   0.641   5.404   3.951  0.4705  1.2013  1.3139
   41DOPE  C210 5216   0.450   5.474   4.011  0.2977 -0.1996 -0.2086
   41DOPE  H10R 5217   0.485   5.550   4.082 -2.0723  0.1908  0.6294
   41DOPE  C211 5218   0.302   5.484   3.999  0.7775 -0.4093  0.0072
   41DOPE  H11R 5219   0.243   5.461   4.090 -1.6790 -0.7249 -1.5780
   41DOPE  H11S 5220   0.263   5.411   3.924  0.4549  0.2560 -0.4809
   41DOPE  C212 5221   0.248   5.623   3.948 -0.1633  0.4529  0.5731
   41DOPE  H12R 5222   0.302   5.646   3.853 -1.1009 -1.8024 -0.5679
   41DOPE  H12S 5223   0.255   5.696   4.032 -0.2654 -1.3382  2.1852
   41DOPE  C213 5224   0.092   5.622   3.930 -0.4251 -0.2468 -0.4771
   41DOPE  H13R 5225   0.064   5.534   3.868  1.4904 -0.7870 -0.6608
   41DOPE  H13S 5226   0.063   5.718   3.882  0.5127 -0.0047 -0.5762
   41DOPE  C214 5227   0.014   5.602   4.060 -0.7114 -0.8070  0.7266
   41DOPE  H14R 5228   0.027   5.688   4.129  1.9332 -1.5194  1.2145
   41DOPE  H14S 5229   0.044   5.507   4.108 -1.5343 -0.1824  2.5677
   41DOPE  C215 5230  -0.134   5.592   4.037 -0.8128 -0.4933 -0.1093
   41DOPE  H15R 5231  -0.176   5.595   4.140  0.4022  1.3136  0.3838
   41DOPE  H15S 5232  -0.173   5.503   3.982 -3.6226  1.0726 -0.8806
   41DOPE  C216 5233  -0.208   5.720   3.978  0.2215  0.0235 -0.4115
   41DOPE  H16R 5234  -0.165   5.751   3.880  1.3250  1.3992  0.4606
   41DOPE  H16S 5235  -0.202   5.804   4.050 -1.5184  1.0422 -1.3803
   41DOPE  C217 5236  -0.362   5.686   3.960  0.3234  0.0359 -0.0152
   41DOPE  H17R 5237  -0.409   5.672   4.060  3.3629 -0.5726  1.4601
   41DOPE  H17S 5238  -0.384   5.593   3.904 -1.2689  0.7251 -0.6057
   41DOPE  C218 5239  -0.425   5.799   3.886  0.4282  0.7090 -0.0522
   41DOPE  H18R 5240  -0.401   5.895   3.937 -0.2797  1.4447 -1.0709
   41DOPE  H18S 5241  -0.535   5.789   3.878  0.6935 -3.0615 -0.5781
   41DOPE  H18T 5242  -0.384   5.808   3.783  0.8399  3.0673  0.2524
   41DOPE   C33 5243   1.122   5.317   3.773  0.3134 -0.4495  0.4154
   41DOPE   H3X 5244   1.076   5.409   3.816 -1.5190  0.6830 -3.4733
   41DOPE   H3Y 5245   1.229   5.335   3.752  0.7530  0.4096  3.0100
   41DOPE   C34 5246   1.118   5.210   3.869  0.9147 -0.5389 -0.4483
   41DOPE   H4X 5247   1.148   5.112   3.826 -2.2553 -1.4691 -0.8149
   41DOPE   H4Y 5248   1.192   5.225   3.951 -0.1705  0.5578  0.3641
   41DOPE   C35 5249   0.974   5.175   3.934 -0.6649  0.3456  0.8472
   41DOPE   H5X 5250   0.932   5.114   3.852  2.8922  2.1093 -2.6193
   41DOPE   H5Y 5251   0.916   5.270   3.931 -2.2280 -0.5418 -3.5478
   41DOPE   C36 5252   0.984   5.099   4.062  0.4557 -0.0624 -0.1293
   41DOPE   H6X 5253   1.031   5.153   4.147 -0.6864 -0.9139  1.0717
   41DOPE   H6Y 5254   1.043   5.005   4.056  0.3256 -0.0816 -1.3575
   41DOPE   C37 5255   0.847   5.085   4.130 -0.6743  0.1720 -0.8524
   41DOPE   H7X 5256   0.776   5.028   4.067 -1.4620  0.6663 -0.4411
   41DOPE   H7Y 5257   0.864   5.014   4.214 -0.9362  0.3121 -0.6806
   41DOPE   C38 5258   0.792   5.227   4.185  0.1525  0.4979 -0.5039
   41DOPE   H8X 5259   0.809   5.314   4.119 -1.2355  2.1822  1.2230
   41DOPE   H8Y 5260   0.854   5.258   4.271  1.6410 -0.0026 -1.3656
   41DOPE   C39 5261   0.643   5.218   4.222  0.5448 -0.8830 -0.5826
   41DOPE   H9X 5262   0.572   5.233   4.139 -0.7323  0.0795  0.6506
   41DOPE  C310 5263   0.600   5.205   4.350 -0.4113  0.1807  0.1631
   41DOPE  H10X 5264   0.490   5.210   4.354 -0.3749  1.0072  0.1897
   41DOPE  C311 5265   0.682   5.191   4.477 -0.0189 -0.0732  0.6222
   41DOPE  H11X 5266   0.789   5.175   4.453  1.0133  3.3868  2.1927
   41DOPE  H11Y 5267   0.668   5.289   4.528 -1.3412  2.0310 -3.2924
   41DOPE  C312 5268   0.641   5.077   4.570  0.4621  0.0093 -0.2663
   41DOPE  H12X 5269   0.727   5.049   4.635  0.2361 -1.6812 -0.6596
   41DOPE  H12Y 5270   0.616   4.987   4.509 -0.8623  0.2508 -0.1158
   41DOPE  C313 5271   0.520   5.112   4.659  0.1927 -0.1021  0.0339
   41DOPE  H13X 5272   0.438   5.156   4.598  0.2183  0.8847  0.6867
   41DOPE  H13Y 5273   0.478   5.013   4.686 -0.0520  0.0404  0.1750
   41DOPE  C314 5274   0.553   5.201   4.777 -0.0061  0.7807  0.3266
   41DOPE  H14X 5275   0.591   5.296   4.735  0.5243  0.3220 -0.2491
   41DOPE  H14Y 5276   0.623   5.148   4.845  0.9727 -1.3930 -2.1821
   41DOPE  C315 5277   0.424   5.235   4.857  0.7210  0.4933 -0.5372
   41DOPE  H15X 5278   0.381   5.137   4.885  2.4765 -0.0090  0.6232
   41DOPE  H15Y 5279   0.345   5.278   4.792 -0.5258  1.0366  1.2610
   41DOPE  C316 5280   0.451   5.326   4.980 -0.3179 -0.1805  0.7591
   41DOPE  H16X 5281   0.454   5.432   4.946  1.9128 -0.4515 -0.0760
   41DOPE  H16Y 5282   0.545   5.297   5.033  0.1210 -0.4925 -0.1627
   41DOPE  C317 5283   0.330   5.314   5.084  0.1903 -0.1639 -0.2141
   41DOPE  H17X 5284   0.241   5.343   5.023 -1.1654 -0.1452  1.7023
   41DOPE  H17Y 5285   0.322   5.205   5.107 -2.1141  0.3342  1.6396
   41DOPE  C318 5286   0.349   5.407   5.203  0.3407  0.4104  0.5077
   41DOPE  H18X 5287   0.268   5.394   5.278  0.2658  1.5242  0.6420
   41DOPE  H18Y 5288   0.447   5.377   5.245  0.8211 -2.3295 -2.2357
   41DOPE  H18Z 5289   0.352   5.514   5.175  2.1860  0.3216  0.2095
   42DOPE     N 5290   0.903   3.523   3.027 -0.3209  0.0192 -0.6974
   42DOPE   HN1 5291   0.799   3.530   3.026 -0.2471  1.9658  0.4791
   42DOPE   HN2 5292   0.928   3.437   3.080  0.1960  0.0302 -0.9186
   42DOPE   HN3 5293   0.937   3.607   3.078 -3.3089  0.1250  1.3666
   42DOPE   C12 5294   0.951   3.499   2.884 -0.3693 -0.2313 -0.9686
   42DOPE  H12A 5295   0.954   3.592   2.824 -0.3727  1.0389  0.9353
   42DOPE  H12B 5296   0.867   3.439   2.842 -1.8167  0.7972  0.3642
   42DOPE   C11 5297   1.094   3.444   2.871  0.6162 -0.0391  0.1568
   42DOPE  H11A 5298   1.105   3.405   2.768  1.5364 -2.2168  1.0262
   42DOPE  H11B 5299   1.100   3.355   2.938 -0.9999 -0.8834 -0.7314
   42DOPE     P 5300   1.341   3.495   2.917  0.0636  0.0058 -0.0506
   42DOPE   O13 5301   1.426   3.616   2.948  0.5003  0.0894 -0.1718
   42DOPE   O14 5302   1.377   3.427   2.796 -0.2078  0.7549 -0.0628
   42DOPE   O11 5303   1.349   3.410   3.046 -0.7817 -0.2550 -0.1324
   42DOPE   O12 5304   1.192   3.541   2.905 -0.0375  0.0649  0.1068
   42DOPE    C1 5305   1.295   3.452   3.161 -0.1671 -0.9458 -0.1108
   42DOPE    HA 5306   1.231   3.371   3.202 -0.9871  0.6982  2.0793
   42DOPE    HB 5307   1.223   3.536   3.149 -0.5874 -1.1372  0.9503
   42DOPE    C2 5308   1.400   3.486   3.274  0.5519  0.0588  0.7798
   42DOPE    HS 5309   1.460   3.567   3.229  0.0141 -0.3650 -0.7491
   42DOPE   O21 5310   1.465   3.369   3.302 -0.1040  0.0671  0.2928
   42DOPE   C21 5311   1.586   3.379   3.339 -0.9527 -0.1314  0.2716
   42DOPE   O22 5312   1.662   3.473   3.321  0.3066 -0.1583 -0.1511
   42DOPE   C22 5313   1.627   3.253   3.417  0.8984  0.2061  0.0273
   42DOPE   H2R 5314   1.631   3.169   3.344 -2.4565 -1.1414  1.1836
   42DOPE   H2S 5315   1.548   3.243   3.495 -0.4101  1.7329 -1.0351
   42DOPE    C3 5316   1.345   3.530   3.406 -0.3640 -0.6174  0.1560
   42DOPE    HX 5317   1.297   3.440   3.450  0.7488 -1.3799 -0.1461
   42DOPE    HY 5318   1.278   3.613   3.374  0.3022 -0.7929 -1.8118
   42DOPE   O31 5319   1.448   3.573   3.498 -0.1376  0.4902 -0.1896
   42DOPE   C31 5320   1.488   3.693   3.479 -0.9561 -0.0138  0.2017
   42DOPE   O32 5321   1.446   3.775   3.392 -0.2373  0.0869  0.3955
   42DOPE   C32 5322   1.608   3.725   3.574  0.5528  0.1601 -0.1651
   42DOPE   H2X 5323   1.607   3.658   3.663 -0.2057  2.1456  1.4285
   42DOPE   H2Y 5324   1.705   3.711   3.523  0.4246 -1.1866 -0.0802
   42DOPE   C23 5325   1.764   3.274   3.486 -0.1467 -0.0215 -0.0252
   42DOPE   H3R 5326   1.839   3.318   3.417  1.2781 -0.1439  1.3622
   42DOPE   H3S 5327   1.808   3.174   3.508  3.5748  1.3524 -0.4828
   42DOPE   C24 5328   1.752   3.358   3.614  0.5119  0.0242 -0.0108
   42DOPE   H4R 5329   1.664   3.317   3.669  0.7665 -0.1271  0.2859
   42DOPE   H4S 5330   1.730   3.465   3.591  2.0352  0.1622 -0.9660
   42DOPE   C25 5331   1.882   3.359   3.701  0.2698  0.7918  0.5813
   42DOPE   H5R 5332   1.967   3.364   3.631 -0.8279 -1.5812 -1.0530
   42DOPE   H5S 5333   1.897   3.255   3.737  0.8857  0.2229 -1.2195
   42DOPE   C26 5334   1.874   3.453   3.818 -0.6465 -0.3817 -0.1010
   42DOPE   H6R 5335   1.774   3.463   3.863 -2.1923 -0.0808 -3.3353
   42DOPE   H6S 5336   1.893   3.553   3.775 -2.1464 -0.4633 -1.0232
   42DOPE   C27 5337   1.973   3.414   3.921 -0.4874  0.8558 -0.7557
   42DOPE   H7R 5338   2.067   3.376   3.876 -0.9064 -1.1905  0.0311
   42DOPE   H7S 5339   1.933   3.327   3.976 -0.1481  0.6451 -0.8416
   42DOPE   C28 5340   2.009   3.528   4.020 -0.4454  0.3410 -0.1138
   42DOPE   H8R 5341   2.078   3.490   4.098 -1.9687  1.9793  2.1368
   42DOPE   H8S 5342   1.919   3.554   4.079 -0.4020 -1.2820  0.7438
   42DOPE   C29 5343   2.070   3.647   3.949 -0.1985 -0.3947 -0.6999
   42DOPE   H9R 5344   2.178   3.632   3.931  0.1849  1.0069  0.2200
   42DOPE  C210 5345   2.017   3.771   3.934 -0.7841 -0.0502 -0.9142
   42DOPE  H10R 5346   2.072   3.857   3.891 -1.6386  0.4262 -1.0767
   42DOPE  C211 5347   1.874   3.809   3.969 -0.3009 -0.2306  0.4104
   42DOPE  H11R 5348   1.806   3.721   3.973 -0.2980 -0.2951 -0.5917
   42DOPE  H11S 5349   1.843   3.863   3.877 -0.5202 -1.5120 -0.3028
   42DOPE  C212 5350   1.857   3.885   4.102  0.1803  0.0705 -0.0729
   42DOPE  H12R 5351   1.889   3.812   4.180  2.8040  0.2688 -0.8785
   42DOPE  H12S 5352   1.751   3.910   4.123 -0.1804 -2.0110  0.8854
   42DOPE  C213 5353   1.946   4.007   4.116 -0.5270 -0.3044  0.3898
   42DOPE  H13R 5354   1.950   4.060   4.019 -1.4380 -1.5218 -0.3393
   42DOPE  H13S 5355   2.047   3.969   4.140 -1.1541 -1.4542  1.3373
   42DOPE  C214 5356   1.896   4.103   4.225  0.1050 -0.1826  1.3901
   42DOPE  H14R 5357   1.877   4.055   4.323 -0.1821 -2.8482  0.1196
   42DOPE  H14S 5358   1.811   4.160   4.183  1.2826 -0.4634 -1.7091
   42DOPE  C215 5359   2.009   4.201   4.259  0.3001  0.2201  0.0102
   42DOPE  H15R 5360   2.013   4.274   4.176 -1.0554  0.9466  0.5610
   42DOPE  H15S 5361   2.105   4.146   4.247  0.4068  0.7135 -1.6460
   42DOPE  C216 5362   1.988   4.279   4.400  0.1347  0.1550  1.2162
   42DOPE  H16R 5363   1.884   4.313   4.379  0.4693 -0.1774 -1.3123
   42DOPE  H16S 5364   2.057   4.365   4.411  1.6382 -0.3053 -2.8794
   42DOPE  C217 5365   2.001   4.198   4.526  0.1369  0.1366 -0.4887
   42DOPE  H17R 5366   2.106   4.179   4.554  0.4733  1.6050 -0.6417
   42DOPE  H17S 5367   1.950   4.100   4.518 -0.3086  0.2626  0.6177
   42DOPE  C218 5368   1.930   4.282   4.637  0.0561 -0.0735 -0.0546
   42DOPE  H18R 5369   1.829   4.320   4.611 -0.6677 -0.6983  1.7038
   42DOPE  H18S 5370   1.991   4.367   4.674  0.1257  0.1057 -0.5708
   42DOPE  H18T 5371   1.904   4.224   4.728  0.1847  1.3715  0.9349
   42DOPE   C33 5372   1.604   3.872   3.622  0.0935 -0.0461 -0.0772
   42DOPE   H3X 5373   1.630   3.948   3.545 -1.1524  1.1950  0.6791
   42DOPE   H3Y 5374   1.698   3.869   3.683  0.3887 -0.2952 -0.5345
   42DOPE   C34 5375   1.480   3.911   3.718 -0.2185 -0.9846 -0.7401
   42DOPE   H4X 5376   1.486   4.022   3.728 -2.0200 -0.8506 -0.7875
   42DOPE   H4Y 5377   1.382   3.888   3.670 -0.2836 -2.6326  0.1284
   42DOPE   C35 5378   1.482   3.838   3.854  0.0696  0.1986 -1.0490
   42DOPE   H5X 5379   1.585   3.841   3.898 -0.2784  1.1973 -0.2751
   42DOPE   H5Y 5380   1.454   3.731   3.840  0.7180  0.1726 -2.2338
   42DOPE   C36 5381   1.397   3.907   3.961  0.5744  0.4021 -0.3332
   42DOPE   H6X 5382   1.299   3.940   3.922  2.0222  2.7432 -2.2900
   42DOPE   H6Y 5383   1.424   4.013   3.981 -3.9117  1.1578  3.2819
   42DOPE   C37 5384   1.397   3.832   4.094  0.1055  0.5464  0.2721
   42DOPE   H7X 5385   1.333   3.741   4.090 -0.2123  0.6728  1.8172
   42DOPE   H7Y 5386   1.500   3.797   4.117  0.0004  1.6385  2.8382
   42DOPE   C38 5387   1.351   3.914   4.211  0.0663  0.4104  0.0718
   42DOPE   H8X 5388   1.411   4.007   4.219 -1.9114  1.7083  0.7726
   42DOPE   H8Y 5389   1.372   3.858   4.304 -1.7258 -1.5813 -0.6486
   42DOPE   C39 5390   1.203   3.945   4.197 -0.0579 -0.0360 -0.1646
   42DOPE   H9X 5391   1.148   3.861   4.152  0.6871 -0.2696 -0.6622
   42DOPE  C310 5392   1.133   4.054   4.241 -0.3103  0.5639 -0.6332
   42DOPE  H10X 5393   1.024   4.043   4.235 -0.2767 -0.1120 -0.1541
   42DOPE  C311 5394   1.200   4.168   4.308 -0.1216 -0.6076  0.0381
   42DOPE  H11X 5395   1.305   4.179   4.274 -0.2183 -0.2066 -0.1343
   42DOPE  H11Y 5396   1.165   4.265   4.267  3.7329  0.6034 -0.8137
   42DOPE  C312 5397   1.184   4.167   4.465 -0.1635 -0.1240  0.7860
   42DOPE  H12X 5398   1.247   4.243   4.516  1.7095 -0.6147 -0.6757
   42DOPE  H12Y 5399   1.223   4.068   4.498  2.2595  0.1231 -0.9977
   42DOPE  C313 5400   1.034   4.168   4.512 -0.2822  0.1132 -0.0551
   42DOPE  H13X 5401   0.990   4.269   4.497  1.5967  1.1369  1.0501
   42DOPE  H13Y 5402   0.977   4.087   4.462 -1.1732  0.3814  0.5184
   42DOPE  C314 5403   1.019   4.125   4.660  0.2512 -0.4918  0.1154
   42DOPE  H14X 5404   1.059   4.206   4.725 -1.7906  0.6642  0.0216
   42DOPE  H14Y 5405   1.088   4.039   4.671 -1.8055 -2.1116  1.1151
   42DOPE  C315 5406   0.878   4.081   4.712 -0.1517  0.0708 -0.5678
   42DOPE  H15X 5407   0.826   4.004   4.652  1.3401  0.1221 -2.0001
   42DOPE  H15Y 5408   0.819   4.175   4.721  0.9840  0.6576  1.2564
   42DOPE  C316 5409   0.889   4.027   4.861  0.2805  0.0874  0.7889
   42DOPE  H16X 5410   0.788   3.996   4.897  0.0765 -2.9642 -1.8304
   42DOPE  H16Y 5411   0.921   4.119   4.914  3.7402  0.5898 -1.8310
   42DOPE  C317 5412   0.968   3.902   4.893  0.0899  0.7371  0.5396
   42DOPE  H17X 5413   1.044   3.875   4.817 -0.4639 -2.4297  0.9443
   42DOPE  H17Y 5414   1.027   3.917   4.986  0.2538 -0.9135  0.7296
   42DOPE  C318 5415   0.865   3.782   4.913 -0.6771  0.6604  0.6480
   42DOPE  H18X 5416   0.785   3.807   4.986 -0.8250 -1.0788  1.1292
   42DOPE  H18Y 5417   0.814   3.776   4.814  0.7448 -0.1185 -0.0686
   42DOPE  H18Z 5418   0.926   3.691   4.930 -0.0079  1.0075  0.1842
   43DOPE     N 5419   2.499   2.258   3.123 -0.5029  0.1090  0.0454
   43DOPE   HN1 5420   2.508   2.360   3.136 -3.2490  0.1872  2.1342
   43DOPE   HN2 5421   2.546   2.221   3.038  2.2434 -0.7479  1.7832
   43DOPE   HN3 5422   2.399   2.230   3.122 -0.6681  0.6867  0.1249
   43DOPE   C12 5423   2.553   2.180   3.239  0.2873  0.7638 -0.2249
   43DOPE  H12A 5424   2.506   2.229   3.327 -2.4374  2.0203 -2.2359
   43DOPE  H12B 5425   2.663   2.187   3.248  0.5396  0.5714 -2.4982
   43DOPE   C11 5426   2.506   2.030   3.227 -0.4976 -0.8350  0.4145
   43DOPE  H11A 5427   2.396   2.021   3.218 -0.5224 -1.9852  1.5709
   43DOPE  H11B 5428   2.523   1.972   3.320 -0.0407 -1.0262  0.2201
   43DOPE     P 5429   2.708   1.899   3.121  0.1944 -0.2105 -0.7104
   43DOPE   O13 5430   2.799   2.012   3.142 -0.0458  0.1483  0.0218
   43DOPE   O14 5431   2.721   1.826   2.999 -0.2672 -0.0718  0.0523
   43DOPE   O11 5432   2.713   1.802   3.248  0.5573  0.4103 -0.0868
   43DOPE   O12 5433   2.559   1.967   3.111 -0.3116 -0.1355  0.2206
   43DOPE    C1 5434   2.779   1.856   3.367  1.1525 -0.2888 -0.3039
   43DOPE    HA 5435   2.769   1.966   3.376 -0.6898 -0.2166 -2.3938
   43DOPE    HB 5436   2.887   1.829   3.370  1.2030  0.0353  1.1011
   43DOPE    C2 5437   2.705   1.799   3.487 -0.0049 -0.5858 -0.0469
   43DOPE    HS 5438   2.599   1.832   3.482  0.0237 -0.2387  1.1903
   43DOPE   O21 5439   2.777   1.846   3.605  0.0011 -0.6881  0.5086
   43DOPE   C21 5440   2.753   1.962   3.649 -0.5534 -0.0284  0.7534
   43DOPE   O22 5441   2.687   2.046   3.593 -0.0167  0.4194  0.4607
   43DOPE   C22 5442   2.840   1.990   3.776 -0.1213 -0.1741  0.4524
   43DOPE   H2R 5443   2.923   1.916   3.771 -0.9466 -1.0445 -1.2238
   43DOPE   H2S 5444   2.786   1.942   3.860 -0.5495  0.5563  0.5941
   43DOPE    C3 5445   2.714   1.642   3.479  0.0905 -0.5392 -0.0756
   43DOPE    HX 5446   2.821   1.625   3.501  0.2625  2.0753  1.5608
   43DOPE    HY 5447   2.683   1.607   3.378 -1.4907 -0.0085  0.1924
   43DOPE   O31 5448   2.625   1.591   3.575 -0.1398 -0.0269  0.4900
   43DOPE   C31 5449   2.605   1.458   3.567  0.2109 -0.3644  0.3391
   43DOPE   O32 5450   2.672   1.386   3.491  0.4383  0.3091  0.3166
   43DOPE   C32 5451   2.485   1.414   3.658  0.7472 -0.4637 -0.2439
   43DOPE   H2X 5452   2.432   1.508   3.684  0.7702  0.0074 -1.7502
   43DOPE   H2Y 5453   2.416   1.341   3.610 -0.3462  0.7352 -0.5172
   43DOPE   C23 5454   2.884   2.135   3.792  0.0958  0.1744  0.4866
   43DOPE   H3R 5455   2.806   2.208   3.762  2.1117  2.0639 -0.4533
   43DOPE   H3S 5456   2.969   2.161   3.726 -0.1881  1.8844  0.7531
   43DOPE   C24 5457   2.922   2.165   3.935  0.5148 -0.1912  0.4441
   43DOPE   H4R 5458   2.987   2.100   3.997  1.3933  1.3230  1.1634
   43DOPE   H4S 5459   2.826   2.165   3.992 -0.2550 -1.0581 -0.8041
   43DOPE   C25 5460   2.983   2.306   3.942 -0.7275 -0.4976 -0.1201
   43DOPE   H5R 5461   2.930   2.388   3.889  0.2648  1.9498  2.4143
   43DOPE   H5S 5462   3.083   2.307   3.895 -0.5754 -2.6086  0.0468
   43DOPE   C26 5463   3.023   2.350   4.088  0.2981  0.0884  0.0108
   43DOPE   H6R 5464   2.965   2.310   4.174  2.0828 -0.3667  1.0494
   43DOPE   H6S 5465   3.024   2.461   4.093  0.1771  0.0483  0.9290
   43DOPE   C27 5466   3.166   2.313   4.122 -0.2821  0.5411 -0.1586
   43DOPE   H7R 5467   3.239   2.354   4.050  0.7893  0.8715  1.0872
   43DOPE   H7S 5468   3.166   2.202   4.124  0.2633  0.5499  1.3594
   43DOPE   C28 5469   3.219   2.365   4.260  0.0483 -0.2171  0.2240
   43DOPE   H8R 5470   3.173   2.307   4.343  0.7400  0.4179  1.0704
   43DOPE   H8S 5471   3.190   2.471   4.271 -2.5070 -0.9429  1.4000
   43DOPE   C29 5472   3.370   2.337   4.269  0.2696 -0.6560 -0.2645
   43DOPE   H9R 5473   3.394   2.233   4.294  0.2524 -0.4368  0.7040
   43DOPE  C210 5474   3.471   2.429   4.273 -0.6085 -0.5969  0.5422
   43DOPE  H10R 5475   3.575   2.394   4.282 -0.7609 -0.8316  1.5380
   43DOPE  C211 5476   3.464   2.572   4.255 -0.7806 -0.3020  0.4137
   43DOPE  H11R 5477   3.362   2.605   4.226 -2.2266 -4.1168  0.5636
   43DOPE  H11S 5478   3.534   2.595   4.171 -0.2994 -1.9044  0.3334
   43DOPE  C212 5479   3.506   2.654   4.377 -0.5126 -0.5141  0.0240
   43DOPE  H12R 5480   3.599   2.613   4.422  0.7915  0.5637 -1.5719
   43DOPE  H12S 5481   3.427   2.624   4.450 -0.2845 -1.6900 -0.1917
   43DOPE  C213 5482   3.530   2.803   4.357 -0.2672 -0.8818 -0.8084
   43DOPE  H13R 5483   3.622   2.816   4.296  0.9355 -0.5746  0.9841
   43DOPE  H13S 5484   3.566   2.831   4.459  1.3361 -0.9934 -1.3147
   43DOPE  C214 5485   3.415   2.886   4.299 -0.8722  0.9663  0.4087
   43DOPE  H14R 5486   3.317   2.878   4.350 -1.1684  0.5225 -0.2256
   43DOPE  H14S 5487   3.410   2.832   4.202  0.1418 -0.6910  1.2423
   43DOPE  C215 5488   3.443   3.042   4.284 -0.0196 -0.3429  0.1644
   43DOPE  H15R 5489   3.452   3.088   4.385  1.2175 -0.8480  0.3066
   43DOPE  H15S 5490   3.359   3.080   4.222 -1.0504 -1.6357  0.7058
   43DOPE  C216 5491   3.576   3.068   4.206  0.5513  0.2673 -0.0092
   43DOPE  H16R 5492   3.544   3.141   4.129 -0.7493  1.4932  1.6487
   43DOPE  H16S 5493   3.610   2.984   4.141  0.4384  0.4258 -0.2696
   43DOPE  C217 5494   3.692   3.123   4.286 -0.3610 -0.2972 -0.1617
   43DOPE  H17R 5495   3.720   3.072   4.381  1.4708 -0.5094 -0.7954
   43DOPE  H17S 5496   3.677   3.230   4.313  0.6125 -0.2626  0.2627
   43DOPE  C218 5497   3.819   3.123   4.199 -0.6663  0.2500  0.0653
   43DOPE  H18R 5498   3.793   3.177   4.106  0.5800 -0.9826 -1.0400
   43DOPE  H18S 5499   3.860   3.023   4.175  2.0662  0.7916  2.0077
   43DOPE  H18T 5500   3.902   3.185   4.239  0.5043  1.5575 -3.9946
   43DOPE   C33 5501   2.525   1.346   3.793  0.1104  0.0044 -0.2632
   43DOPE   H3X 5502   2.572   1.247   3.772  1.1042 -0.2103  2.5162
   43DOPE   H3Y 5503   2.435   1.322   3.853  1.2204 -0.8471  1.1455
   43DOPE   C34 5504   2.614   1.444   3.872 -0.0431 -0.9422 -0.0864
   43DOPE   H4X 5505   2.709   1.456   3.817 -0.0235 -2.0607 -0.3087
   43DOPE   H4Y 5506   2.559   1.541   3.876  0.8675 -0.3963 -0.5610
   43DOPE   C35 5507   2.655   1.415   4.017 -0.5428 -0.6538 -0.0120
   43DOPE   H5X 5508   2.735   1.485   4.052 -2.3874  0.6939  1.7263
   43DOPE   H5Y 5509   2.704   1.315   4.020  0.7408 -0.0365  0.7959
   43DOPE   C36 5510   2.550   1.428   4.132 -0.1170  0.1168 -0.3576
   43DOPE   H6X 5511   2.460   1.370   4.098 -0.6023  0.1377  0.8607
   43DOPE   H6Y 5512   2.524   1.536   4.134  0.6403  0.3061 -0.4807
   43DOPE   C37 5513   2.576   1.381   4.283  0.4956 -0.3705 -0.0722
   43DOPE   H7X 5514   2.598   1.272   4.279  1.4006 -0.1720 -0.6067
   43DOPE   H7Y 5515   2.662   1.440   4.321 -0.7261  2.3733 -1.3180
   43DOPE   C38 5516   2.469   1.421   4.386  0.5673  1.0406  0.2125
   43DOPE   H8X 5517   2.441   1.525   4.358 -0.2897  0.8491  0.3169
   43DOPE   H8Y 5518   2.526   1.422   4.481  1.7638 -1.7733 -0.3757
   43DOPE   C39 5519   2.346   1.334   4.393  0.2241 -0.5502  0.5692
   43DOPE   H9X 5520   2.264   1.376   4.332  0.0301 -0.4910  0.8669
   43DOPE  C310 5521   2.328   1.213   4.450  0.1313  1.2548 -0.8396
   43DOPE  H10X 5522   2.223   1.187   4.466  0.3427  1.1337  0.4806
   43DOPE  C311 5523   2.433   1.122   4.517  0.1609 -0.3618  0.3101
   43DOPE  H11X 5524   2.480   1.063   4.435  1.9670  2.1093 -0.5441
   43DOPE  H11Y 5525   2.523   1.177   4.551  1.4546 -1.8288 -0.6156
   43DOPE  C312 5526   2.369   1.034   4.621 -0.5983 -0.0058 -0.0921
   43DOPE  H12X 5527   2.439   0.958   4.662  0.5980  1.6006  0.9717
   43DOPE  H12Y 5528   2.285   0.976   4.577 -0.1998 -0.4535 -0.2771
   43DOPE  C313 5529   2.330   1.109   4.748 -0.9867  0.3129  0.1171
   43DOPE  H13X 5530   2.405   1.180   4.789 -0.5539 -0.4644  0.6938
   43DOPE  H13Y 5531   2.242   1.169   4.716 -1.3975 -0.7190 -0.7421
   43DOPE  C314 5532   2.288   1.022   4.860  0.6766 -0.1696  0.2199
   43DOPE  H14X 5533   2.368   0.953   4.895 -0.8368 -2.0746  0.1096
   43DOPE  H14Y 5534   2.220   0.942   4.823  1.7409 -0.8665 -0.2991
   43DOPE  C315 5535   2.210   1.087   4.973 -0.5191 -0.6587 -0.1141
   43DOPE  H15X 5536   2.134   1.148   4.919 -1.0205 -1.7848 -0.7255
   43DOPE  H15Y 5537   2.277   1.158   5.026  1.8787 -1.0068 -2.4635
   43DOPE  C316 5538   2.134   1.004   5.080  0.5305 -0.3908 -0.1168
   43DOPE  H16X 5539   2.204   0.958   5.153 -1.8072  0.2449  2.6968
   43DOPE  H16Y 5540   2.083   0.916   5.035  0.3021 -0.4952  0.3452
   43DOPE  C317 5541   2.023   1.084   5.141 -0.1612  0.1441  0.4116
   43DOPE  H17X 5542   2.071   1.173   5.188 -0.3669 -0.5501  2.0169
   43DOPE  H17Y 5543   1.941   1.106   5.070  1.9993  0.5959 -2.0811
   43DOPE  C318 5544   1.970   1.011   5.266  0.5960 -0.5791  0.0482
   43DOPE  H18X 5545   2.049   1.021   5.344 -0.5182  0.7930  1.0593
   43DOPE  H18Y 5546   1.884   1.073   5.299  1.9855  2.0891 -1.0578
   43DOPE  H18Z 5547   1.944   0.904   5.251 -0.2301 -0.1981 -1.3622
   44DOPE     N 5548   4.842   1.587   2.607  0.7809 -0.3275 -0.5444
   44DOPE   HN1 5549   4.943   1.595   2.585  0.9696  0.4249  0.5201
   44DOPE   HN2 5550   4.834   1.497   2.658 -0.0040 -0.1110 -0.2787
   44DOPE   HN3 5551   4.788   1.579   2.519 -1.3503  1.6663  0.4832
   44DOPE   C12 5552   4.783   1.691   2.696 -0.2324 -0.3293 -0.5710
   44DOPE  H12A 5553   4.677   1.701   2.665  0.0439 -1.1334 -1.8828
   44DOPE  H12B 5554   4.827   1.791   2.674  0.5771 -0.9124 -1.7628
   44DOPE   C11 5555   4.799   1.646   2.839  0.8008 -0.3578 -0.5920
   44DOPE  H11A 5556   4.749   1.727   2.896 -0.5982 -0.1205 -2.1174
   44DOPE  H11B 5557   4.904   1.644   2.875  0.1637 -0.6196  1.3894
   44DOPE     P 5558   4.603   1.491   2.942  0.3681 -0.1441 -0.1090
   44DOPE   O13 5559   4.596   1.347   2.984  0.2248 -0.4448 -0.1235
   44DOPE   O14 5560   4.495   1.537   2.848 -0.9412  0.2556 -0.2184
   44DOPE   O11 5561   4.610   1.583   3.069  0.5006  0.0091  0.5192
   44DOPE   O12 5562   4.738   1.520   2.862 -0.2996 -0.2501  0.2719
   44DOPE    C1 5563   4.708   1.589   3.169 -0.3142 -0.0615  0.4101
   44DOPE    HA 5564   4.721   1.695   3.201 -1.4608 -0.0361  0.8578
   44DOPE    HB 5565   4.805   1.552   3.132 -0.7678  1.0184 -2.0271
   44DOPE    C2 5566   4.670   1.516   3.301 -0.3366 -0.2688  0.1991
   44DOPE    HS 5567   4.624   1.416   3.284  0.4588 -0.3329 -1.8674
   44DOPE   O21 5568   4.590   1.605   3.383  0.0343 -0.3365 -0.2451
   44DOPE   C21 5569   4.467   1.602   3.358 -0.6695  0.2157 -0.4227
   44DOPE   O22 5570   4.405   1.519   3.293  0.4723 -0.1796  0.1899
   44DOPE   C22 5571   4.404   1.716   3.438  0.5340 -0.0472 -0.4081
   44DOPE   H2R 5572   4.311   1.745   3.384  0.7924 -0.1913 -0.9377
   44DOPE   H2S 5573   4.475   1.802   3.436 -0.2866  0.6233 -1.7722
   44DOPE    C3 5574   4.806   1.477   3.376 -0.1840  0.7025  0.0834
   44DOPE    HX 5575   4.886   1.549   3.347 -0.6340  1.2611  0.1976
   44DOPE    HY 5576   4.843   1.380   3.336  0.0140  0.9643 -0.3690
   44DOPE   O31 5577   4.797   1.468   3.516  0.0114  0.0978 -0.2410
   44DOPE   C31 5578   4.733   1.371   3.571  0.1366  0.6924 -0.1523
   44DOPE   O32 5579   4.678   1.279   3.512  0.3008  0.1590  0.4197
   44DOPE   C32 5580   4.734   1.370   3.724  0.4619  0.1413  0.1022
   44DOPE   H2X 5581   4.805   1.444   3.767  1.2687 -0.5818  0.0201
   44DOPE   H2Y 5582   4.631   1.381   3.765  0.4682 -1.9690  0.7678
   44DOPE   C23 5583   4.358   1.678   3.585  0.0420 -0.0408  0.2528
   44DOPE   H3R 5584   4.278   1.600   3.583 -1.4098  1.2153  3.4740
   44DOPE   H3S 5585   4.311   1.771   3.623 -0.9653 -0.8592  1.0672
   44DOPE   C24 5586   4.469   1.643   3.675  0.1801 -1.0677 -0.1420
   44DOPE   H4R 5587   4.556   1.703   3.641 -1.0456 -0.5170 -2.5494
   44DOPE   H4S 5588   4.486   1.534   3.666 -1.1820 -1.3340  0.2749
   44DOPE   C25 5589   4.442   1.681   3.818 -0.4073  0.0130  0.7849
   44DOPE   H5R 5590   4.362   1.619   3.864  1.0269 -1.4463  1.3966
   44DOPE   H5S 5591   4.413   1.788   3.829  1.4187  0.6730 -0.4041
   44DOPE   C26 5592   4.569   1.684   3.907  0.2780 -0.4369 -0.4917
   44DOPE   H6R 5593   4.643   1.760   3.874  0.4448 -0.0188  0.7766
   44DOPE   H6S 5594   4.623   1.587   3.900  3.0706  0.9254  0.3772
   44DOPE   C27 5595   4.548   1.706   4.060  0.0486 -0.6593 -0.3590
   44DOPE   H7R 5596   4.469   1.634   4.090 -3.1049  1.1724 -3.5439
   44DOPE   H7S 5597   4.488   1.795   4.088 -0.2572 -1.5807  2.1935
   44DOPE   C28 5598   4.671   1.693   4.156  0.1572 -0.2261  0.3076
   44DOPE   H8R 5599   4.717   1.592   4.165  1.3949  0.3017  0.1082
   44DOPE   H8S 5600   4.638   1.711   4.260  1.0235 -2.6860  1.0835
   44DOPE   C29 5601   4.774   1.799   4.124  0.7629 -0.5883  0.1851
   44DOPE   H9R 5602   4.729   1.894   4.158 -2.0280 -1.9226  0.5064
   44DOPE  C210 5603   4.906   1.795   4.096 -0.7943  0.7510  0.6162
   44DOPE  H10R 5604   4.960   1.890   4.091 -1.4045  1.0760 -3.0860
   44DOPE  C211 5605   4.980   1.670   4.045  0.7207 -0.7113  1.0115
   44DOPE  H11R 5606   4.923   1.575   4.057  1.3442 -1.1279  0.7179
   44DOPE  H11S 5607   5.060   1.646   4.118 -0.9815 -2.7289  2.3473
   44DOPE  C212 5608   5.018   1.676   3.898  0.4308  0.0053 -0.3617
   44DOPE  H12R 5609   5.073   1.770   3.877  3.2473 -0.7646  2.7297
   44DOPE  H12S 5610   4.928   1.668   3.833 -1.4831 -1.3965  2.2536
   44DOPE  C213 5611   5.111   1.559   3.859 -0.3300  0.3861 -0.0078
   44DOPE  H13R 5612   5.058   1.462   3.867  2.5257 -1.3751 -0.7674
   44DOPE  H13S 5613   5.198   1.564   3.929 -0.8574 -0.0980  0.6932
   44DOPE  C214 5614   5.148   1.579   3.715  0.4000  0.4798 -0.0324
   44DOPE  H14R 5615   5.188   1.682   3.700  0.2886  0.5813  0.3535
   44DOPE  H14S 5616   5.055   1.568   3.654  0.3419  1.0481 -0.0499
   44DOPE  C215 5617   5.260   1.491   3.655 -0.3602  0.4101  0.5962
   44DOPE  H15R 5618   5.356   1.522   3.703  0.2250 -2.1346  1.2512
   44DOPE  H15S 5619   5.267   1.510   3.546 -2.4005  0.2787  0.4137
   44DOPE  C216 5620   5.245   1.338   3.688  0.3440  0.0296  0.0692
   44DOPE  H16R 5621   5.254   1.334   3.799  4.7259  0.9993 -0.0794
   44DOPE  H16S 5622   5.339   1.292   3.651  0.9940  1.4894 -0.1679
   44DOPE  C217 5623   5.130   1.263   3.628  0.6830  0.1153  1.0778
   44DOPE  H17R 5624   5.039   1.313   3.667  0.3577  0.7499 -0.4089
   44DOPE  H17S 5625   5.128   1.160   3.668  0.9515 -0.4421 -0.2879
   44DOPE  C218 5626   5.128   1.256   3.471  0.0748  0.2218 -0.2234
   44DOPE  H18R 5627   5.221   1.203   3.444 -1.4919 -2.4206 -0.8137
   44DOPE  H18S 5628   5.125   1.361   3.434  0.6433  1.5724  3.2446
   44DOPE  H18T 5629   5.046   1.193   3.429 -1.4047  0.3951  2.1945
   44DOPE   C33 5630   4.774   1.236   3.779 -0.4145  0.3015  0.0115
   44DOPE   H3X 5631   4.867   1.196   3.733 -2.7211 -1.8948 -3.1691
   44DOPE   H3Y 5632   4.693   1.164   3.752  1.6012 -0.8946 -3.4674
   44DOPE   C34 5633   4.785   1.232   3.934 -0.6983 -0.1846 -0.2285
   44DOPE   H4X 5634   4.872   1.292   3.971  0.2457 -0.8785 -1.2452
   44DOPE   H4Y 5635   4.690   1.280   3.964 -0.5360  0.9821 -1.4654
   44DOPE   C35 5636   4.788   1.083   3.994  0.6353 -0.1890 -0.4029
   44DOPE   H5X 5637   4.853   1.018   3.932 -0.3739  0.2165 -1.9318
   44DOPE   H5Y 5638   4.681   1.053   3.987  0.0266  1.2192  1.8729
   44DOPE   C36 5639   4.830   1.071   4.139 -0.1653  0.2948  0.1821
   44DOPE   H6X 5640   4.784   1.148   4.205  2.0864  0.5569  1.5757
   44DOPE   H6Y 5641   4.941   1.069   4.149 -0.1847  2.8508  2.0716
   44DOPE   C37 5642   4.791   0.934   4.191  0.0848 -0.5233  0.0134
   44DOPE   H7X 5643   4.686   0.918   4.160  0.7547 -2.3913 -1.4930
   44DOPE   H7Y 5644   4.863   0.866   4.141  2.0041  0.1736  1.6837
   44DOPE   C38 5645   4.811   0.934   4.341 -0.4686  0.2441  0.8263
   44DOPE   H8X 5646   4.733   0.997   4.390  0.0454  1.9413 -0.4573
   44DOPE   H8Y 5647   4.909   0.980   4.366 -0.8835  0.6464  1.7486
   44DOPE   C39 5648   4.803   0.791   4.387 -0.2327  1.2717 -0.1382
   44DOPE   H9X 5649   4.830   0.712   4.315 -1.9415  0.4796  0.0361
   44DOPE  C310 5650   4.778   0.752   4.512  0.2846 -0.6822 -0.4525
   44DOPE  H10X 5651   4.793   0.646   4.538  1.1017 -0.6647 -0.8029
   44DOPE  C311 5652   4.749   0.851   4.627  0.5096  0.4037  0.1635
   44DOPE  H11X 5653   4.684   0.937   4.604 -2.0806 -1.6249 -0.6184
   44DOPE  H11Y 5654   4.689   0.801   4.706  0.9440 -2.1455 -0.9932
   44DOPE  C312 5655   4.863   0.909   4.712 -0.2098 -0.1332  0.5438
   44DOPE  H12X 5656   4.950   0.941   4.650  0.9240 -2.6539  0.7206
   44DOPE  H12Y 5657   4.905   0.823   4.769  0.4650  0.8213  1.5084
   44DOPE  C313 5658   4.829   1.025   4.804  0.5638  0.1200  0.2468
   44DOPE  H13X 5659   4.805   1.112   4.739 -3.1839 -0.7386  0.2949
   44DOPE  H13Y 5660   4.741   0.998   4.865  0.1840 -1.2032 -0.8388
   44DOPE  C314 5661   4.935   1.038   4.905 -0.0142  0.1884  0.0302
   44DOPE  H14X 5662   5.035   1.050   4.859 -0.2224 -0.0906 -0.5037
   44DOPE  H14Y 5663   4.954   0.949   4.969 -0.3608 -0.1483 -0.3314
   44DOPE  C315 5664   4.925   1.159   4.996 -0.8963 -0.5866  0.0412
   44DOPE  H15X 5665   4.837   1.151   5.064 -0.7692  3.2482  0.8495
   44DOPE  H15Y 5666   4.892   1.242   4.931  0.7318  0.4576  0.4942
   44DOPE  C316 5667   5.056   1.190   5.079 -0.3767 -0.2271  0.1834
   44DOPE  H16X 5668   5.050   1.291   5.125 -2.4205  0.2451 -1.0172
   44DOPE  H16Y 5669   5.148   1.178   5.018  1.0455 -1.0904  2.3835
   44DOPE  C317 5670   5.080   1.072   5.183 -0.0873 -0.4600 -0.3611
   44DOPE  H17X 5671   5.000   1.068   5.260  0.1760 -0.7159 -0.0985
   44DOPE  H17Y 5672   5.082   0.973   5.132 -0.5861 -0.2893 -0.7172
   44DOPE  C318 5673   5.208   1.085   5.261 -0.3591  0.2416 -0.1213
   44DOPE  H18X 5674   5.226   0.995   5.323  2.0080 -0.3702 -1.5701
   44DOPE  H18Y 5675   5.284   1.077   5.181 -2.4971 -1.9624 -2.0824
   44DOPE  H18Z 5676   5.219   1.181   5.316 -3.4457  0.0246  1.0863
   45DOPE     N 5677   5.049   1.241   2.518  0.3507  0.1119 -0.4679
   45DOPE   HN1 5678   4.981   1.280   2.586 -0.3866 -1.8235 -0.0510
   45DOPE   HN2 5679   5.144   1.270   2.549  1.2411 -1.6736 -1.4109
   45DOPE   HN3 5680   5.033   1.289   2.427 -1.6992 -0.4857 -0.4609
   45DOPE   C12 5681   5.037   1.092   2.502  0.0473  0.1405 -0.3083
   45DOPE  H12A 5682   5.064   1.056   2.401 -0.0848  0.3393 -0.4163
   45DOPE  H12B 5683   4.929   1.069   2.502  0.5134 -2.2741  0.2921
   45DOPE   C11 5684   5.112   1.025   2.619  0.0039  0.8605 -0.7889
   45DOPE  H11A 5685   5.219   1.048   2.600  0.1361  0.4013 -0.6076
   45DOPE  H11B 5686   5.113   0.914   2.619 -1.2746  0.8172  0.7233
   45DOPE     P 5687   4.961   0.997   2.827  0.2740 -0.3338  0.1534
   45DOPE   O13 5688   4.891   0.904   2.738  0.1165  0.2642  0.2488
   45DOPE   O14 5689   4.877   1.099   2.891 -0.2399  0.8952 -0.0246
   45DOPE   O11 5690   5.032   0.911   2.935 -0.0964 -0.2690 -0.2885
   45DOPE   O12 5691   5.069   1.074   2.749 -0.3360  0.0524  0.0052
   45DOPE    C1 5692   5.172   0.884   2.937 -0.7920 -0.2695  0.0749
   45DOPE    HA 5693   5.229   0.979   2.946 -0.2621 -0.5957  0.2130
   45DOPE    HB 5694   5.219   0.849   2.842  0.9484  4.0621 -0.8701
   45DOPE    C2 5695   5.216   0.792   3.053  0.1834 -0.9783  0.3941
   45DOPE    HS 5696   5.162   0.698   3.030 -0.8263 -0.1848 -0.5933
   45DOPE   O21 5697   5.178   0.853   3.178  0.0405 -0.2302 -0.5545
   45DOPE   C21 5698   5.141   0.763   3.272 -0.5642 -0.3301 -0.1108
   45DOPE   O22 5699   5.126   0.644   3.254 -0.2375 -0.2830 -0.0322
   45DOPE   C22 5700   5.121   0.839   3.407 -0.1427  0.1592  0.0015
   45DOPE   H2R 5701   5.034   0.907   3.396  0.1105  0.5202  0.2024
   45DOPE   H2S 5702   5.219   0.885   3.431 -0.3615  1.6175 -1.6433
   45DOPE    C3 5703   5.376   0.765   3.045  0.0127 -0.4655 -0.7830
   45DOPE    HX 5704   5.423   0.859   3.010  1.4176 -0.8280  0.0500
   45DOPE    HY 5705   5.397   0.692   2.963 -0.8108 -0.8829 -0.6352
   45DOPE   O31 5706   5.434   0.727   3.173 -0.3039  0.8049 -0.4411
   45DOPE   C31 5707   5.433   0.600   3.202 -0.5432 -0.1113  0.7893
   45DOPE   O32 5708   5.404   0.510   3.125  0.1162  0.3916  0.3312
   45DOPE   C32 5709   5.476   0.577   3.350 -0.2155  0.1002 -0.2599
   45DOPE   H2X 5710   5.565   0.636   3.380 -0.2160 -0.0197 -0.0215
   45DOPE   H2Y 5711   5.396   0.627   3.408 -0.1113  2.4139 -1.9482
   45DOPE   C23 5712   5.091   0.740   3.524 -0.1767  0.3274 -0.5440
   45DOPE   H3R 5713   5.161   0.655   3.539  0.2690  0.9741  1.3513
   45DOPE   H3S 5714   4.991   0.692   3.510  0.2405 -0.5756 -0.5303
   45DOPE   C24 5715   5.075   0.814   3.654 -0.6941 -1.0852  0.2166
   45DOPE   H4R 5716   5.066   0.735   3.733 -1.3401 -0.1519  1.0940
   45DOPE   H4S 5717   4.989   0.883   3.656  0.2697  0.2381 -1.2079
   45DOPE   C25 5718   5.211   0.888   3.700 -0.0020  0.0905 -0.2227
   45DOPE   H5R 5719   5.239   0.974   3.636 -0.4649  0.3623 -0.0585
   45DOPE   H5S 5720   5.291   0.811   3.695 -2.2354 -2.4235  0.3625
   45DOPE   C26 5721   5.197   0.928   3.847 -0.0692 -0.4542 -0.0808
   45DOPE   H6R 5722   5.186   0.839   3.913  0.3797  0.8197  1.8098
   45DOPE   H6S 5723   5.101   0.983   3.851  1.0966  1.6853  2.9874
   45DOPE   C27 5724   5.316   1.020   3.897  0.0281  0.0179  0.0244
   45DOPE   H7R 5725   5.323   1.100   3.820  4.9468 -0.7188 -0.6489
   45DOPE   H7S 5726   5.411   0.962   3.885 -0.0259  0.1423 -1.1372
   45DOPE   C28 5727   5.292   1.053   4.044  0.3973 -0.5021 -0.1112
   45DOPE   H8R 5728   5.268   0.962   4.103 -0.7418 -0.8146 -1.0211
   45DOPE   H8S 5729   5.194   1.105   4.039 -0.2183 -1.7434 -1.8315
   45DOPE   C29 5730   5.406   1.129   4.099 -0.0185  0.1708 -0.4828
   45DOPE   H9R 5731   5.500   1.073   4.106  0.1762  0.7040  1.8440
   45DOPE  C210 5732   5.401   1.255   4.153  0.9135 -0.4241 -0.2271
   45DOPE  H10R 5733   5.493   1.296   4.197  1.5575 -1.4229 -0.5916
   45DOPE  C211 5734   5.278   1.342   4.164  0.0604 -0.5145 -0.2166
   45DOPE  H11R 5735   5.196   1.316   4.094  0.7810 -1.9500 -0.5669
   45DOPE  H11S 5736   5.312   1.446   4.152  0.9821 -0.4711  2.1986
   45DOPE  C212 5737   5.213   1.341   4.302 -0.6500 -0.7150  0.0065
   45DOPE  H12R 5738   5.142   1.425   4.314  1.3733  1.2348 -0.8435
   45DOPE  H12S 5739   5.289   1.358   4.382  0.1907  0.8324 -1.0468
   45DOPE  C213 5740   5.130   1.215   4.345 -1.1464  0.7663 -0.9257
   45DOPE  H13R 5741   5.202   1.130   4.342  0.3005  1.9182  0.0205
   45DOPE  H13S 5742   5.052   1.197   4.267 -0.4870 -3.0052 -0.8907
   45DOPE  C214 5743   5.058   1.217   4.482  0.6758  0.0015 -0.2765
   45DOPE  H14R 5744   5.133   1.210   4.564  0.3539 -0.1118  0.0129
   45DOPE  H14S 5745   4.993   1.127   4.490 -1.1049  1.2439 -0.0934
   45DOPE  C215 5746   4.967   1.331   4.512  0.3226  0.6574 -0.3640
   45DOPE  H15R 5747   5.033   1.419   4.530  1.6518 -0.2975 -0.4261
   45DOPE  H15S 5748   4.911   1.312   4.606  0.2781  0.1382 -0.4954
   45DOPE  C216 5749   4.861   1.356   4.404 -0.5349  0.9766 -0.1702
   45DOPE  H16R 5750   4.797   1.266   4.393 -1.2644  1.3302  0.9784
   45DOPE  H16S 5751   4.904   1.376   4.303 -1.9626  2.1386 -0.5788
   45DOPE  C217 5752   4.761   1.469   4.444 -0.4553 -0.9556  0.1371
   45DOPE  H17R 5753   4.713   1.436   4.538 -1.1983 -1.5922 -0.4467
   45DOPE  H17S 5754   4.690   1.473   4.358 -1.4460  1.7620  0.9796
   45DOPE  C218 5755   4.829   1.606   4.467 -0.2523 -0.1324 -0.5166
   45DOPE  H18R 5756   4.755   1.688   4.485 -1.6462 -1.0442 -1.7782
   45DOPE  H18S 5757   4.870   1.622   4.365  1.6317 -2.0697 -0.1137
   45DOPE  H18T 5758   4.908   1.593   4.544 -0.0714 -1.5874 -0.9254
   45DOPE   C33 5759   5.486   0.429   3.392 -0.4456 -0.3462  0.9049
   45DOPE   H3X 5760   5.587   0.397   3.361 -0.6572 -0.2389  0.0658
   45DOPE   H3Y 5761   5.418   0.371   3.326 -0.0409 -0.1962  0.3452
   45DOPE   C34 5762   5.453   0.417   3.535 -0.5434  0.2716  0.3370
   45DOPE   H4X 5763   5.344   0.414   3.559  0.2635 -1.7084  4.7987
   45DOPE   H4Y 5764   5.485   0.315   3.566 -0.8990 -0.6097 -1.9901
   45DOPE   C35 5765   5.520   0.528   3.623 -0.2592  0.0332 -0.1012
   45DOPE   H5X 5766   5.481   0.629   3.596 -0.0441 -0.0207 -0.6242
   45DOPE   H5Y 5767   5.629   0.518   3.603 -0.0739 -2.1915  1.7257
   45DOPE   C36 5768   5.493   0.514   3.771  0.1889 -0.4935 -0.1868
   45DOPE   H6X 5769   5.514   0.411   3.804  0.7624 -0.9878 -1.9609
   45DOPE   H6Y 5770   5.385   0.525   3.794 -0.4932  0.7449 -3.3437
   45DOPE   C37 5771   5.574   0.621   3.840 -0.2382  0.2329  0.2274
   45DOPE   H7X 5772   5.681   0.594   3.826 -0.7889 -2.1779  0.3227
   45DOPE   H7Y 5773   5.563   0.717   3.785 -0.5515  0.1882  0.2108
   45DOPE   C38 5774   5.535   0.635   3.986 -0.6544  0.3567  0.9653
   45DOPE   H8X 5775   5.433   0.678   3.984 -0.3461  1.1272  1.2512
   45DOPE   H8Y 5776   5.593   0.721   4.028 -2.3248  1.7179  0.5842
   45DOPE   C39 5777   5.549   0.508   4.064  0.2800  0.4361 -0.0589
   45DOPE   H9X 5778   5.473   0.429   4.050  1.6861 -1.0538  0.4015
   45DOPE  C310 5779   5.630   0.483   4.168  1.2987  0.6579 -0.2111
   45DOPE  H10X 5780   5.606   0.385   4.211  0.8793  0.9666  0.2741
   45DOPE  C311 5781   5.728   0.566   4.247 -0.2301  0.1200 -0.2761
   45DOPE  H11X 5782   5.821   0.509   4.270  1.9988  2.6294 -2.4085
   45DOPE  H11Y 5783   5.755   0.655   4.187 -1.2139  0.2581 -0.5184
   45DOPE  C312 5784   5.669   0.622   4.381  0.6998 -0.0739 -1.3602
   45DOPE  H12X 5785   5.578   0.682   4.364 -0.0423 -0.2807  1.3844
   45DOPE  H12Y 5786   5.744   0.684   4.434 -0.0589  0.1948 -0.5825
   45DOPE  C313 5787   5.621   0.509   4.480  0.0483  0.3988  0.1242
   45DOPE  H13X 5788   5.517   0.482   4.451 -0.3715  1.0210  0.9943
   45DOPE  H13Y 5789   5.687   0.421   4.483 -0.1500  0.1565 -1.4372
   45DOPE  C314 5790   5.594   0.573   4.616 -0.0326 -0.6008  0.0284
   45DOPE  H14X 5791   5.542   0.671   4.606 -0.0493 -0.1508  3.5638
   45DOPE  H14Y 5792   5.692   0.595   4.664 -0.2291  1.5465 -0.4440
   45DOPE  C315 5793   5.504   0.487   4.700  0.2759 -0.0266  0.4365
   45DOPE  H15X 5794   5.415   0.468   4.636  0.1991 -2.9079  1.2168
   45DOPE  H15Y 5795   5.485   0.539   4.796  0.5042  1.7722 -0.4681
   45DOPE  C316 5796   5.555   0.343   4.730  0.0962  0.2502  0.3808
   45DOPE  H16X 5797   5.599   0.290   4.643  0.7424  0.5855  0.5031
   45DOPE  H16Y 5798   5.463   0.294   4.768 -0.0047  0.6038  0.5926
   45DOPE  C317 5799   5.655   0.330   4.848 -0.0620 -1.2255 -0.3280
   45DOPE  H17X 5800   5.639   0.407   4.926  1.2748 -1.7402  0.5033
   45DOPE  H17Y 5801   5.648   0.231   4.899 -1.4589 -0.4037  1.1459
   45DOPE  C318 5802   5.805   0.350   4.812  0.2910  0.3112  0.2340
   45DOPE  H18X 5803   5.825   0.274   4.733  0.0443  1.5891 -1.0997
   45DOPE  H18Y 5804   5.827   0.448   4.764 -0.4598  0.4274  0.1130
   45DOPE  H18Z 5805   5.877   0.336   4.895  1.8270  0.4095 -1.0244
   46DOPE     N 5806   4.333   5.430   2.834 -0.2690 -0.6257  0.2260
   46DOPE   HN1 5807   4.350   5.330   2.813  0.9322 -0.4509  0.2795
   46DOPE   HN2 5808   4.382   5.451   2.923 -1.4444  0.3830  0.6717
   46DOPE   HN3 5809   4.236   5.454   2.863 -0.6418 -2.5654  0.7075
   46DOPE   C12 5810   4.399   5.509   2.719 -0.4410  0.0550 -0.1233
   46DOPE  H12A 5811   4.346   5.467   2.631  0.7547 -1.6727 -0.0716
   46DOPE  H12B 5812   4.503   5.471   2.712  0.1954  1.9645 -1.9477
   46DOPE   C11 5813   4.393   5.661   2.745  0.1006  0.7253  0.0788
   46DOPE  H11A 5814   4.295   5.686   2.790  0.2964 -1.8931  2.2257
   46DOPE  H11B 5815   4.400   5.720   2.652  1.5357 -2.1059 -1.7787
   46DOPE     P 5816   4.639   5.723   2.812 -0.1252 -0.0699 -0.3646
   46DOPE   O13 5817   4.659   5.853   2.746  0.1123 -0.7321 -0.2492
   46DOPE   O14 5818   4.708   5.611   2.738 -0.3035 -0.5589  0.6777
   46DOPE   O11 5819   4.699   5.727   2.960 -0.2589  0.2377  0.0872
   46DOPE   O12 5820   4.491   5.699   2.843  0.0806 -0.2297 -0.2015
   46DOPE    C1 5821   4.607   5.737   3.069 -0.1060 -0.0427  0.3875
   46DOPE    HA 5822   4.571   5.632   3.081  0.7400 -0.3951 -0.0346
   46DOPE    HB 5823   4.523   5.807   3.049 -1.6328 -1.7697  0.4680
   46DOPE    C2 5824   4.675   5.779   3.201 -0.1078 -0.6734 -0.9327
   46DOPE    HS 5825   4.588   5.775   3.269 -0.6412 -0.8421 -1.6139
   46DOPE   O21 5826   4.733   5.913   3.208  0.0289 -0.1617 -0.1120
   46DOPE   C21 5827   4.653   6.017   3.200 -0.6478 -0.4930  0.2062
   46DOPE   O22 5828   4.529   6.018   3.191 -0.1310  0.2777 -0.4996
   46DOPE   C22 5829   4.733   6.149   3.200  0.0883  0.5230  0.3888
   46DOPE   H2R 5830   4.713   6.208   3.108  0.5784 -0.7693 -0.5815
   46DOPE   H2S 5831   4.842   6.126   3.205  0.7267  3.0175 -0.5533
   46DOPE    C3 5832   4.786   5.679   3.244 -0.1311 -0.0423  0.7416
   46DOPE    HX 5833   4.859   5.700   3.162 -3.1316  4.0877 -1.2249
   46DOPE    HY 5834   4.764   5.570   3.246  0.7464 -0.2697 -0.6339
   46DOPE   O31 5835   4.834   5.709   3.375  0.2423  0.0033  0.2522
   46DOPE   C31 5836   4.957   5.671   3.409 -0.0002  0.9948  0.4914
   46DOPE   O32 5837   5.031   5.606   3.337 -0.1339 -0.5831  0.0199
   46DOPE   C32 5838   4.995   5.724   3.546  0.6860 -0.6980 -0.2389
   46DOPE   H2X 5839   4.903   5.771   3.587  1.3204  0.7531 -0.4035
   46DOPE   H2Y 5840   5.007   5.629   3.603 -0.0356 -0.8341 -0.3074
   46DOPE   C23 5841   4.696   6.239   3.316 -0.5866 -0.3001  0.0388
   46DOPE   H3R 5842   4.596   6.285   3.307 -0.1615  0.6137 -0.1663
   46DOPE   H3S 5843   4.766   6.326   3.308 -0.3160 -0.6437 -1.7182
   46DOPE   C24 5844   4.718   6.163   3.447  0.3081 -0.0794 -0.1667
   46DOPE   H4R 5845   4.753   6.248   3.509  0.9206  0.1767 -0.8504
   46DOPE   H4S 5846   4.796   6.084   3.434  1.0617  0.6308 -0.0441
   46DOPE   C25 5847   4.600   6.094   3.507  0.3024  0.2702  0.3624
   46DOPE   H5R 5848   4.580   6.000   3.452  0.2086  1.0944 -1.0625
   46DOPE   H5S 5849   4.508   6.155   3.492 -0.3510 -0.5663  0.9208
   46DOPE   C26 5850   4.635   6.063   3.655 -0.1755  0.6789 -0.0814
   46DOPE   H6R 5851   4.540   6.035   3.707  1.2238 -2.6826  0.9441
   46DOPE   H6S 5852   4.667   6.160   3.697  0.1068  1.8918 -2.8816
   46DOPE   C27 5853   4.737   5.954   3.675  0.8411 -0.1691 -0.6652
   46DOPE   H7R 5854   4.839   5.982   3.643  1.0037 -0.1783 -0.1714
   46DOPE   H7S 5855   4.702   5.863   3.623 -3.2766  0.2004  1.0932
   46DOPE   C28 5856   4.752   5.923   3.825 -0.6907  0.7164  0.1905
   46DOPE   H8R 5857   4.830   5.844   3.835 -2.7447 -1.2554  1.6983
   46DOPE   H8S 5858   4.657   5.868   3.842 -1.5438  1.5648 -1.5103
   46DOPE   C29 5859   4.791   6.037   3.914 -0.0087 -0.4653 -0.2789
   46DOPE   H9R 5860   4.850   6.113   3.861 -2.0708  0.2065 -1.7571
   46DOPE  C210 5861   4.746   6.058   4.044 -0.4927  0.0249 -0.2661
   46DOPE  H10R 5862   4.788   6.145   4.096  0.3413 -0.8444  0.5675
   46DOPE  C211 5863   4.682   5.959   4.140  0.3510 -0.3042 -0.4576
   46DOPE  H11R 5864   4.704   5.851   4.128 -0.5565 -1.2106  4.1770
   46DOPE  H11S 5865   4.571   5.956   4.136  0.2323  2.4074 -2.7262
   46DOPE  C212 5866   4.718   5.976   4.288 -1.0516 -0.4099  0.3999
   46DOPE  H12R 5867   4.716   6.080   4.327  0.8659 -0.5327  0.9137
   46DOPE  H12S 5868   4.825   5.956   4.307 -0.5487 -1.4882 -2.8748
   46DOPE  C213 5869   4.617   5.893   4.375 -0.4609 -0.2028 -0.2396
   46DOPE  H13R 5870   4.634   5.788   4.343 -0.2650 -0.5466  0.9330
   46DOPE  H13S 5871   4.509   5.911   4.362 -0.4094  1.0577  0.7978
   46DOPE  C214 5872   4.636   5.931   4.524  0.2327 -0.6078  0.2225
   46DOPE  H14R 5873   4.611   6.039   4.538  1.9391 -0.1962  0.2981
   46DOPE  H14S 5874   4.745   5.941   4.542 -0.1116  1.6353  1.4516
   46DOPE  C215 5875   4.555   5.852   4.630  0.3551 -0.3460  0.0596
   46DOPE  H15R 5876   4.590   5.746   4.623 -2.1233 -1.3687  1.6458
   46DOPE  H15S 5877   4.446   5.857   4.609  0.5457  0.2662 -0.8299
   46DOPE  C216 5878   4.593   5.887   4.775 -0.3699  0.0106 -0.2113
   46DOPE  H16R 5879   4.510   5.937   4.829  0.4370 -0.2143  1.3301
   46DOPE  H16S 5880   4.679   5.957   4.776  1.1254 -1.6400 -2.9126
   46DOPE  C217 5881   4.607   5.772   4.875  0.1838 -0.3975  0.0879
   46DOPE  H17R 5882   4.627   5.809   4.978 -3.2347  1.6247  0.1678
   46DOPE  H17S 5883   4.685   5.704   4.835 -0.0049  0.5103 -1.9921
   46DOPE  C218 5884   4.476   5.703   4.883 -0.2448 -0.0040  0.0016
   46DOPE  H18R 5885   4.399   5.772   4.924 -0.4010  0.4568 -1.0289
   46DOPE  H18S 5886   4.486   5.614   4.949  0.1844 -0.7201 -0.9881
   46DOPE  H18T 5887   4.436   5.673   4.783  1.3513  0.2647 -0.7460
   46DOPE   C33 5888   5.099   5.840   3.540 -0.4640  0.4846  1.0148
   46DOPE   H3X 5889   5.113   5.884   3.641  2.5192  0.9880  0.4815
   46DOPE   H3Y 5890   5.066   5.925   3.477 -0.5284  0.6080  1.2153
   46DOPE   C34 5891   5.231   5.793   3.484  0.0771  0.3565  0.2276
   46DOPE   H4X 5892   5.210   5.758   3.380  1.3451  0.0469  0.0557
   46DOPE   H4Y 5893   5.293   5.882   3.461  0.3451  0.8526  2.6687
   46DOPE   C35 5894   5.306   5.688   3.566 -0.2592  0.7070  0.7618
   46DOPE   H5X 5895   5.407   5.679   3.522 -0.1435 -2.3026  1.4371
   46DOPE   H5Y 5896   5.271   5.585   3.546  0.9561  0.6366 -1.2604
   46DOPE   C36 5897   5.325   5.709   3.719  0.8740 -0.2222 -0.0239
   46DOPE   H6X 5898   5.389   5.621   3.742  2.1140  0.7205  0.2354
   46DOPE   H6Y 5899   5.226   5.699   3.769  1.6463 -2.0515  1.2244
   46DOPE   C37 5900   5.397   5.834   3.767 -0.1926  0.8609 -0.4332
   46DOPE   H7X 5901   5.502   5.819   3.734 -0.5921 -1.0615 -0.9554
   46DOPE   H7Y 5902   5.366   5.927   3.715  0.3729  1.4420  0.2538
   46DOPE   C38 5903   5.378   5.855   3.919  0.4773 -0.5033  0.1383
   46DOPE   H8X 5904   5.275   5.891   3.940  0.8803  3.6961 -3.5042
   46DOPE   H8Y 5905   5.443   5.942   3.943 -0.2066  0.5057 -1.4453
   46DOPE   C39 5906   5.413   5.742   4.013  0.4881  0.4192  0.7158
   46DOPE   H9X 5907   5.331   5.681   4.054 -0.1320 -1.2869 -2.6354
   46DOPE  C310 5908   5.534   5.735   4.075  0.1446  0.5410 -0.8736
   46DOPE  H10X 5909   5.543   5.646   4.138 -1.6631  0.6757 -0.3693
   46DOPE  C311 5910   5.653   5.826   4.066  0.5374 -0.2434 -0.2013
   46DOPE  H11X 5911   5.748   5.776   4.039  1.3289  1.3109 -0.3977
   46DOPE  H11Y 5912   5.638   5.894   3.979  0.0217 -0.9666 -0.7009
   46DOPE  C312 5913   5.688   5.905   4.194  0.3330 -0.0561 -0.0052
   46DOPE  H12X 5914   5.762   5.983   4.170  0.0708 -0.0950 -0.9858
   46DOPE  H12Y 5915   5.730   5.829   4.264  0.0133 -0.3215 -0.0971
   46DOPE  C313 5916   5.572   5.984   4.252  0.2600 -0.3254  0.0068
   46DOPE  H13X 5917   5.546   6.068   4.185 -0.0724 -0.1790  0.3172
   46DOPE  H13Y 5918   5.482   5.922   4.267  0.3664 -0.8623 -1.3603
   46DOPE  C314 5919   5.607   6.051   4.375 -0.6002 -0.1591  0.5196
   46DOPE  H14X 5920   5.706   6.102   4.373 -0.0365 -1.2497 -0.3430
   46DOPE  H14Y 5921   5.637   5.979   4.454 -0.7804 -0.5176  0.2654
   46DOPE  C315 5922   5.496   6.131   4.430  0.3264  0.3935  0.3863
   46DOPE  H15X 5923   5.396   6.084   4.418  1.0936 -1.6139  1.4012
   46DOPE  H15Y 5924   5.486   6.224   4.370 -1.8790 -0.5093 -0.8015
   46DOPE  C316 5925   5.502   6.154   4.582 -0.2911 -0.0447 -0.0059
   46DOPE  H16X 5926   5.512   6.060   4.640  0.5737  1.0856  1.7816
   46DOPE  H16Y 5927   5.412   6.200   4.628  0.3388  1.0279  0.1933
   46DOPE  C317 5928   5.616   6.249   4.614  0.3679 -0.3649 -0.0359
   46DOPE  H17X 5929   5.709   6.189   4.604  0.0730 -0.8812  0.2786
   46DOPE  H17Y 5930   5.607   6.330   4.538 -2.1186 -0.2185  0.3382
   46DOPE  C318 5931   5.618   6.316   4.756  0.6157  0.7923  0.2762
   46DOPE  H18X 5932   5.706   6.383   4.760  1.9558 -0.8111 -0.6338
   46DOPE  H18Y 5933   5.516   6.354   4.779 -0.9211 -2.4592 -0.4372
   46DOPE  H18Z 5934   5.639   6.236   4.831 -0.1535 -0.2310 -0.5615
   47DOPE     N 5935   1.417   5.597   2.651  0.1386  0.5576  0.9037
   47DOPE   HN1 5936   1.350   5.526   2.617  0.1754  0.9091  0.0826
   47DOPE   HN2 5937   1.482   5.625   2.575  0.5006  0.0922  1.0384
   47DOPE   HN3 5938   1.472   5.556   2.729  2.6353  0.6783 -0.7248
   47DOPE   C12 5939   1.344   5.715   2.699  0.0554  0.7334  0.2638
   47DOPE  H12A 5940   1.316   5.684   2.802  1.0421 -0.0542  0.3121
   47DOPE  H12B 5941   1.250   5.721   2.640 -0.6424  4.1139  1.4725
   47DOPE   C11 5942   1.427   5.843   2.686  0.2246  0.0033 -0.6668
   47DOPE  H11A 5943   1.367   5.923   2.736 -2.7396 -1.5513 -1.5404
   47DOPE  H11B 5944   1.448   5.880   2.584  2.1544  1.1706  0.0837
   47DOPE     P 5945   1.576   5.853   2.912 -0.2123  0.1463 -0.1035
   47DOPE   O13 5946   1.718   5.861   2.932  0.0844  0.2661 -0.5153
   47DOPE   O14 5947   1.499   5.752   2.982  0.1092  0.3331 -0.3034
   47DOPE   O11 5948   1.518   5.992   2.952  0.2822  0.3221 -0.2199
   47DOPE   O12 5949   1.551   5.845   2.756  0.4987 -0.0511 -0.0099
   47DOPE    C1 5950   1.596   6.071   3.051 -0.3846  0.2497  0.0523
   47DOPE    HA 5951   1.553   6.172   3.061 -0.0236  0.3829  0.2667
   47DOPE    HB 5952   1.698   6.087   3.008  0.5506 -2.1626  1.1748
   47DOPE    C2 5953   1.584   6.004   3.192  0.5732 -0.4870 -0.1073
   47DOPE    HS 5954   1.648   5.913   3.203 -0.2695 -1.1460 -0.5805
   47DOPE   O21 5955   1.453   5.964   3.224  0.7674 -0.2207 -0.0283
   47DOPE   C21 5956   1.443   5.858   3.303 -0.0225  0.3891  0.5899
   47DOPE   O22 5957   1.533   5.790   3.348  0.0374  0.0017  0.1825
   47DOPE   C22 5958   1.297   5.819   3.325 -0.7629  1.0525 -0.1474
   47DOPE   H2R 5959   1.291   5.726   3.385  1.2216  0.5616 -0.6458
   47DOPE   H2S 5960   1.246   5.807   3.227 -1.1803  0.4484  0.1407
   47DOPE    C3 5961   1.627   6.112   3.294  0.1661 -0.1151  0.0869
   47DOPE    HX 5962   1.547   6.189   3.298  0.7694  0.5608 -0.4079
   47DOPE    HY 5963   1.717   6.164   3.256 -0.6164  1.4581  0.2980
   47DOPE   O31 5964   1.639   6.050   3.419  0.4173 -0.3749  0.0216
   47DOPE   C31 5965   1.755   6.000   3.449 -0.0607 -1.2986  0.3925
   47DOPE   O32 5966   1.861   6.025   3.396  0.1014 -0.0771 -0.1421
   47DOPE   C32 5967   1.741   5.915   3.576  0.8409  0.5928  0.1743
   47DOPE   H2X 5968   1.648   5.854   3.573 -0.9141  3.1067 -0.8871
   47DOPE   H2Y 5969   1.834   5.855   3.582 -0.0865 -0.8690  0.2901
   47DOPE   C23 5970   1.229   5.928   3.410  0.4998 -0.6506  0.4616
   47DOPE   H3R 5971   1.119   5.918   3.407  0.3604  0.8205 -2.1603
   47DOPE   H3S 5972   1.252   6.035   3.392  0.9543 -0.1336  3.5606
   47DOPE   C24 5973   1.263   5.913   3.564  0.9510  0.0412  0.4698
   47DOPE   H4R 5974   1.371   5.937   3.575  1.0845  0.6108 -1.6202
   47DOPE   H4S 5975   1.241   5.809   3.598 -1.4364  0.9065  1.8445
   47DOPE   C25 5976   1.183   6.014   3.646  1.0818  0.8661 -0.3449
   47DOPE   H5R 5977   1.074   6.010   3.622  1.2868 -1.4327 -1.1044
   47DOPE   H5S 5978   1.223   6.114   3.620  0.0747  1.4536  0.2693
   47DOPE   C26 5979   1.203   6.003   3.800 -0.6948 -1.0115 -1.0535
   47DOPE   H6R 5980   1.212   5.897   3.832 -0.1885 -1.0228 -1.2263
   47DOPE   H6S 5981   1.117   6.062   3.839  1.5859  0.3914  2.2519
   47DOPE   C27 5982   1.331   6.072   3.842 -0.0492  0.8711  0.1948
   47DOPE   H7R 5983   1.344   6.179   3.813  1.7066  0.6199 -0.0910
   47DOPE   H7S 5984   1.416   6.008   3.809  2.4104  3.8539  0.2204
   47DOPE   C28 5985   1.336   6.059   3.999 -0.9038  0.2107 -0.2518
   47DOPE   H8R 5986   1.442   6.071   4.029  0.0525 -1.3865 -2.6842
   47DOPE   H8S 5987   1.303   5.958   4.033 -1.3387  0.6523  0.6631
   47DOPE   C29 5988   1.250   6.165   4.069 -0.1117 -0.4790  0.5022
   47DOPE   H9R 5989   1.145   6.135   4.061 -0.4157  0.6343  0.2172
   47DOPE  C210 5990   1.280   6.274   4.130  0.3012 -0.6449 -0.7555
   47DOPE  H10R 5991   1.206   6.336   4.184  3.2645  2.6774 -0.1411
   47DOPE  C211 5992   1.411   6.339   4.154 -0.4018  0.3209 -0.5498
   47DOPE  H11R 5993   1.471   6.293   4.236  0.6845  1.4723 -0.6732
   47DOPE  H11S 5994   1.385   6.441   4.191 -0.6795  0.2643 -0.5825
   47DOPE  C212 5995   1.505   6.346   4.035 -0.2835 -0.7372 -0.0705
   47DOPE  H12R 5996   1.434   6.364   3.952 -1.7158 -1.8307  0.8626
   47DOPE  H12S 5997   1.551   6.245   4.032 -0.4445 -0.8647  1.0794
   47DOPE  C213 5998   1.598   6.470   4.042 -0.1004  0.0111 -0.3660
   47DOPE  H13R 5999   1.668   6.457   4.127  1.6968  3.1674 -1.2132
   47DOPE  H13S 6000   1.533   6.557   4.065  1.8757  1.0776  1.5233
   47DOPE  C214 6001   1.674   6.517   3.913 -0.2328  0.3137  0.7621
   47DOPE  H14R 6002   1.694   6.625   3.932  0.3397  0.5394 -1.0110
   47DOPE  H14S 6003   1.613   6.510   3.821 -0.3356  1.1450  0.7577
   47DOPE  C215 6004   1.809   6.445   3.888  0.0490 -0.3937  0.2198
   47DOPE  H15R 6005   1.775   6.341   3.873 -0.6532  0.0938 -1.8904
   47DOPE  H15S 6006   1.871   6.453   3.980 -1.5452 -1.3882  1.4369
   47DOPE  C216 6007   1.871   6.488   3.754 -0.1792 -0.5465  0.4121
   47DOPE  H16R 6008   1.871   6.599   3.762 -2.5131 -0.1450 -2.9593
   47DOPE  H16S 6009   1.804   6.458   3.671 -0.3666 -1.0386  0.7384
   47DOPE  C217 6010   2.009   6.439   3.731 -0.2422  0.0228  0.9749
   47DOPE  H17R 6011   2.072   6.465   3.819  0.3610 -1.3715  0.9653
   47DOPE  H17S 6012   2.050   6.487   3.640 -1.0458  0.4896  0.8423
   47DOPE  C218 6013   2.017   6.293   3.713  0.5949 -0.3506 -0.5747
   47DOPE  H18R 6014   2.121   6.256   3.699  0.7335 -0.7792  1.3493
   47DOPE  H18S 6015   1.953   6.250   3.632 -0.0102 -0.8685  0.1589
   47DOPE  H18T 6016   1.975   6.259   3.810  1.4079 -0.4334 -0.2473
   47DOPE   C33 6017   1.744   6.003   3.704  0.7791 -0.1095 -0.1090
   47DOPE   H3X 6018   1.656   6.071   3.707 -0.1377 -1.2631  0.1767
   47DOPE   H3Y 6019   1.840   6.058   3.707  1.8848 -1.9803  1.1460
   47DOPE   C34 6020   1.731   5.920   3.828 -0.1807 -0.6320  0.0805
   47DOPE   H4X 6021   1.625   5.885   3.828 -0.7344  0.9281  1.2859
   47DOPE   H4Y 6022   1.806   5.838   3.836 -0.6840 -1.1624 -0.4640
   47DOPE   C35 6023   1.752   5.994   3.965  0.1760  0.0202  0.4303
   47DOPE   H5X 6024   1.690   6.085   3.951 -1.5673 -1.1092  0.4930
   47DOPE   H5Y 6025   1.861   6.015   3.970  0.8539 -3.1883  2.6501
   47DOPE   C36 6026   1.694   5.905   4.080 -0.3786  0.4486 -0.0154
   47DOPE   H6X 6027   1.759   5.818   4.103 -2.4276 -0.9805  0.6911
   47DOPE   H6Y 6028   1.595   5.871   4.042 -0.0728  1.1422 -1.5358
   47DOPE   C37 6029   1.661   5.993   4.202 -0.3666  0.1450 -0.1669
   47DOPE   H7X 6030   1.762   6.025   4.235 -0.9716  1.3103  0.6073
   47DOPE   H7Y 6031   1.605   6.086   4.178  2.0697  1.2410 -2.0408
   47DOPE   C38 6032   1.591   5.905   4.315 -0.0504 -0.5024 -0.3599
   47DOPE   H8X 6033   1.592   5.972   4.404  4.1705 -3.1666  1.9747
   47DOPE   H8Y 6034   1.665   5.826   4.339 -0.8958 -0.9167  0.9864
   47DOPE   C39 6035   1.464   5.841   4.288 -0.3639  0.1689 -0.4234
   47DOPE   H9X 6036   1.481   5.746   4.235 -0.8085  0.9021 -1.9573
   47DOPE  C310 6037   1.343   5.865   4.345  0.0814 -0.3109  0.2369
   47DOPE  H10X 6038   1.251   5.813   4.315 -0.5324  0.5621  0.5792
   47DOPE  C311 6039   1.312   5.992   4.421  0.1860 -0.4755  0.5937
   47DOPE  H11X 6040   1.399   6.063   4.419  0.0444 -0.3101  0.1106
   47DOPE  H11Y 6041   1.242   6.058   4.366  1.9452  1.7091  0.8105
   47DOPE  C312 6042   1.243   5.970   4.557  0.4330 -0.1486  0.1327
   47DOPE  H12X 6043   1.303   5.902   4.620 -2.0197 -1.6212  0.9788
   47DOPE  H12Y 6044   1.153   5.906   4.550  1.6209 -1.7255 -3.9086
   47DOPE  C313 6045   1.192   6.092   4.642  0.2383 -0.2766  0.3220
   47DOPE  H13X 6046   1.278   6.159   4.661  1.1511 -2.1176  3.3663
   47DOPE  H13Y 6047   1.119   6.157   4.589 -0.0009 -2.3407 -2.0557
   47DOPE  C314 6048   1.118   6.050   4.771  0.4644 -0.1995 -0.7915
   47DOPE  H14X 6049   1.174   5.966   4.819  0.7401  1.2165  1.5249
   47DOPE  H14Y 6050   1.015   6.020   4.743 -0.1743 -1.0218  2.0799
   47DOPE  C315 6051   1.107   6.156   4.882 -0.5132  0.2937 -0.5457
   47DOPE  H15X 6052   1.054   6.244   4.839 -0.4350  0.5213 -0.1759
   47DOPE  H15Y 6053   1.210   6.190   4.905 -0.1164  0.3579 -2.2671
   47DOPE  C316 6054   1.054   6.092   5.012 -0.0670 -0.2757  0.8757
   47DOPE  H16X 6055   1.126   6.046   5.083  0.0549  0.6133  1.3507
   47DOPE  H16Y 6056   0.991   6.011   4.970 -0.5790  0.3405  0.4450
   47DOPE  C317 6057   0.979   6.195   5.099  0.4698 -0.1198 -0.2308
   47DOPE  H17X 6058   1.052   6.272   5.132  1.7062  0.4543 -3.8408
   47DOPE  H17Y 6059   0.906   6.250   5.036  2.9032 -0.2224 -3.4114
   47DOPE  C318 6060   0.913   6.124   5.212 -0.3055 -0.2218  0.1238
   47DOPE  H18X 6061   0.855   6.198   5.272 -0.4061  1.4608 -1.9176
   47DOPE  H18Y 6062   0.848   6.042   5.174  1.9756 -1.6732 -0.8426
   47DOPE  H18Z 6063   0.985   6.074   5.280 -1.5602 -1.8948  0.2921
   48DOPE     N 6064   6.766   1.629   2.904  0.7778  0.4676  0.3662
   48DOPE   HN1 6065   6.734   1.726   2.884 -0.0919 -0.2029 -1.9506
   48DOPE   HN2 6066   6.830   1.607   2.825  0.2490  1.4304 -0.3538
   48DOPE   HN3 6067   6.683   1.566   2.901  1.8737 -1.0628  0.9600
   48DOPE   C12 6068   6.834   1.624   3.041 -0.4179  1.0145  0.0530
   48DOPE  H12A 6069   6.758   1.663   3.111 -0.6118  0.6037  0.0777
   48DOPE  H12B 6070   6.916   1.698   3.045 -1.3204  1.9711  2.0898
   48DOPE   C11 6071   6.879   1.486   3.080  0.4471  0.3407 -0.6695
   48DOPE  H11A 6072   6.794   1.416   3.072 -0.4399  1.4773 -1.5606
   48DOPE  H11B 6073   6.901   1.491   3.189 -1.0377 -3.7001 -0.0303
   48DOPE     P 6074   7.143   1.460   3.056 -0.0993  0.7305 -0.7330
   48DOPE   O13 6075   7.173   1.598   3.078  0.2075 -0.1933  0.1994
   48DOPE   O14 6076   7.229   1.389   2.959  0.4031 -0.1651  0.2850
   48DOPE   O11 6077   7.134   1.379   3.191  0.0806  0.2753  0.1944
   48DOPE   O12 6078   7.000   1.452   3.005  0.4422  0.0522 -0.4633
   48DOPE    C1 6079   7.126   1.439   3.317 -0.2547 -0.8833  0.5445
   48DOPE    HA 6080   7.045   1.401   3.382  0.4199 -0.8376  1.4227
   48DOPE    HB 6081   7.104   1.547   3.299 -3.2003 -1.6817 -1.4823
   48DOPE    C2 6082   7.263   1.426   3.392  0.6579 -0.2124 -0.7625
   48DOPE    HS 6083   7.338   1.449   3.313  3.1528  1.7368  1.9825
   48DOPE   O21 6084   7.289   1.292   3.433 -0.1147  0.6042 -0.9432
   48DOPE   C21 6085   7.414   1.256   3.452 -0.5834  0.9438 -0.7132
   48DOPE   O22 6086   7.515   1.306   3.405  0.3308 -0.1222 -0.0538
   48DOPE   C22 6087   7.410   1.141   3.556 -0.4149  0.1746 -0.3028
   48DOPE   H2R 6088   7.516   1.125   3.585 -0.6508  0.6810  0.9280
   48DOPE   H2S 6089   7.372   1.050   3.504 -2.9760  1.9140 -1.6805
   48DOPE    C3 6090   7.282   1.528   3.510  0.6338  0.4688 -0.0313
   48DOPE    HX 6091   7.215   1.510   3.596  0.4417  1.2862  0.0029
   48DOPE    HY 6092   7.243   1.623   3.468 -5.6835 -2.0328 -0.9592
   48DOPE   O31 6093   7.419   1.540   3.547  0.4278  0.2806 -0.3012
   48DOPE   C31 6094   7.452   1.620   3.648 -0.0605  0.7047 -0.0029
   48DOPE   O32 6095   7.372   1.684   3.718 -0.4182  0.1638  0.5284
   48DOPE   C32 6096   7.602   1.611   3.657 -0.0278 -0.0930  0.1540
   48DOPE   H2X 6097   7.635   1.508   3.681 -3.2767 -0.7625  2.5730
   48DOPE   H2Y 6098   7.640   1.643   3.558 -1.0407  3.9004  0.8699
   48DOPE   C23 6099   7.335   1.153   3.689 -0.5420 -0.1504 -0.0784
   48DOPE   H3R 6100   7.345   1.066   3.756  1.9573  0.0809 -0.0763
   48DOPE   H3S 6101   7.225   1.167   3.674 -0.7608 -0.5423  1.0593
   48DOPE   C24 6102   7.394   1.270   3.775 -0.0404 -0.0110 -0.2292
   48DOPE   H4R 6103   7.381   1.367   3.723  1.5418  0.3446 -0.0110
   48DOPE   H4S 6104   7.502   1.244   3.777  0.1089  0.6369  0.2182
   48DOPE   C25 6105   7.331   1.279   3.913 -0.1072 -0.8297 -0.2565
   48DOPE   H5R 6106   7.336   1.177   3.958  0.8409 -0.6714  0.0109
   48DOPE   H5S 6107   7.225   1.307   3.897  0.9550  3.2069 -1.3561
   48DOPE   C26 6108   7.396   1.392   3.998  0.0586  0.7355  0.9128
   48DOPE   H6R 6109   7.384   1.484   3.937 -0.8693  0.9166  1.3480
   48DOPE   H6S 6110   7.502   1.360   4.003  0.3490  1.8205  1.8413
   48DOPE   C27 6111   7.342   1.407   4.145  0.7165  0.0444  0.5446
   48DOPE   H7R 6112   7.340   1.305   4.188  1.2773 -0.7250 -1.1663
   48DOPE   H7S 6113   7.237   1.442   4.139  0.9286  0.8975  1.5220
   48DOPE   C28 6114   7.438   1.495   4.228 -0.2732 -0.1766 -0.6312
   48DOPE   H8R 6115   7.423   1.589   4.171 -1.3011 -1.5291 -2.7597
   48DOPE   H8S 6116   7.535   1.441   4.226 -0.1851 -0.0216 -2.3163
   48DOPE   C29 6117   7.386   1.510   4.369  0.4344 -0.2604  0.2183
   48DOPE   H9R 6118   7.298   1.576   4.376  0.1861 -0.6922  1.3107
   48DOPE  C210 6119   7.436   1.477   4.486 -0.4755 -0.2558  0.8352
   48DOPE  H10R 6120   7.377   1.492   4.577  0.9013  0.7914  1.5869
   48DOPE  C211 6121   7.566   1.403   4.513  0.5326  0.0312 -0.5679
   48DOPE  H11R 6122   7.641   1.479   4.542  0.9698  0.3874 -2.4492
   48DOPE  H11S 6123   7.604   1.357   4.419  0.0068 -1.1009 -0.2448
   48DOPE  C212 6124   7.540   1.298   4.620 -0.0158  0.0310 -0.3702
   48DOPE  H12R 6125   7.481   1.345   4.701  2.2625  0.8251  0.9100
   48DOPE  H12S 6126   7.630   1.259   4.673  0.7332 -0.3782 -1.8788
   48DOPE  C213 6127   7.468   1.168   4.571  0.0552 -0.0824 -0.3908
   48DOPE  H13R 6128   7.545   1.110   4.515 -1.3693 -1.0231 -1.4859
   48DOPE  H13S 6129   7.385   1.194   4.501 -0.1195  1.1042  0.2378
   48DOPE  C214 6130   7.426   1.059   4.674 -0.0398 -0.3065  0.0687
   48DOPE  H14R 6131   7.360   1.104   4.751  0.6595 -0.2097  0.6287
   48DOPE  H14S 6132   7.521   1.015   4.712 -0.4914 -1.4690 -0.1041
   48DOPE  C215 6133   7.357   0.940   4.607 -0.3095 -0.2472  0.5598
   48DOPE  H15R 6134   7.442   0.869   4.598  0.8283  0.5497  3.8383
   48DOPE  H15S 6135   7.306   0.957   4.509  1.1063  1.0735  0.0216
   48DOPE  C216 6136   7.243   0.879   4.688 -0.3997  0.2025  0.6287
   48DOPE  H16R 6137   7.161   0.954   4.695 -1.0735 -0.1093 -2.5359
   48DOPE  H16S 6138   7.275   0.850   4.791 -2.3986 -0.1776  1.1965
   48DOPE  C217 6139   7.177   0.770   4.602 -0.6877  0.4995  0.6424
   48DOPE  H17R 6140   7.250   0.690   4.580 -0.9028 -0.2268  2.4081
   48DOPE  H17S 6141   7.147   0.817   4.506  1.0273  0.0109 -0.1615
   48DOPE  C218 6142   7.054   0.705   4.675 -0.1164  0.2925  0.4493
   48DOPE  H18R 6143   7.091   0.636   4.753 -0.2797 -1.2060 -0.7381
   48DOPE  H18S 6144   7.004   0.636   4.603 -1.4918  0.3368  1.3144
   48DOPE  H18T 6145   6.971   0.771   4.708  1.3882  2.1971  0.5932
   48DOPE   C33 6146   7.658   1.718   3.748 -0.2875  0.1092 -0.3824
   48DOPE   H3X 6147   7.622   1.821   3.728  1.7803  0.8811 -0.4351
   48DOPE   H3Y 6148   7.768   1.727   3.738  0.1336 -0.8875  2.3941
   48DOPE   C34 6149   7.636   1.676   3.896  0.0201  0.4352 -0.3390
   48DOPE   H4X 6150   7.525   1.680   3.909  0.2701 -0.3754  2.7598
   48DOPE   H4Y 6151   7.668   1.577   3.932  0.1580  1.1189  1.5079
   48DOPE   C35 6152   7.707   1.780   3.982 -0.3285 -0.2151 -0.8880
   48DOPE   H5X 6153   7.702   1.874   3.922  0.9357 -0.0466 -0.7612
   48DOPE   H5Y 6154   7.815   1.758   3.972 -0.0201  1.3398 -1.2785
   48DOPE   C36 6155   7.668   1.790   4.133 -0.1628 -0.1142 -0.4220
   48DOPE   H6X 6156   7.692   1.690   4.176 -3.5341 -1.0990 -0.5261
   48DOPE   H6Y 6157   7.557   1.801   4.136 -0.1697  0.1556 -1.4156
   48DOPE   C37 6158   7.736   1.904   4.213  0.1519  0.7457 -0.0517
   48DOPE   H7X 6159   7.844   1.908   4.191 -0.0135 -1.3956 -1.6447
   48DOPE   H7Y 6160   7.700   2.006   4.188 -1.0810 -0.1343 -2.1984
   48DOPE   C38 6161   7.714   1.903   4.364  0.5966 -0.6414  0.4184
   48DOPE   H8X 6162   7.605   1.885   4.376  0.6617 -0.8871  0.6548
   48DOPE   H8Y 6163   7.739   2.007   4.396 -0.6484  0.3781 -1.7216
   48DOPE   C39 6164   7.799   1.800   4.427 -0.9233  0.1560  0.1756
   48DOPE   H9X 6165   7.793   1.697   4.388  0.9292 -0.7639  2.1374
   48DOPE  C310 6166   7.884   1.818   4.530 -0.0081  0.1931  0.6274
   48DOPE  H10X 6167   7.944   1.734   4.569 -0.7789 -0.5775  0.1638
   48DOPE  C311 6168   7.924   1.949   4.583  0.9744 -0.1457 -0.3464
   48DOPE  H11X 6169   7.963   2.013   4.501 -1.0149  0.0589 -1.2098
   48DOPE  H11Y 6170   7.835   2.003   4.622  0.5306 -1.4450  0.5103
   48DOPE  C312 6171   8.028   1.956   4.694  0.1816  0.1744  0.7587
   48DOPE  H12X 6172   8.043   2.063   4.720 -0.4955  0.2602  0.8261
   48DOPE  H12Y 6173   8.117   1.921   4.637  0.8971  2.3025  0.4842
   48DOPE  C313 6174   7.995   1.865   4.815 -0.6298  0.3500 -0.4988
   48DOPE  H13X 6175   7.888   1.886   4.840 -0.4431 -1.2035  1.9731
   48DOPE  H13Y 6176   8.004   1.754   4.807  0.7178  0.4739 -0.9333
   48DOPE  C314 6177   8.079   1.904   4.935 -0.4661  0.1261  0.2083
   48DOPE  H14X 6178   8.055   2.006   4.971 -0.5175 -0.4163  1.7878
   48DOPE  H14Y 6179   8.185   1.916   4.901 -0.7622  1.7755 -0.2133
   48DOPE  C315 6180   8.074   1.810   5.052  0.1546  0.5616  0.1494
   48DOPE  H15X 6181   8.089   1.709   5.008 -1.4774 -0.2693  1.3726
   48DOPE  H15Y 6182   7.975   1.817   5.102  0.5067 -0.3147  0.9955
   48DOPE  C316 6183   8.166   1.835   5.166 -0.2298 -0.4197  0.2439
   48DOPE  H16X 6184   8.170   1.940   5.202 -1.3164  0.3257 -1.6494
   48DOPE  H16Y 6185   8.264   1.789   5.142  0.8158  1.9453 -0.3136
   48DOPE  C317 6186   8.116   1.760   5.292 -0.4020 -0.3490  0.4500
   48DOPE  H17X 6187   8.173   1.773   5.386 -0.7368 -0.2429  0.6381
   48DOPE  H17Y 6188   8.015   1.800   5.317 -0.0985  0.0686  1.0215
   48DOPE  C318 6189   8.093   1.607   5.267 -0.4115  0.4294 -0.7085
   48DOPE  H18X 6190   8.184   1.574   5.214 -0.4783  0.2612 -0.7204
   48DOPE  H18Y 6191   8.076   1.547   5.359  1.7811  2.9658  1.5459
   48DOPE  H18Z 6192   8.005   1.593   5.200 -0.1099  0.3288 -1.0827
   49DOPE     N 6193   1.818   4.746   2.585 -0.1634 -0.3503  0.3372
   49DOPE   HN1 6194   1.885   4.764   2.507 -0.9253 -0.3298 -0.3279
   49DOPE   HN2 6195   1.858   4.667   2.639 -2.2604 -0.3115  2.0839
   49DOPE   HN3 6196   1.727   4.725   2.539 -0.1866  0.9114 -0.2599
   49DOPE   C12 6197   1.813   4.866   2.674  0.5338  0.0300  0.7501
   49DOPE  H12A 6198   1.719   4.853   2.732 -1.2206 -0.1055 -1.9232
   49DOPE  H12B 6199   1.809   4.955   2.607  0.6128 -0.6158 -0.1284
   49DOPE   C11 6200   1.938   4.890   2.757 -0.0812 -0.8244 -0.2905
   49DOPE  H11A 6201   1.947   4.803   2.826  3.4999 -2.0301 -2.0651
   49DOPE  H11B 6202   1.916   4.988   2.805 -0.0111 -0.7096 -0.4915
   49DOPE     P 6203   2.193   4.953   2.709  0.0926 -0.3938  0.1281
   49DOPE   O13 6204   2.177   5.103   2.708 -0.0162  0.0869  0.3823
   49DOPE   O14 6205   2.296   4.883   2.635  0.2275 -0.0574  0.0028
   49DOPE   O11 6206   2.211   4.912   2.858  0.1584  0.1468 -0.1131
   49DOPE   O12 6207   2.054   4.885   2.673 -0.3204 -0.4147 -0.3391
   49DOPE    C1 6208   2.245   4.781   2.895 -0.5638 -0.1465  0.0082
   49DOPE    HA 6209   2.336   4.735   2.852 -1.3329 -2.2449  0.4826
   49DOPE    HB 6210   2.164   4.708   2.872  0.3809 -1.2584  0.1578
   49DOPE    C2 6211   2.271   4.773   3.048  0.9015 -0.3195 -0.2594
   49DOPE    HS 6212   2.325   4.681   3.079  0.9011 -0.6178 -1.0977
   49DOPE   O21 6213   2.151   4.794   3.120  0.1044  0.0838 -0.1145
   49DOPE   C21 6214   2.068   4.687   3.127  0.2559  0.1818 -0.3907
   49DOPE   O22 6215   2.097   4.578   3.080  0.2797 -0.1552 -0.8682
   49DOPE   C22 6216   1.936   4.716   3.199 -0.2313 -0.1809 -0.3128
   49DOPE   H2R 6217   1.856   4.639   3.189 -1.1122  0.9362 -3.1620
   49DOPE   H2S 6218   1.902   4.809   3.147 -1.8606 -2.1171 -2.9777
   49DOPE    C3 6219   2.369   4.883   3.085 -0.5064  0.3190  0.5622
   49DOPE    HX 6220   2.325   4.982   3.060 -1.0418 -0.2878 -1.0268
   49DOPE    HY 6221   2.458   4.870   3.021 -1.4421  0.5886 -0.8211
   49DOPE   O31 6222   2.410   4.870   3.223  0.6225 -0.4965  0.7684
   49DOPE   C31 6223   2.328   4.938   3.307  0.0015  0.0603 -0.4178
   49DOPE   O32 6224   2.227   5.002   3.280 -0.9331  0.4976 -0.6520
   49DOPE   C32 6225   2.397   4.929   3.449  0.0411  0.2395  0.2129
   49DOPE   H2X 6226   2.396   4.820   3.472 -1.4794  0.4688  1.3522
   49DOPE   H2Y 6227   2.503   4.961   3.443  0.2332 -0.5892 -2.0406
   49DOPE   C23 6228   1.955   4.762   3.351 -0.9893 -0.1268  0.9026
   49DOPE   H3R 6229   1.858   4.808   3.380 -1.7447 -0.2597 -1.2188
   49DOPE   H3S 6230   2.041   4.832   3.354 -1.9820  1.1871 -0.1766
   49DOPE   C24 6231   1.993   4.647   3.455 -0.2494 -0.4903  0.5219
   49DOPE   H4R 6232   1.946   4.553   3.419 -0.9161 -0.1492  0.4962
   49DOPE   H4S 6233   1.944   4.679   3.550 -0.3126  1.5987 -0.1587
   49DOPE   C25 6234   2.150   4.643   3.480  0.3493 -0.1501 -0.7395
   49DOPE   H5R 6235   2.181   4.749   3.493 -0.9624  0.2709 -0.9464
   49DOPE   H5S 6236   2.214   4.598   3.400  1.8597  0.5396  0.0417
   49DOPE   C26 6237   2.195   4.570   3.615 -0.0683 -0.2133 -0.6493
   49DOPE   H6R 6238   2.169   4.464   3.593 -0.0891 -0.6910  1.5024
   49DOPE   H6S 6239   2.136   4.586   3.708 -0.5335 -1.4273 -0.7217
   49DOPE   C27 6240   2.344   4.572   3.628 -0.5424  0.0740  0.3169
   49DOPE   H7R 6241   2.367   4.680   3.640 -0.1192  0.0632 -0.3556
   49DOPE   H7S 6242   2.397   4.543   3.535  1.7728  4.1316  0.1406
   49DOPE   C28 6243   2.387   4.499   3.758  0.1591  0.0136 -0.4156
   49DOPE   H8R 6244   2.356   4.392   3.765  1.5473 -0.4333 -0.7078
   49DOPE   H8S 6245   2.313   4.532   3.834  1.4639 -1.9962  1.8677
   49DOPE   C29 6246   2.525   4.532   3.807  0.3389  0.1478  0.0408
   49DOPE   H9R 6247   2.599   4.454   3.783 -1.6402 -1.6637 -0.4204
   49DOPE  C210 6248   2.567   4.636   3.876  0.6581 -0.0608  0.9342
   49DOPE  H10R 6249   2.672   4.655   3.901  0.1621  0.3173  2.9414
   49DOPE  C211 6250   2.486   4.752   3.924  0.4198  0.0888  1.1100
   49DOPE  H11R 6251   2.387   4.773   3.877  1.2090  1.7017  0.0887
   49DOPE  H11S 6252   2.530   4.853   3.908 -2.4683  1.2763 -0.1239
   49DOPE  C212 6253   2.455   4.743   4.073  0.4040 -0.2571  0.0256
   49DOPE  H12R 6254   2.390   4.658   4.106  0.6545 -0.5435 -0.2144
   49DOPE  H12S 6255   2.401   4.836   4.100  1.0587  0.5533 -1.3691
   49DOPE  C213 6256   2.588   4.740   4.160  0.3635  0.4011  0.1869
   49DOPE  H13R 6257   2.656   4.809   4.105  0.2838 -0.0696 -0.5182
   49DOPE  H13S 6258   2.628   4.637   4.166 -0.3931  0.1804  2.4956
   49DOPE  C214 6259   2.579   4.804   4.297  0.0151  0.6369 -0.3413
   49DOPE  H14R 6260   2.517   4.748   4.370  0.2057 -1.7214 -1.8822
   49DOPE  H14S 6261   2.537   4.906   4.292 -0.7767  0.2660 -1.5172
   49DOPE  C215 6262   2.725   4.812   4.359 -0.6082  0.6458  0.2553
   49DOPE  H15R 6263   2.795   4.856   4.284 -1.0137  0.3404 -0.3037
   49DOPE  H15S 6264   2.747   4.704   4.373 -0.9699  0.3184 -1.5644
   49DOPE  C216 6265   2.726   4.875   4.498  0.4390 -0.3016 -0.3874
   49DOPE  H16R 6266   2.665   4.813   4.567  0.7895  1.8000  1.9438
   49DOPE  H16S 6267   2.680   4.975   4.483 -2.2046 -1.5771 -1.4714
   49DOPE  C217 6268   2.873   4.893   4.552  0.1036  0.2818 -0.4373
   49DOPE  H17R 6269   2.928   4.967   4.490  0.3312 -0.4636 -1.1383
   49DOPE  H17S 6270   2.930   4.798   4.545 -0.5935 -0.1011 -1.0086
   49DOPE  C218 6271   2.868   4.931   4.703  0.1254  0.2604  0.4512
   49DOPE  H18R 6272   2.818   5.030   4.707 -1.4825 -0.4292 -1.0871
   49DOPE  H18S 6273   2.967   4.938   4.754  0.2982 -0.9940  0.3314
   49DOPE  H18T 6274   2.805   4.858   4.758 -1.4292  0.6172 -0.7955
   49DOPE   C33 6275   2.319   5.002   3.563 -0.1336  0.5514  0.6571
   49DOPE   H3X 6276   2.218   4.956   3.568  0.1433 -0.0711  0.5435
   49DOPE   H3Y 6277   2.317   5.108   3.532 -0.8035  0.8213  1.5620
   49DOPE   C34 6278   2.372   4.999   3.701 -0.5413  0.6140  0.1110
   49DOPE   H4X 6279   2.344   4.905   3.754 -0.0981  0.5156  0.1791
   49DOPE   H4Y 6280   2.482   5.011   3.701 -0.6389  1.6243  0.7684
   49DOPE   C35 6281   2.303   5.108   3.790 -0.4633 -0.8921 -0.7779
   49DOPE   H5X 6282   2.197   5.123   3.761 -1.3324  1.0701  2.8049
   49DOPE   H5Y 6283   2.365   5.195   3.760  1.3097 -1.8172  0.0331
   49DOPE   C36 6284   2.323   5.090   3.942  0.0230 -0.5910 -0.2594
   49DOPE   H6X 6285   2.430   5.097   3.968 -0.4395  4.0537  1.4627
   49DOPE   H6Y 6286   2.283   4.989   3.964 -0.4441 -0.2096  0.7317
   49DOPE   C37 6287   2.240   5.189   4.032  0.1664 -0.1281 -0.5146
   49DOPE   H7X 6288   2.258   5.295   4.004 -0.4747  1.0505  3.0712
   49DOPE   H7Y 6289   2.134   5.168   4.004 -0.4361  1.4245  0.4855
   49DOPE   C38 6290   2.265   5.183   4.179 -0.2543 -0.2143 -1.4291
   49DOPE   H8X 6291   2.189   5.257   4.212  0.6129 -0.1789  0.6296
   49DOPE   H8Y 6292   2.369   5.219   4.196 -1.1721  1.0126  2.6813
   49DOPE   C39 6293   2.232   5.050   4.239 -0.4494 -0.5244  0.7240
   49DOPE   H9X 6294   2.170   4.996   4.166  0.6915 -0.6478 -0.1642
   49DOPE  C310 6295   2.274   5.002   4.352 -0.5070  0.9471  0.2047
   49DOPE  H10X 6296   2.250   4.897   4.378 -0.0663  0.1368 -2.4072
   49DOPE  C311 6297   2.361   5.073   4.458 -0.0249  0.0594  0.0841
   49DOPE  H11X 6298   2.450   5.012   4.480  0.0882  0.3166  0.3476
   49DOPE  H11Y 6299   2.402   5.165   4.413 -0.5366 -0.5868 -1.7898
   49DOPE  C312 6300   2.296   5.104   4.589  0.5565  0.0303  0.9535
   49DOPE  H12X 6301   2.260   5.015   4.644 -0.1450 -0.4119 -0.1723
   49DOPE  H12Y 6302   2.201   5.160   4.572 -0.2033 -1.1998  1.0565
   49DOPE  C313 6303   2.387   5.200   4.678 -0.1112  0.3312 -0.5156
   49DOPE  H13X 6304   2.339   5.200   4.778  1.4402 -1.2101  0.2961
   49DOPE  H13Y 6305   2.486   5.148   4.684 -1.0070 -1.3447  0.8164
   49DOPE  C314 6306   2.401   5.345   4.629  0.6864  0.1813 -0.4948
   49DOPE  H14X 6307   2.433   5.348   4.523  0.9135 -2.4251 -0.5618
   49DOPE  H14Y 6308   2.487   5.391   4.683  2.7421 -1.6634 -1.9857
   49DOPE  C315 6309   2.272   5.426   4.648  0.1337 -0.1981 -0.3092
   49DOPE  H15X 6310   2.217   5.414   4.744 -1.2818 -0.8456 -1.1719
   49DOPE  H15Y 6311   2.197   5.390   4.575 -2.1760 -0.7564  2.1733
   49DOPE  C316 6312   2.305   5.576   4.640  0.3160  0.0438  0.5139
   49DOPE  H16X 6313   2.317   5.605   4.534  1.7253  3.5490  1.4799
   49DOPE  H16Y 6314   2.397   5.611   4.691  2.1291 -0.9876 -1.8366
   49DOPE  C317 6315   2.195   5.677   4.689 -0.1584 -0.2255  0.1192
   49DOPE  H17X 6316   2.226   5.779   4.655 -1.1743 -0.6893 -2.4647
   49DOPE  H17Y 6317   2.102   5.652   4.634  0.8494  1.2148 -2.4616
   49DOPE  C318 6318   2.177   5.671   4.844  0.1047  0.0331 -0.2535
   49DOPE  H18X 6319   2.116   5.761   4.866 -1.1901 -0.9070  0.1073
   49DOPE  H18Y 6320   2.125   5.582   4.887 -0.3989 -0.1123 -1.1281
   49DOPE  H18Z 6321   2.271   5.680   4.902  0.0306 -2.7342  0.4716
   50DOPE     N 6322   0.173   3.846   3.208 -0.3222 -0.4666 -0.1781
   50DOPE   HN1 6323   0.117   3.776   3.155 -1.6652  0.7938 -0.5002
   50DOPE   HN2 6324   0.208   3.805   3.296  0.4677 -0.7984 -0.6343
   50DOPE   HN3 6325   0.105   3.921   3.231 -0.3486  0.5862 -3.2349
   50DOPE   C12 6326   0.282   3.893   3.110 -0.3690 -0.1041  0.0488
   50DOPE  H12A 6327   0.341   3.977   3.154 -3.4549  1.1836  2.1143
   50DOPE  H12B 6328   0.229   3.947   3.029 -2.1474  0.7573  1.6987
   50DOPE   C11 6329   0.383   3.777   3.061 -0.0623  0.0209 -0.7246
   50DOPE  H11A 6330   0.458   3.834   3.002  0.5632  1.3826  1.2900
   50DOPE  H11B 6331   0.329   3.699   3.003 -0.6067  0.0024 -0.2026
   50DOPE     P 6332   0.552   3.594   3.161 -0.3336 -0.3943  0.1442
   50DOPE   O13 6333   0.645   3.608   3.050 -0.1004 -0.3059  0.2122
   50DOPE   O14 6334   0.478   3.470   3.175 -0.0516 -0.7304 -0.6000
   50DOPE   O11 6335   0.639   3.613   3.286 -0.1757  0.6838  0.1815
   50DOPE   O12 6336   0.440   3.710   3.174 -0.7689 -0.6189 -0.2095
   50DOPE    C1 6337   0.631   3.720   3.380  0.3605  0.1754  0.0786
   50DOPE    HA 6338   0.676   3.687   3.476  0.7150  0.7820  0.1248
   50DOPE    HB 6339   0.527   3.739   3.413  0.8152 -1.5769  2.8038
   50DOPE    C2 6340   0.714   3.849   3.341 -0.1561 -0.0346 -0.5797
   50DOPE    HS 6341   0.729   3.858   3.232  0.8818 -0.3016 -0.4676
   50DOPE   O21 6342   0.838   3.852   3.407 -0.0646 -0.1211  0.6047
   50DOPE   C21 6343   0.920   3.754   3.395  1.2844  0.8418 -0.0363
   50DOPE   O22 6344   0.909   3.662   3.318  0.0424  0.0759  0.1681
   50DOPE   C22 6345   1.019   3.762   3.507  0.3890 -1.1085  0.1261
   50DOPE   H2R 6346   1.024   3.870   3.535 -1.2720 -0.8803 -0.3547
   50DOPE   H2S 6347   1.117   3.729   3.466 -0.1058 -0.3302 -1.8076
   50DOPE    C3 6348   0.639   3.970   3.389 -0.6488  0.1165  0.2622
   50DOPE    HX 6349   0.539   3.966   3.341 -0.9153  1.4273  0.6621
   50DOPE    HY 6350   0.694   4.056   3.345 -0.3305 -1.0889 -1.8623
   50DOPE   O31 6351   0.615   3.979   3.526  0.6474 -0.1924  0.2879
   50DOPE   C31 6352   0.589   4.106   3.569 -1.4222  0.1005  0.2244
   50DOPE   O32 6353   0.584   4.205   3.497 -0.2974 -0.0944 -0.0972
   50DOPE   C32 6354   0.578   4.112   3.722  0.1370 -0.1182  0.2045
   50DOPE   H2X 6355   0.483   4.059   3.740 -0.5323  0.5639 -1.1294
   50DOPE   H2Y 6356   0.660   4.046   3.758 -0.9844 -3.3250 -2.5184
   50DOPE   C23 6357   0.983   3.674   3.629  0.2925  0.4399  0.8474
   50DOPE   H3R 6358   0.998   3.569   3.597  0.3557  0.5529  0.5023
   50DOPE   H3S 6359   0.875   3.696   3.640  0.2748  3.2812 -2.6961
   50DOPE   C24 6360   1.062   3.698   3.759 -0.1698 -0.0470 -0.3563
   50DOPE   H4R 6361   1.168   3.724   3.737  0.4998 -2.3998 -0.1186
   50DOPE   H4S 6362   1.060   3.607   3.822  0.6652 -0.7467 -1.3163
   50DOPE   C25 6363   1.003   3.816   3.833  0.6454  0.4062 -0.4035
   50DOPE   H5R 6364   0.999   3.912   3.777 -0.3242  0.2111 -0.6995
   50DOPE   H5S 6365   1.065   3.836   3.922 -2.6019 -1.2127  2.4769
   50DOPE   C26 6366   0.863   3.779   3.887 -0.1531  0.9195 -0.3768
   50DOPE   H6R 6367   0.868   3.668   3.898 -0.1602  1.1276  2.3370
   50DOPE   H6S 6368   0.787   3.807   3.811 -3.6727 -0.7658  2.2018
   50DOPE   C27 6369   0.827   3.854   4.013  1.2314  0.2268 -0.2556
   50DOPE   H7R 6370   0.836   3.963   3.993 -0.5393  0.2590 -1.0821
   50DOPE   H7S 6371   0.900   3.806   4.082  0.9068 -2.1668 -1.4678
   50DOPE   C28 6372   0.689   3.820   4.072 -0.2259 -0.0462  0.0072
   50DOPE   H8R 6373   0.690   3.715   4.107  0.1343  0.2293  0.8414
   50DOPE   H8S 6374   0.609   3.845   3.999  1.1398  1.8608 -0.9050
   50DOPE   C29 6375   0.673   3.902   4.200  0.1493 -0.0753 -0.3911
   50DOPE   H9R 6376   0.658   4.009   4.180  3.0154  0.8262  1.6125
   50DOPE  C210 6377   0.692   3.868   4.325  0.0447 -0.0828 -0.0323
   50DOPE  H10R 6378   0.676   3.933   4.413  2.9512 -1.1151  1.3910
   50DOPE  C211 6379   0.748   3.730   4.367  0.5985 -0.2398  0.3950
   50DOPE  H11R 6380   0.832   3.748   4.438 -0.4669 -1.2026  1.9881
   50DOPE  H11S 6381   0.784   3.669   4.281 -3.1363 -2.1797  0.0212
   50DOPE  C212 6382   0.635   3.647   4.439 -0.6359 -0.0674  0.5108
   50DOPE  H12R 6383   0.578   3.618   4.348  1.4626 -0.6506 -0.6833
   50DOPE  H12S 6384   0.575   3.725   4.490  0.9940  2.1631 -0.8151
   50DOPE  C213 6385   0.688   3.530   4.521  0.0645  0.2990 -0.2579
   50DOPE  H13R 6386   0.758   3.470   4.460  0.9646  1.2617 -0.1958
   50DOPE  H13S 6387   0.601   3.462   4.534 -0.0034  0.6916  1.5830
   50DOPE  C214 6388   0.751   3.568   4.663  0.3573 -1.0803 -0.0204
   50DOPE  H14R 6389   0.685   3.643   4.712  0.8646 -0.3016 -0.5110
   50DOPE  H14S 6390   0.848   3.616   4.638 -0.1677  0.4033  0.6322
   50DOPE  C215 6391   0.764   3.447   4.760 -0.2140 -0.1962  0.1842
   50DOPE  H15R 6392   0.668   3.392   4.756 -2.1057  2.8649 -0.5178
   50DOPE  H15S 6393   0.790   3.479   4.863  0.0458 -0.5391  0.2265
   50DOPE  C216 6394   0.879   3.359   4.701  0.3165  0.9511 -0.2845
   50DOPE  H16R 6395   0.957   3.418   4.649  1.1191  0.3645  0.2309
   50DOPE  H16S 6396   0.839   3.293   4.620 -3.8566  0.8739  1.5893
   50DOPE  C217 6397   0.945   3.262   4.806  0.5260 -0.2949  0.6483
   50DOPE  H17R 6398   0.993   3.327   4.882  2.8122 -1.0850 -0.0292
   50DOPE  H17S 6399   1.028   3.211   4.752  1.6359  1.0142  1.0676
   50DOPE  C218 6400   0.850   3.154   4.859 -0.5369  0.2597 -0.1539
   50DOPE  H18R 6401   0.813   3.104   4.767 -0.0545  0.5479 -0.5109
   50DOPE  H18S 6402   0.762   3.195   4.913  1.0743  1.3099  1.8154
   50DOPE  H18T 6403   0.905   3.095   4.935  0.6403  2.0192  0.4449
   50DOPE   C33 6404   0.583   4.255   3.784  0.3173 -0.0400  0.0204
   50DOPE   H3X 6405   0.514   4.315   3.722 -1.2516 -0.7365  1.0125
   50DOPE   H3Y 6406   0.683   4.302   3.771 -0.5226  1.7911 -0.1873
   50DOPE   C34 6407   0.531   4.256   3.930 -0.1569 -0.3428  0.4056
   50DOPE   H4X 6408   0.484   4.354   3.952  1.6864  1.3982 -2.7791
   50DOPE   H4Y 6409   0.464   4.170   3.953 -1.0584  0.0548 -0.6366
   50DOPE   C35 6410   0.653   4.252   4.027 -0.3415 -0.3846  0.0453
   50DOPE   H5X 6411   0.733   4.324   4.002  0.9316 -1.5351  0.6790
   50DOPE   H5Y 6412   0.706   4.156   4.013  0.9329  0.5626 -2.2534
   50DOPE   C36 6413   0.612   4.287   4.172 -0.0031 -0.0960 -0.0012
   50DOPE   H6X 6414   0.534   4.214   4.204 -0.8729  1.5222  1.7119
   50DOPE   H6Y 6415   0.565   4.387   4.166 -2.4708 -1.2384 -1.3276
   50DOPE   C37 6416   0.723   4.298   4.270 -0.8774  0.3207  0.5680
   50DOPE   H7X 6417   0.682   4.301   4.373  1.1998  2.2102  1.4383
   50DOPE   H7Y 6418   0.787   4.209   4.253 -2.7147 -0.8812 -0.4456
   50DOPE   C38 6419   0.818   4.416   4.258  0.8310  0.3769 -0.0135
   50DOPE   H8X 6420   0.863   4.405   4.157 -2.1794  0.8175 -1.5246
   50DOPE   H8Y 6421   0.897   4.396   4.334  1.8622  1.6455 -0.7182
   50DOPE   C39 6422   0.759   4.553   4.266  0.8038 -0.3771  0.0001
   50DOPE   H9X 6423   0.695   4.578   4.181 -1.9827 -0.9460  1.7931
   50DOPE  C310 6424   0.785   4.644   4.360 -0.1093 -0.4607  0.3669
   50DOPE  H10X 6425   0.724   4.735   4.370  1.6253  1.0812 -1.8857
   50DOPE  C311 6426   0.885   4.637   4.469 -0.2067  0.7137 -0.5381
   50DOPE  H11X 6427   0.837   4.629   4.569 -0.3711 -0.5311 -0.7016
   50DOPE  H11Y 6428   0.942   4.544   4.452  1.3468  2.0546 -3.3387
   50DOPE  C312 6429   0.985   4.759   4.496 -0.3686 -0.0094  0.2367
   50DOPE  H12X 6430   1.039   4.735   4.590 -1.4165 -0.4807  0.7378
   50DOPE  H12Y 6431   0.915   4.841   4.523  0.0825  0.2529  0.6266
   50DOPE  C313 6432   1.079   4.798   4.384 -0.3253  0.0237  0.0496
   50DOPE  H13X 6433   1.167   4.731   4.374  0.5900  1.2358 -0.2672
   50DOPE  H13Y 6434   1.026   4.795   4.286  0.0447 -0.5084 -0.1362
   50DOPE  C314 6435   1.143   4.935   4.394 -0.2669 -0.8036 -0.5280
   50DOPE  H14X 6436   1.058   5.002   4.371  0.0284 -0.0516  0.5433
   50DOPE  H14Y 6437   1.223   4.958   4.320 -1.2096  0.2328 -1.2431
   50DOPE  C315 6438   1.194   4.974   4.539 -0.3694  0.5916  0.5972
   50DOPE  H15X 6439   1.252   4.895   4.593 -0.4766  1.6769  2.3946
   50DOPE  H15Y 6440   1.101   4.994   4.596 -1.3225 -2.9596  0.5249
   50DOPE  C316 6441   1.292   5.091   4.531  0.0603 -0.4571 -0.4927
   50DOPE  H16X 6442   1.249   5.163   4.458 -0.5364 -0.3953 -0.0855
   50DOPE  H16Y 6443   1.393   5.053   4.502  0.4285 -1.5932  1.9692
   50DOPE  C317 6444   1.285   5.164   4.673 -0.3632 -0.1023 -0.1599
   50DOPE  H17X 6445   1.197   5.232   4.673  0.1645  0.6192 -1.3914
   50DOPE  H17Y 6446   1.286   5.085   4.751  1.4479 -0.6970 -0.7421
   50DOPE  C318 6447   1.412   5.237   4.708 -0.4320 -0.2286 -0.1269
   50DOPE  H18X 6448   1.500   5.169   4.710  0.3626  0.7388 -0.8930
   50DOPE  H18Y 6449   1.444   5.302   4.624 -0.8988  0.6050  0.3344
   50DOPE  H18Z 6450   1.412   5.304   4.796 -1.1326 -0.9833  0.4622
   51DOPE     N 6451   3.614   0.079   2.569  0.3190 -0.3725  0.7642
   51DOPE   HN1 6452   3.598   0.178   2.541 -1.4830 -1.2026 -1.4459
   51DOPE   HN2 6453   3.614   0.010   2.492 -1.7399 -0.9475  1.2096
   51DOPE   HN3 6454   3.523   0.061   2.616 -0.4189  0.7634 -0.1856
   51DOPE   C12 6455   3.733   0.069   2.653  0.4895  0.2111 -0.0914
   51DOPE  H12A 6456   3.734   0.159   2.719 -0.7271  0.8196 -0.8689
   51DOPE  H12B 6457   3.828   0.076   2.595 -1.2630 -1.3508 -3.4016
   51DOPE   C11 6458   3.738  -0.052   2.737 -0.8111  0.7370 -0.1421
   51DOPE  H11A 6459   3.660  -0.048   2.816  0.9294  0.1219  1.7227
   51DOPE  H11B 6460   3.833  -0.045   2.795 -0.9287  0.5702  0.0710
   51DOPE     P 6461   3.865  -0.262   2.646 -0.2283  0.0525 -0.3305
   51DOPE   O13 6462   3.970  -0.194   2.568  0.1849 -0.1108 -0.2816
   51DOPE   O14 6463   3.819  -0.389   2.584 -0.2039 -0.3425 -0.0717
   51DOPE   O11 6464   3.909  -0.294   2.794 -0.4030  0.2593 -0.3604
   51DOPE   O12 6465   3.730  -0.178   2.665  0.4220  0.2862 -0.3931
   51DOPE    C1 6466   3.821  -0.348   2.892  0.5370 -0.2424  0.8015
   51DOPE    HA 6467   3.756  -0.431   2.857 -3.0357  2.1281  1.2306
   51DOPE    HB 6468   3.751  -0.271   2.933  1.1914  0.7088  0.1847
   51DOPE    C2 6469   3.901  -0.412   3.018 -0.2350 -0.8560 -0.1703
   51DOPE    HS 6470   3.829  -0.414   3.102 -0.6655  1.0913 -0.4511
   51DOPE   O21 6471   4.019  -0.343   3.065  0.4410 -0.1985  0.0379
   51DOPE   C21 6472   3.999  -0.214   3.097 -0.0392  0.0852  0.0997
   51DOPE   O22 6473   3.895  -0.153   3.099  0.0524 -0.1470  0.2206
   51DOPE   C22 6474   4.136  -0.155   3.145  0.1933  0.1434 -0.5480
   51DOPE   H2R 6475   4.139  -0.046   3.123 -0.4774  0.0934 -0.9099
   51DOPE   H2S 6476   4.218  -0.217   3.102 -1.8141 -2.2181 -1.1661
   51DOPE    C3 6477   3.945  -0.563   2.984  0.6538  0.3913  0.0332
   51DOPE    HX 6478   3.987  -0.550   2.882 -0.4402 -1.9599 -0.8008
   51DOPE    HY 6479   3.856  -0.630   2.980  1.1946 -0.2989 -1.1792
   51DOPE   O31 6480   4.041  -0.621   3.072  0.2177 -0.2732  0.4902
   51DOPE   C31 6481   3.985  -0.680   3.182 -0.4234 -0.2256  1.2158
   51DOPE   O32 6482   3.868  -0.715   3.196 -0.0966 -0.2093  0.3480
   51DOPE   C32 6483   4.103  -0.721   3.276  0.8421 -0.4729  0.2871
   51DOPE   H2X 6484   4.065  -0.788   3.356 -0.1000 -2.6082 -1.8190
   51DOPE   H2Y 6485   4.191  -0.757   3.219  1.5542  1.7778 -0.1238
   51DOPE   C23 6486   4.162  -0.158   3.295 -0.4844 -0.0849  0.4255
   51DOPE   H3R 6487   4.264  -0.125   3.321 -0.1371 -1.7762  1.3257
   51DOPE   H3S 6488   4.169  -0.263   3.331 -0.4790 -0.0741  0.4566
   51DOPE   C24 6489   4.077  -0.081   3.394  0.0362  0.6740 -0.4669
   51DOPE   H4R 6490   3.971  -0.105   3.376 -0.3123 -0.1740  2.2266
   51DOPE   H4S 6491   4.073   0.030   3.383 -3.5034  0.6930 -0.1095
   51DOPE   C25 6492   4.124  -0.117   3.530  0.0845 -0.1491  0.0875
   51DOPE   H5R 6493   4.207  -0.052   3.566 -0.2960  0.2507  0.2402
   51DOPE   H5S 6494   4.170  -0.218   3.529 -0.0157 -0.1986  0.5522
   51DOPE   C26 6495   4.019  -0.115   3.641  0.2075  0.4084  0.1201
   51DOPE   H6R 6496   3.941  -0.186   3.607  0.1761  0.2756  0.4644
   51DOPE   H6S 6497   3.979  -0.012   3.652 -0.0354  0.3226  0.0573
   51DOPE   C27 6498   4.067  -0.152   3.778  0.8676  0.1417  0.3719
   51DOPE   H7R 6499   4.135  -0.082   3.830  2.1839 -1.8490  1.4224
   51DOPE   H7S 6500   4.105  -0.256   3.774 -0.1148 -0.2141 -2.4025
   51DOPE   C28 6501   3.942  -0.151   3.868 -0.2673 -0.5736 -0.2620
   51DOPE   H8R 6502   3.850  -0.204   3.836 -0.5122 -0.2337 -0.1209
   51DOPE   H8S 6503   3.915  -0.044   3.857 -2.0775 -0.8578  1.0414
   51DOPE   C29 6504   3.961  -0.170   4.017 -0.0018 -0.7257 -0.0583
   51DOPE   H9R 6505   4.032  -0.247   4.051 -0.1297 -0.5690  0.5742
   51DOPE  C210 6506   3.873  -0.133   4.112 -0.0175  0.1456 -0.8551
   51DOPE  H10R 6507   3.902  -0.156   4.216 -0.5341  1.7074 -0.3276
   51DOPE  C211 6508   3.732  -0.072   4.105 -0.0714  0.0032  0.0580
   51DOPE  H11R 6509   3.717  -0.046   3.998  1.0539 -0.2320 -0.1762
   51DOPE  H11S 6510   3.727   0.023   4.161 -1.7956  0.8353 -1.3856
   51DOPE  C212 6511   3.622  -0.173   4.153  0.3255  0.0071 -0.4238
   51DOPE  H12R 6512   3.626  -0.271   4.102 -2.9234  0.3255 -1.5122
   51DOPE  H12S 6513   3.520  -0.138   4.125  0.2065 -1.3659 -1.8305
   51DOPE  C213 6514   3.614  -0.197   4.307 -0.6902  1.0615  0.1676
   51DOPE  H13R 6515   3.717  -0.236   4.323 -1.0546 -1.4714 -2.7386
   51DOPE  H13S 6516   3.543  -0.281   4.322  0.7093 -0.3876 -1.0068
   51DOPE  C214 6517   3.600  -0.065   4.382  1.1732 -0.0361  1.4543
   51DOPE  H14R 6518   3.508  -0.022   4.337  0.7502 -0.3540  2.0072
   51DOPE  H14S 6519   3.687   0.001   4.358  1.1875 -0.4078  0.4380
   51DOPE  C215 6520   3.572  -0.081   4.527 -0.0439 -0.1288  0.1850
   51DOPE  H15R 6521   3.480  -0.139   4.549  0.4872 -0.8188  0.6052
   51DOPE  H15S 6522   3.565   0.019   4.576  2.4404  0.7986 -1.1643
   51DOPE  C216 6523   3.690  -0.147   4.595  0.0809 -0.3932 -0.0732
   51DOPE  H16R 6524   3.786  -0.092   4.582  0.1113 -0.4747 -0.1946
   51DOPE  H16S 6525   3.708  -0.247   4.551  1.2332 -0.3369  0.2343
   51DOPE  C217 6526   3.671  -0.161   4.744  0.0553 -0.2899 -0.2621
   51DOPE  H17R 6527   3.645  -0.064   4.791  1.9238  0.6684 -1.0989
   51DOPE  H17S 6528   3.762  -0.186   4.803 -0.3232  0.8867  0.8676
   51DOPE  C218 6529   3.567  -0.269   4.773  0.2362  0.1189 -0.0486
   51DOPE  H18R 6530   3.566  -0.293   4.882  0.0362 -1.3097 -0.3591
   51DOPE  H18S 6531   3.599  -0.355   4.711  0.2320  1.2880 -1.7457
   51DOPE  H18T 6532   3.463  -0.242   4.743  0.5641 -0.6195 -1.9837
   51DOPE   C33 6533   4.150  -0.590   3.347 -0.6014  0.1301  1.0002
   51DOPE   H3X 6534   4.165  -0.512   3.269  0.8252  0.3090  1.4271
   51DOPE   H3Y 6535   4.248  -0.611   3.395 -0.0840 -0.3474 -0.2192
   51DOPE   C34 6536   4.050  -0.530   3.455  0.0406 -0.4625  0.2054
   51DOPE   H4X 6537   4.110  -0.447   3.497 -1.3951  1.1166 -0.7160
   51DOPE   H4Y 6538   3.964  -0.489   3.397  0.8853  2.5964  0.9225
   51DOPE   C35 6539   4.018  -0.628   3.569  0.5966  0.0542 -0.5979
   51DOPE   H5X 6540   4.108  -0.690   3.589  1.0639  0.9822  0.2029
   51DOPE   H5Y 6541   3.931  -0.692   3.541 -0.8937  2.4599 -1.7628
   51DOPE   C36 6542   3.991  -0.582   3.712 -0.4776  0.0935  0.1807
   51DOPE   H6X 6543   3.909  -0.508   3.699 -0.1730  0.0201 -2.8587
   51DOPE   H6Y 6544   4.080  -0.530   3.754 -0.9778  0.4767  0.7781
   51DOPE   C37 6545   3.943  -0.696   3.804 -0.5559  0.2760 -0.0644
   51DOPE   H7X 6546   3.900  -0.779   3.744 -2.2266 -1.2532  2.9934
   51DOPE   H7Y 6547   4.029  -0.739   3.859 -0.6535  1.2162  0.8596
   51DOPE   C38 6548   3.827  -0.652   3.906  0.1266 -0.5466 -0.2827
   51DOPE   H8X 6549   3.784  -0.749   3.939  2.2098 -2.4527 -2.6807
   51DOPE   H8Y 6550   3.756  -0.593   3.845 -1.6988 -2.6515 -0.3190
   51DOPE   C39 6551   3.898  -0.564   4.007 -0.0560 -0.9629  0.0899
   51DOPE   H9X 6552   3.969  -0.489   3.968 -1.5108 -0.1649 -1.1084
   51DOPE  C310 6553   3.872  -0.562   4.140 -0.2988  0.9036  0.2715
   51DOPE  H10X 6554   3.923  -0.483   4.197  0.1253  0.1362  0.9775
   51DOPE  C311 6555   3.778  -0.663   4.205  0.7290  0.1898 -0.1203
   51DOPE  H11X 6556   3.671  -0.644   4.183  0.6834  0.5114  0.3558
   51DOPE  H11Y 6557   3.805  -0.763   4.165  0.7041 -0.3228  1.0843
   51DOPE  C312 6558   3.795  -0.674   4.360 -0.1278  0.2155  0.6082
   51DOPE  H12X 6559   3.903  -0.694   4.377  0.4580 -0.0024 -2.6704
   51DOPE  H12Y 6560   3.751  -0.772   4.385  1.5364 -0.6622  0.2316
   51DOPE  C313 6561   3.736  -0.560   4.442 -0.1253 -0.2099  0.2623
   51DOPE  H13X 6562   3.783  -0.465   4.409 -0.1285 -0.9323 -1.9790
   51DOPE  H13Y 6563   3.630  -0.559   4.408  0.0769 -1.8306 -0.4949
   51DOPE  C314 6564   3.749  -0.583   4.594  0.4869  0.4288 -0.4957
   51DOPE  H14X 6565   3.766  -0.692   4.608 -1.8525  0.2244  1.3830
   51DOPE  H14Y 6566   3.659  -0.552   4.650  0.3261  1.4348 -1.2773
   51DOPE  C315 6567   3.880  -0.511   4.646  0.5754 -0.0623 -0.2255
   51DOPE  H15X 6568   3.879  -0.409   4.601  0.4811  0.9917  2.0568
   51DOPE  H15Y 6569   3.965  -0.567   4.600  3.1438  1.7020  2.0485
   51DOPE  C316 6570   3.903  -0.504   4.796  0.0181 -0.0737 -0.2207
   51DOPE  H16X 6571   3.815  -0.458   4.846  0.8704 -0.3189  1.6070
   51DOPE  H16Y 6572   3.976  -0.425   4.823 -2.4237  2.3612 -0.3450
   51DOPE  C317 6573   3.963  -0.635   4.840  0.1890  0.6369 -0.4261
   51DOPE  H17X 6574   3.951  -0.635   4.951 -1.0357  1.2540 -0.5476
   51DOPE  H17Y 6575   3.896  -0.716   4.803  0.9376 -0.1192 -0.1798
   51DOPE  C318 6576   4.113  -0.661   4.813  0.0273  0.1376  0.0399
   51DOPE  H18X 6577   4.175  -0.595   4.878  0.4837 -1.5546  1.4140
   51DOPE  H18Y 6578   4.152  -0.757   4.854  0.2510  0.6705  1.1161
   51DOPE  H18Z 6579   4.152  -0.650   4.710 -0.7203  0.2806 -0.2324
   52DOPE     N 6580   7.310   3.372   2.991  0.0262  0.4349 -0.2976
   52DOPE   HN1 6581   7.326   3.286   3.047 -0.5695  0.4382 -0.1160
   52DOPE   HN2 6582   7.338   3.453   3.049 -0.3181 -0.5388  1.3028
   52DOPE   HN3 6583   7.207   3.383   2.980 -0.0976 -0.6739 -0.3901
   52DOPE   C12 6584   7.383   3.364   2.858 -0.1328 -0.6070  0.4038
   52DOPE  H12A 6585   7.331   3.439   2.795 -0.0007 -2.0841 -1.5687
   52DOPE  H12B 6586   7.371   3.267   2.806  1.0338  0.2520 -1.6026
   52DOPE   C11 6587   7.535   3.397   2.894  0.5741 -0.0387 -0.4783
   52DOPE  H11A 6588   7.582   3.418   2.796  2.0408  1.8636  0.5491
   52DOPE  H11B 6589   7.579   3.311   2.948 -0.3226 -0.3995 -0.3007
   52DOPE     P 6590   7.697   3.567   3.009 -0.3668 -0.0401 -0.2761
   52DOPE   O13 6591   7.692   3.704   3.057 -0.4343 -0.5912  0.6360
   52DOPE   O14 6592   7.789   3.542   2.894 -0.1230  0.3649 -0.2876
   52DOPE   O11 6593   7.747   3.481   3.130 -0.0252 -0.2621 -0.1682
   52DOPE   O12 6594   7.547   3.513   2.980  0.0880  0.1035  0.2956
   52DOPE    C1 6595   7.663   3.410   3.223 -0.5066 -0.0745 -0.1107
   52DOPE    HA 6596   7.700   3.305   3.228  2.4411  0.8943  0.2233
   52DOPE    HB 6597   7.553   3.405   3.207 -1.0232  0.1369  2.7448
   52DOPE    C2 6598   7.690   3.464   3.361 -1.0393  0.0448 -0.9922
   52DOPE    HS 6599   7.641   3.395   3.433 -1.3320  1.3664  0.1202
   52DOPE   O21 6600   7.638   3.597   3.377 -0.5525 -0.6223 -0.2151
   52DOPE   C21 6601   7.513   3.609   3.371 -0.3781 -0.4428 -0.1287
   52DOPE   O22 6602   7.428   3.519   3.366  0.2787  0.5469  0.6178
   52DOPE   C22 6603   7.482   3.757   3.389  0.5593 -0.4987  0.4503
   52DOPE   H2R 6604   7.372   3.773   3.381  0.7408 -0.2599 -2.8883
   52DOPE   H2S 6605   7.493   3.801   3.288 -2.2698  0.0144  0.2711
   52DOPE    C3 6606   7.845   3.472   3.378 -0.3949  0.4997 -0.7436
   52DOPE    HX 6607   7.899   3.527   3.298 -0.6122  0.8293 -0.6652
   52DOPE    HY 6608   7.877   3.366   3.360  0.2736  0.5788 -0.0560
   52DOPE   O31 6609   7.897   3.503   3.508 -0.1050 -0.2147 -0.4176
   52DOPE   C31 6610   7.942   3.629   3.518 -0.5015 -0.2085  0.1305
   52DOPE   O32 6611   7.922   3.718   3.438  0.0537  0.0664  0.0298
   52DOPE   C32 6612   8.016   3.646   3.652 -0.0121  0.2517 -1.1394
   52DOPE   H2X 6613   8.050   3.752   3.647 -2.6845  1.3652  1.3755
   52DOPE   H2Y 6614   7.950   3.627   3.740  2.4496 -0.4376  0.6961
   52DOPE   C23 6615   7.561   3.824   3.504  0.0510  0.4282 -0.7084
   52DOPE   H3R 6616   7.558   3.935   3.499  0.9843  0.4449 -1.3214
   52DOPE   H3S 6617   7.669   3.797   3.496 -0.3219 -1.8408  0.9707
   52DOPE   C24 6618   7.517   3.779   3.639 -0.4367 -0.3632 -0.6551
   52DOPE   H4R 6619   7.528   3.668   3.649 -1.6585 -0.5371 -1.0818
   52DOPE   H4S 6620   7.413   3.815   3.653  0.4183  1.8369  0.4329
   52DOPE   C25 6621   7.602   3.837   3.762 -0.5292 -0.1976  0.7205
   52DOPE   H5R 6622   7.574   3.943   3.781 -1.4381  0.3322 -2.8163
   52DOPE   H5S 6623   7.703   3.844   3.716 -0.7550 -0.8004  0.1170
   52DOPE   C26 6624   7.598   3.736   3.878  0.2496 -0.3055  0.6930
   52DOPE   H6R 6625   7.643   3.640   3.848 -1.2315 -0.8136 -0.0265
   52DOPE   H6S 6626   7.489   3.730   3.902 -0.4521  1.6295 -1.5800
   52DOPE   C27 6627   7.678   3.785   3.996  0.6717  0.1925  1.0025
   52DOPE   H7R 6628   7.675   3.704   4.072  2.5065 -2.7530 -1.7908
   52DOPE   H7S 6629   7.634   3.881   4.028 -2.8811 -0.1230 -2.2436
   52DOPE   C28 6630   7.827   3.826   3.955  0.5412  0.0667 -0.2698
   52DOPE   H8R 6631   7.807   3.901   3.875  1.2897  2.0041  1.2650
   52DOPE   H8S 6632   7.879   3.734   3.922 -1.1826 -1.5236  1.2090
   52DOPE   C29 6633   7.904   3.898   4.063 -0.4103  0.0460 -0.8334
   52DOPE   H9R 6634   7.912   4.007   4.046  1.3581 -0.0678 -0.9220
   52DOPE  C210 6635   7.966   3.850   4.173  0.0120  0.1628 -0.3746
   52DOPE  H10R 6636   8.022   3.930   4.224 -1.3255 -0.1247  1.6467
   52DOPE  C211 6637   8.000   3.710   4.217  0.2603  0.7273 -0.2924
   52DOPE  H11R 6638   8.108   3.696   4.239  0.0845  1.5456  1.2481
   52DOPE  H11S 6639   7.962   3.634   4.145  0.5224  0.2817  0.0353
   52DOPE  C212 6640   7.921   3.680   4.350  0.0625 -0.6918  0.1552
   52DOPE  H12R 6641   7.811   3.696   4.347  0.2019  0.3701  0.4887
   52DOPE  H12S 6642   7.963   3.750   4.425  2.4707 -0.4603 -1.3175
   52DOPE  C213 6643   7.937   3.537   4.395  0.3972 -0.4197 -0.7634
   52DOPE  H13R 6644   8.041   3.501   4.408 -0.3938 -1.8777  2.7337
   52DOPE  H13S 6645   7.900   3.457   4.327  1.5816 -0.4949 -1.3505
   52DOPE  C214 6646   7.883   3.526   4.539 -0.1853 -0.1764  0.3637
   52DOPE  H14R 6647   7.773   3.533   4.532 -0.2080 -0.6845  0.1387
   52DOPE  H14S 6648   7.915   3.616   4.595  1.9037  0.8950 -2.2772
   52DOPE  C215 6649   7.930   3.403   4.608 -1.1221 -0.6916 -0.3035
   52DOPE  H15R 6650   8.041   3.401   4.610 -0.9509 -0.4536 -3.4527
   52DOPE  H15S 6651   7.890   3.317   4.549 -0.2106  0.2316 -2.3519
   52DOPE  C216 6652   7.878   3.401   4.751 -0.2543  0.1541  0.0329
   52DOPE  H16R 6653   7.767   3.400   4.748 -0.3654 -2.1860  1.9114
   52DOPE  H16S 6654   7.901   3.491   4.811  0.2449  0.2840 -0.3527
   52DOPE  C217 6655   7.922   3.275   4.824  0.4666  0.1223 -0.0753
   52DOPE  H17R 6656   7.920   3.287   4.935  0.7974 -0.5006  0.0017
   52DOPE  H17S 6657   8.031   3.255   4.818  0.5694  0.0507  1.5337
   52DOPE  C218 6658   7.838   3.145   4.810  0.3238 -0.5157  0.9310
   52DOPE  H18R 6659   7.852   3.090   4.715 -1.8574  0.9096 -0.2930
   52DOPE  H18S 6660   7.859   3.074   4.893  0.9796  0.6289  1.7798
   52DOPE  H18T 6661   7.730   3.168   4.809  0.5104  0.3905  1.0958
   52DOPE   C33 6662   8.145   3.553   3.674 -0.6241  0.6289  0.4263
   52DOPE   H3X 6663   8.207   3.554   3.582 -0.4099 -1.8751  0.4651
   52DOPE   H3Y 6664   8.103   3.450   3.677 -1.2507  0.6086 -3.6701
   52DOPE   C34 6665   8.224   3.576   3.806 -0.3057  0.1334 -0.1369
   52DOPE   H4X 6666   8.318   3.517   3.810 -0.3117  0.1000 -0.4286
   52DOPE   H4Y 6667   8.237   3.686   3.808 -4.6109  0.8592 -1.6657
   52DOPE   C35 6668   8.144   3.536   3.933  0.1737 -0.3919  0.0866
   52DOPE   H5X 6669   8.036   3.557   3.922 -0.1286 -2.5385 -2.0503
   52DOPE   H5Y 6670   8.181   3.600   4.016  0.0797  0.8103 -0.7667
   52DOPE   C36 6671   8.168   3.389   3.980 -0.3320 -0.5640 -0.8535
   52DOPE   H6X 6672   8.277   3.370   3.977  0.2176  0.9890  3.3944
   52DOPE   H6Y 6673   8.111   3.317   3.916 -1.2724 -0.8067  0.2206
   52DOPE   C37 6674   8.141   3.361   4.126  0.1700  0.2299  0.4067
   52DOPE   H7X 6675   8.206   3.436   4.176 -0.8544  1.1167  0.4319
   52DOPE   H7Y 6676   8.037   3.387   4.154  0.5737  0.1760  2.0299
   52DOPE   C38 6677   8.166   3.219   4.177  0.2618 -0.1961 -0.1556
   52DOPE   H8X 6678   8.268   3.193   4.143  0.2112  0.7350 -1.0761
   52DOPE   H8Y 6679   8.096   3.140   4.141 -0.1975  0.2459 -0.2466
   52DOPE   C39 6680   8.144   3.222   4.329  0.3101  0.9534  0.3056
   52DOPE   H9X 6681   8.041   3.248   4.358  0.3361  2.2773 -0.6795
   52DOPE  C310 6682   8.239   3.209   4.419 -0.1864 -0.3852  0.1855
   52DOPE  H10X 6683   8.216   3.229   4.525 -0.9647  1.8309 -0.3477
   52DOPE  C311 6684   8.380   3.174   4.398 -0.9376  0.8783 -0.2783
   52DOPE  H11X 6685   8.395   3.147   4.291 -0.3771 -1.2895  0.2887
   52DOPE  H11Y 6686   8.456   3.245   4.436  1.3798 -1.7857  0.3931
   52DOPE  C312 6687   8.406   3.043   4.472  0.0357 -0.1838 -0.3055
   52DOPE  H12X 6688   8.322   2.972   4.455  0.5235 -0.7053 -0.5438
   52DOPE  H12Y 6689   8.407   3.071   4.579 -3.1535 -3.0090  0.6652
   52DOPE  C313 6690   8.536   2.966   4.442  0.4675 -0.0029  0.6013
   52DOPE  H13X 6691   8.627   3.021   4.475  1.6598 -0.3864 -1.8649
   52DOPE  H13Y 6692   8.538   2.870   4.499  0.8981 -1.2401 -1.4037
   52DOPE  C314 6693   8.572   2.945   4.294  0.2136 -0.4668 -0.6201
   52DOPE  H14X 6694   8.674   2.900   4.303  1.9427  3.2853  0.4731
   52DOPE  H14Y 6695   8.591   3.045   4.250  2.3672 -0.3471  0.4312
   52DOPE  C315 6696   8.482   2.859   4.199  0.0167 -0.2603 -0.4617
   52DOPE  H15X 6697   8.542   2.835   4.108  2.0563  2.1771  0.1234
   52DOPE  H15Y 6698   8.393   2.915   4.163 -0.2952 -0.3765  0.1249
   52DOPE  C316 6699   8.423   2.729   4.265  0.8128  0.3518  0.1814
   52DOPE  H16X 6700   8.336   2.751   4.331 -0.4918 -2.1566 -0.5491
   52DOPE  H16Y 6701   8.495   2.676   4.331 -0.2136 -0.6352  0.5342
   52DOPE  C317 6702   8.388   2.626   4.158 -1.0016 -0.4225  0.5839
   52DOPE  H17X 6703   8.314   2.680   4.095  0.4293  0.0736 -0.7365
   52DOPE  H17Y 6704   8.477   2.596   4.099 -0.0466  0.1498  1.7025
   52DOPE  C318 6705   8.317   2.505   4.222 -0.3123 -0.5020  0.1782
   52DOPE  H18X 6706   8.267   2.436   4.152  0.1732 -2.3949  1.6104
   52DOPE  H18Y 6707   8.387   2.444   4.283 -0.3368 -1.2461 -0.5380
   52DOPE  H18Z 6708   8.245   2.547   4.296  0.1940  1.8409 -0.5630
   53DOPE     N 6709   4.835   4.848   2.447  0.0219  0.0186 -0.0468
   53DOPE   HN1 6710   4.834   4.848   2.343 -0.9936  1.0532 -0.0554
   53DOPE   HN2 6711   4.776   4.773   2.489  1.1564  0.0715  1.7051
   53DOPE   HN3 6712   4.800   4.942   2.471  1.2706  0.8647 -1.3299
   53DOPE   C12 6713   4.970   4.835   2.508 -0.4091  0.2773 -0.0309
   53DOPE  H12A 6714   4.961   4.863   2.615  0.1906 -1.4870  0.5077
   53DOPE  H12B 6715   5.043   4.908   2.467  0.2823 -1.1963 -1.5290
   53DOPE   C11 6716   5.022   4.696   2.491  0.1348  0.2557 -0.2857
   53DOPE  H11A 6717   5.116   4.697   2.550 -0.1395 -0.6892  0.1949
   53DOPE  H11B 6718   5.045   4.672   2.385 -3.5516 -0.6737 -1.0224
   53DOPE     P 6719   4.988   4.459   2.585 -0.4269  0.1589  0.0076
   53DOPE   O13 6720   5.077   4.415   2.475  0.2572  0.1726  0.3003
   53DOPE   O14 6721   4.875   4.372   2.622  0.4502  0.6845  0.3852
   53DOPE   O11 6722   5.087   4.497   2.703  0.3634 -0.1766  0.1753
   53DOPE   O12 6723   4.934   4.595   2.548 -0.4009 -0.2928  0.0992
   53DOPE    C1 6724   5.145   4.402   2.793  0.6907 -0.5637  0.0470
   53DOPE    HA 6725   5.256   4.408   2.802  0.8342  0.4004 -1.8721
   53DOPE    HB 6726   5.130   4.303   2.745  0.8684 -0.5714  0.0042
   53DOPE    C2 6727   5.073   4.404   2.925  0.0337  0.2864 -1.0232
   53DOPE    HS 6728   4.967   4.432   2.910 -0.5518 -0.2787  1.5757
   53DOPE   O21 6729   5.139   4.494   3.018 -0.0400  0.0191 -0.2920
   53DOPE   C21 6730   5.097   4.618   3.026 -0.2220 -0.3794  0.4781
   53DOPE   O22 6731   4.998   4.666   2.975  0.1506  0.2397  0.6542
   53DOPE   C22 6732   5.183   4.698   3.126  0.0928  1.1228  0.3962
   53DOPE   H2R 6733   5.269   4.734   3.064  0.1442 -0.2419 -0.3760
   53DOPE   H2S 6734   5.212   4.625   3.205 -1.3882  0.2897  0.2011
   53DOPE    C3 6735   5.077   4.256   2.982 -0.6882  0.3778  0.3235
   53DOPE    HX 6736   5.182   4.221   2.970 -0.2109  1.5305  0.9733
   53DOPE    HY 6737   5.009   4.194   2.919 -0.7952  2.6078 -1.8987
   53DOPE   O31 6738   5.047   4.250   3.125 -0.2937 -0.9157  0.0678
   53DOPE   C31 6739   4.914   4.263   3.149 -0.1807 -0.2737  0.0462
   53DOPE   O32 6740   4.827   4.257   3.066 -0.0787  0.4782  0.2648
   53DOPE   C32 6741   4.896   4.290   3.297  0.0048  0.1318 -0.2107
   53DOPE   H2X 6742   4.788   4.309   3.314 -0.3655 -1.9329  0.0455
   53DOPE   H2Y 6743   4.913   4.191   3.345 -3.4105 -0.3139  0.3638
   53DOPE   C23 6744   5.098   4.817   3.185 -0.2475 -0.6392 -0.7394
   53DOPE   H3R 6745   5.043   4.879   3.112  2.0735  0.2757 -1.8209
   53DOPE   H3S 6746   5.184   4.879   3.220 -0.7292 -0.4447  0.1461
   53DOPE   C24 6747   5.019   4.784   3.308  0.0548 -0.4747 -0.0514
   53DOPE   H4R 6748   5.093   4.745   3.380  0.4281  4.0454  2.4347
   53DOPE   H4S 6749   4.940   4.710   3.284  2.0052 -2.8355  0.4688
   53DOPE   C25 6750   4.935   4.905   3.375  0.1919  0.6526  0.4147
   53DOPE   H5R 6751   4.871   4.865   3.457  1.8372  0.5734  1.7081
   53DOPE   H5S 6752   4.863   4.949   3.303 -1.5537 -1.2224  0.9057
   53DOPE   C26 6753   5.023   5.014   3.423  0.3632  0.1131 -0.6626
   53DOPE   H6R 6754   5.075   5.053   3.333  0.7138  0.4246 -0.3254
   53DOPE   H6S 6755   5.108   4.986   3.489  0.6258 -0.2472 -1.1482
   53DOPE   C27 6756   4.953   5.136   3.496  0.3974  0.2671 -0.0850
   53DOPE   H7R 6757   4.855   5.156   3.448 -0.0584 -1.3405  0.1055
   53DOPE   H7S 6758   5.009   5.229   3.474 -1.3539  1.1510 -1.0713
   53DOPE   C28 6759   4.927   5.102   3.648  0.3315 -0.3964  0.6292
   53DOPE   H8R 6760   4.836   5.042   3.669  0.1732  0.0956  1.3728
   53DOPE   H8S 6761   4.885   5.203   3.665 -1.0678 -0.6407 -1.0628
   53DOPE   C29 6762   5.048   5.072   3.732  0.4790  0.1211  0.1662
   53DOPE   H9R 6763   5.078   4.968   3.746 -0.4618 -0.1143  0.5123
   53DOPE  C210 6764   5.128   5.170   3.791  0.1351  0.3966 -0.4192
   53DOPE  H10R 6765   5.214   5.143   3.853 -2.2118  0.3606  3.1214
   53DOPE  C211 6766   5.104   5.320   3.793  0.0989 -0.1177 -0.0321
   53DOPE  H11R 6767   5.086   5.360   3.691  1.2287 -0.8280 -0.5384
   53DOPE  H11S 6768   5.196   5.376   3.823  0.3850 -0.6785  0.1681
   53DOPE  C212 6769   4.992   5.370   3.885  0.2633 -0.8374  0.5887
   53DOPE  H12R 6770   5.024   5.364   3.991 -1.8646  0.2070  1.3500
   53DOPE  H12S 6771   4.904   5.303   3.872 -1.2593  0.8272  1.9069
   53DOPE  C213 6772   4.949   5.515   3.862 -0.1013  0.0260  0.6077
   53DOPE  H13R 6773   4.907   5.520   3.759  0.4973 -1.2079  0.2796
   53DOPE  H13S 6774   5.036   5.583   3.860  0.1783 -0.3271  0.4415
   53DOPE  C214 6775   4.854   5.573   3.972  0.4484 -0.1425 -0.1861
   53DOPE  H14R 6776   4.777   5.493   3.985 -0.1148 -0.0867 -2.5444
   53DOPE  H14S 6777   4.802   5.664   3.934 -2.0001 -1.0606  0.7542
   53DOPE  C215 6778   4.930   5.602   4.111  0.4059  0.3922 -0.1014
   53DOPE  H15R 6779   4.976   5.508   4.146 -1.7095 -0.7858 -0.3034
   53DOPE  H15S 6780   4.849   5.622   4.184  1.7082  0.5080  1.3600
   53DOPE  C216 6781   5.018   5.723   4.112  0.1892  0.2574  0.0794
   53DOPE  H16R 6782   4.970   5.802   4.052  0.1550 -0.0237 -0.2652
   53DOPE  H16S 6783   5.110   5.705   4.052 -0.8042 -1.4267 -1.0191
   53DOPE  C217 6784   5.053   5.780   4.248 -0.1656  0.1965  0.6887
   53DOPE  H17R 6785   5.113   5.704   4.302 -0.7583  0.6485  2.0379
   53DOPE  H17S 6786   4.962   5.783   4.311 -1.0405 -1.7951 -0.4027
   53DOPE  C218 6787   5.129   5.912   4.245 -1.5128 -0.3889 -0.1257
   53DOPE  H18R 6788   5.059   5.998   4.229 -1.7209 -0.6235 -0.4957
   53DOPE  H18S 6789   5.200   5.906   4.160 -0.0844  1.6564  0.8341
   53DOPE  H18T 6790   5.196   5.930   4.332 -0.3545  1.3858 -1.3185
   53DOPE   C33 6791   4.986   4.390   3.359  0.1035 -0.0705  0.2644
   53DOPE   H3X 6792   4.958   4.488   3.313 -0.6307  0.4376  1.7208
   53DOPE   H3Y 6793   5.087   4.351   3.333 -1.1755 -2.4056 -1.6456
   53DOPE   C34 6794   4.966   4.412   3.510 -0.2043 -0.4262 -0.2293
   53DOPE   H4X 6795   4.931   4.312   3.541 -3.4663 -1.0232 -4.8436
   53DOPE   H4Y 6796   5.064   4.443   3.552 -1.0742 -1.0644  2.4382
   53DOPE   C35 6797   4.864   4.517   3.547  0.0221 -0.3946  0.0360
   53DOPE   H5X 6798   4.764   4.486   3.510 -1.1723  1.1728  1.7853
   53DOPE   H5Y 6799   4.880   4.612   3.491  2.1232 -0.7049  0.0479
   53DOPE   C36 6800   4.857   4.540   3.696 -0.2296  0.2095 -0.0475
   53DOPE   H6X 6801   4.950   4.584   3.738  0.7226 -3.1027  1.6796
   53DOPE   H6Y 6802   4.851   4.437   3.737 -2.0554  0.3943  0.2389
   53DOPE   C37 6803   4.732   4.611   3.757  0.8287 -0.1020 -0.3783
   53DOPE   H7X 6804   4.643   4.569   3.705  0.8202 -0.6324  0.0459
   53DOPE   H7Y 6805   4.721   4.587   3.865 -0.5164 -1.2176 -0.7166
   53DOPE   C38 6806   4.734   4.764   3.743  0.0864 -0.5515  0.0200
   53DOPE   H8X 6807   4.802   4.793   3.659  1.3735  2.3076  1.8948
   53DOPE   H8Y 6808   4.793   4.810   3.825 -0.2955 -1.3254  0.7349
   53DOPE   C39 6809   4.596   4.829   3.736 -0.5093 -0.3811 -0.2716
   53DOPE   H9X 6810   4.539   4.803   3.645  1.0919 -0.7466 -1.2200
   53DOPE  C310 6811   4.540   4.915   3.831 -0.1647  0.2262 -0.6580
   53DOPE  H10X 6812   4.435   4.946   3.819 -0.5253  1.1553  3.4267
   53DOPE  C311 6813   4.603   4.977   3.956  0.1983 -0.2074  0.4323
   53DOPE  H11X 6814   4.547   4.953   4.050 -1.2509  0.7179 -0.1599
   53DOPE  H11Y 6815   4.708   4.942   3.968  0.2281  0.3878  2.3229
   53DOPE  C312 6816   4.610   5.127   3.958 -0.1340 -0.4029 -0.2615
   53DOPE  H12X 6817   4.516   5.169   3.919  0.8124  0.1448 -2.0514
   53DOPE  H12Y 6818   4.701   5.156   3.901 -0.8178 -1.0697 -1.7153
   53DOPE  C313 6819   4.626   5.177   4.101 -0.4097 -0.2670 -0.4400
   53DOPE  H13X 6820   4.614   5.287   4.097  2.6385  0.3595  2.7130
   53DOPE  H13Y 6821   4.544   5.133   4.163  0.6091 -0.9062  0.5108
   53DOPE  C314 6822   4.766   5.154   4.159 -0.1530  0.4208 -0.2906
   53DOPE  H14X 6823   4.834   5.206   4.089  1.3174 -1.2009 -0.1255
   53DOPE  H14Y 6824   4.811   5.052   4.154 -1.3646 -0.0951 -1.3090
   53DOPE  C315 6825   4.791   5.230   4.290  0.0054 -0.3539  0.0880
   53DOPE  H15X 6826   4.738   5.190   4.379 -0.3328  1.8627  0.9355
   53DOPE  H15Y 6827   4.748   5.332   4.285 -1.7114 -1.0763 -0.4866
   53DOPE  C316 6828   4.941   5.257   4.332 -0.3001 -0.2150 -0.7747
   53DOPE  H16X 6829   4.998   5.317   4.258 -0.3166  0.3313 -0.3464
   53DOPE  H16Y 6830   4.980   5.156   4.357 -0.5570  0.1320  1.1980
   53DOPE  C317 6831   4.952   5.324   4.470  0.0002  0.2295  0.1017
   53DOPE  H17X 6832   4.907   5.270   4.556  2.0507 -2.4642 -0.3532
   53DOPE  H17Y 6833   5.060   5.312   4.495 -0.0626 -0.8362 -0.0996
   53DOPE  C318 6834   4.922   5.475   4.475 -0.4532  0.3553  0.8083
   53DOPE  H18X 6835   4.825   5.497   4.425 -1.2477 -1.8601  1.2376
   53DOPE  H18Y 6836   4.950   5.516   4.574 -0.1504 -0.0682  0.9006
   53DOPE  H18Z 6837   5.000   5.519   4.409  2.0546 -1.9524  2.0055
   54DOPE     N 6838   7.551   2.697   3.008  0.0908  0.1875 -0.4044
   54DOPE   HN1 6839   7.636   2.638   2.999 -0.6803 -1.3184  1.5444
   54DOPE   HN2 6840   7.463   2.645   2.987 -0.4739  1.2409 -0.7525
   54DOPE   HN3 6841   7.561   2.785   2.953  2.5461  0.2103 -0.0305
   54DOPE   C12 6842   7.537   2.724   3.157  0.1123 -0.0358 -0.5640
   54DOPE  H12A 6843   7.615   2.798   3.185  0.0279  1.1032 -3.0427
   54DOPE  H12B 6844   7.550   2.627   3.210 -1.0715 -0.2288 -0.5944
   54DOPE   C11 6845   7.395   2.794   3.180 -0.2626  0.2560  0.4637
   54DOPE  H11A 6846   7.367   2.797   3.288  0.5622 -2.0310  0.7866
   54DOPE  H11B 6847   7.308   2.741   3.135  0.7464 -0.2644 -0.9175
   54DOPE     P 6848   7.453   3.050   3.185 -0.1848 -0.1759 -0.2693
   54DOPE   O13 6849   7.375   3.156   3.128 -0.3492  0.3667  0.0032
   54DOPE   O14 6850   7.599   3.048   3.162  0.4040 -0.0288  0.2223
   54DOPE   O11 6851   7.418   3.036   3.342  0.5181 -0.3286 -0.5583
   54DOPE   O12 6852   7.401   2.917   3.122 -0.0397 -0.4072 -0.4244
   54DOPE    C1 6853   7.429   3.137   3.447  0.3053 -0.0365  0.1298
   54DOPE    HA 6854   7.346   3.210   3.444  0.8424  0.5615 -0.9553
   54DOPE    HB 6855   7.522   3.198   3.440 -0.1787  0.6167 -0.8727
   54DOPE    C2 6856   7.427   3.088   3.591  0.4150  0.4129 -0.0132
   54DOPE    HS 6857   7.433   3.175   3.660  2.6955 -0.4239  0.9618
   54DOPE   O21 6858   7.540   2.996   3.624  0.5982 -0.4289  0.1086
   54DOPE   C21 6859   7.656   3.063   3.635 -0.1221  0.0697 -0.6955
   54DOPE   O22 6860   7.675   3.180   3.611 -0.1625 -0.1038 -0.4100
   54DOPE   C22 6861   7.763   2.964   3.692 -0.6778  0.1559  0.1757
   54DOPE   H2R 6862   7.788   2.898   3.606 -1.7645  0.0093 -0.0411
   54DOPE   H2S 6863   7.718   2.907   3.777  0.1901 -0.0037  0.5336
   54DOPE    C3 6864   7.300   3.011   3.628 -0.4185  0.2879  0.6173
   54DOPE    HX 6865   7.309   2.982   3.735 -2.4217 -0.2126  0.6812
   54DOPE    HY 6866   7.294   2.930   3.552 -2.1210  0.9787 -0.0289
   54DOPE   O31 6867   7.192   3.103   3.608  0.3689 -0.2151 -0.4318
   54DOPE   C31 6868   7.071   3.058   3.653 -0.0382 -0.2435 -0.2906
   54DOPE   O32 6869   7.054   2.951   3.713 -0.0340  0.0370 -0.2133
   54DOPE   C32 6870   6.953   3.152   3.615  0.1935 -0.2890 -0.3118
   54DOPE   H2X 6871   6.998   3.253   3.624  1.2308 -0.5537 -2.2310
   54DOPE   H2Y 6872   6.937   3.141   3.506  0.8778 -2.1440 -0.2596
   54DOPE   C23 6873   7.887   3.034   3.746 -0.4027  0.1765 -0.1813
   54DOPE   H3R 6874   7.882   3.058   3.854 -0.4481  0.2888 -0.2070
   54DOPE   H3S 6875   7.921   3.117   3.680  0.6245 -1.2526 -1.5211
   54DOPE   C24 6876   7.994   2.932   3.753 -0.6893  0.1119 -0.5238
   54DOPE   H4R 6877   8.042   2.911   3.655 -0.5033  3.2083 -1.2192
   54DOPE   H4S 6878   7.949   2.837   3.790 -0.9204 -0.1265 -1.3938
   54DOPE   C25 6879   8.116   2.965   3.848  0.6076  0.4958  0.1875
   54DOPE   H5R 6880   8.088   2.921   3.947 -2.1509 -1.6354 -1.4002
   54DOPE   H5S 6881   8.116   3.076   3.844 -1.8749  0.5003 -1.4748
   54DOPE   C26 6882   8.246   2.898   3.793  0.1132  0.3027 -0.0965
   54DOPE   H6R 6883   8.254   2.923   3.685 -1.4052  1.8541  0.1041
   54DOPE   H6S 6884   8.226   2.789   3.798  1.2236  0.1296  1.0169
   54DOPE   C27 6885   8.370   2.917   3.878  0.3848 -0.4045 -0.2358
   54DOPE   H7R 6886   8.462   2.864   3.845  0.9449 -0.1959  0.9266
   54DOPE   H7S 6887   8.349   2.860   3.971  0.0894  0.4982  0.2515
   54DOPE   C28 6888   8.407   3.066   3.896  0.4362 -0.2227 -0.0428
   54DOPE   H8R 6889   8.485   3.072   3.975 -0.7179  0.0915  1.1190
   54DOPE   H8S 6890   8.314   3.116   3.930 -0.0537 -0.4528 -1.0273
   54DOPE   C29 6891   8.452   3.138   3.770  0.3936 -0.5405 -0.2055
   54DOPE   H9R 6892   8.370   3.149   3.697  1.3224  0.6855 -1.1092
   54DOPE  C210 6893   8.571   3.184   3.742 -0.4830  0.1667 -0.7212
   54DOPE  H10R 6894   8.576   3.244   3.650 -2.2434  1.9580  0.2626
   54DOPE  C211 6895   8.694   3.173   3.825 -0.3301 -0.1772 -0.5416
   54DOPE  H11R 6896   8.783   3.160   3.760 -1.0651  3.0678 -2.4536
   54DOPE  H11S 6897   8.684   3.088   3.896  0.7714 -0.1539 -0.3466
   54DOPE  C212 6898   8.727   3.301   3.919 -0.1084  0.6209 -0.5475
   54DOPE  H12R 6899   8.631   3.338   3.961 -0.5947  0.4822 -1.4926
   54DOPE  H12S 6900   8.759   3.376   3.843 -1.7578  1.8455 -0.1127
   54DOPE  C213 6901   8.834   3.266   4.022  0.2431 -0.1551 -0.7850
   54DOPE  H13R 6902   8.922   3.232   3.964 -0.0424 -2.1380 -0.1363
   54DOPE  H13S 6903   8.801   3.187   4.093 -0.1254  1.0053  0.3609
   54DOPE  C214 6904   8.879   3.390   4.105 -0.0205 -0.5933 -0.7662
   54DOPE  H14R 6905   8.880   3.486   4.050 -0.7435  0.3433  0.7668
   54DOPE  H14S 6906   8.980   3.355   4.136 -0.9220 -0.6003  2.4956
   54DOPE  C215 6907   8.793   3.429   4.229 -0.0389  0.4052 -0.1944
   54DOPE  H15R 6908   8.807   3.352   4.308  3.4891  1.4731  0.3683
   54DOPE  H15S 6909   8.686   3.437   4.197  0.1741  0.0227 -1.0390
   54DOPE  C216 6910   8.828   3.561   4.291  0.1707 -0.4670  0.2301
   54DOPE  H16R 6911   8.782   3.647   4.236 -0.9634 -0.5031  1.0727
   54DOPE  H16S 6912   8.938   3.577   4.288  0.5639 -2.9307 -0.0633
   54DOPE  C217 6913   8.784   3.559   4.436  0.0927 -0.4506 -0.2685
   54DOPE  H17R 6914   8.821   3.471   4.493 -1.6263 -0.7823  0.4075
   54DOPE  H17S 6915   8.673   3.554   4.437  0.1264 -2.4044 -1.1841
   54DOPE  C218 6916   8.833   3.684   4.515  0.2733  0.9930 -0.2733
   54DOPE  H18R 6917   8.808   3.678   4.623  0.6046  0.7482 -0.2128
   54DOPE  H18S 6918   8.778   3.768   4.467 -2.7005 -0.0066  1.0853
   54DOPE  H18T 6919   8.944   3.687   4.515  0.3085 -0.0675  0.2430
   54DOPE   C33 6920   6.825   3.128   3.699  0.1908 -0.1981  0.0083
   54DOPE   H3X 6921   6.802   3.020   3.696  2.9332 -0.9694  2.3619
   54DOPE   H3Y 6922   6.739   3.183   3.654  0.0982 -1.2992 -1.2057
   54DOPE   C34 6923   6.851   3.167   3.845  0.1682  0.3547  0.1246
   54DOPE   H4X 6924   6.931   3.098   3.878 -0.9132 -3.0405 -3.5522
   54DOPE   H4Y 6925   6.870   3.277   3.839 -0.0343  0.4692  1.3357
   54DOPE   C35 6926   6.725   3.141   3.926  0.5273  0.0756  0.0254
   54DOPE   H5X 6927   6.689   3.036   3.926 -1.1145  0.6085  0.8239
   54DOPE   H5Y 6928   6.640   3.202   3.887 -1.3478 -1.5982  1.3023
   54DOPE   C36 6929   6.763   3.186   4.070 -0.1537 -0.0629  0.3477
   54DOPE   H6X 6930   6.784   3.294   4.053  3.1722 -0.8961 -1.8948
   54DOPE   H6Y 6931   6.861   3.145   4.103 -1.7017 -3.6849  0.9612
   54DOPE   C37 6932   6.644   3.176   4.171  0.5898  0.2386  0.3433
   54DOPE   H7X 6933   6.562   3.243   4.138  0.0334  0.4355  2.0332
   54DOPE   H7Y 6934   6.599   3.075   4.177 -0.9700  0.7139 -2.0585
   54DOPE   C38 6935   6.679   3.224   4.308 -0.2153  0.2248 -0.0964
   54DOPE   H8X 6936   6.771   3.171   4.338 -1.8432 -2.2597  0.8245
   54DOPE   H8Y 6937   6.594   3.199   4.375 -0.7540 -1.8215 -1.4351
   54DOPE   C39 6938   6.715   3.372   4.315 -0.0678 -0.5953  0.7672
   54DOPE   H9X 6939   6.806   3.404   4.260 -2.1717  2.6781 -1.1748
   54DOPE  C310 6940   6.644   3.473   4.381 -0.4828  0.2114  0.2431
   54DOPE  H10X 6941   6.678   3.577   4.381 -2.3674  0.8972  2.0608
   54DOPE  C311 6942   6.515   3.453   4.467  0.3815  0.0174 -0.4982
   54DOPE  H11X 6943   6.443   3.532   4.437 -0.3471 -0.4920 -0.1287
   54DOPE  H11Y 6944   6.471   3.351   4.458  0.2775 -0.0761  0.8923
   54DOPE  C312 6945   6.565   3.472   4.608 -0.2093  0.4411 -0.1855
   54DOPE  H12X 6946   6.607   3.574   4.623 -0.3111  1.0381 -3.3422
   54DOPE  H12Y 6947   6.641   3.398   4.640 -0.7750  0.0048  0.1709
   54DOPE  C313 6948   6.451   3.471   4.714  0.3624  0.8219 -0.2684
   54DOPE  H13X 6949   6.391   3.561   4.688 -1.7334 -0.3993  0.0859
   54DOPE  H13Y 6950   6.379   3.388   4.693  1.3891 -0.8988  2.4863
   54DOPE  C314 6951   6.488   3.452   4.860 -0.4057  0.7665  0.3815
   54DOPE  H14X 6952   6.535   3.353   4.879 -1.1130  0.1450 -0.9355
   54DOPE  H14Y 6953   6.394   3.468   4.917 -1.2011  0.9460 -0.9239
   54DOPE  C315 6954   6.590   3.548   4.907  0.2501 -0.3710 -0.2950
   54DOPE  H15X 6955   6.548   3.651   4.904 -1.0207 -0.8939 -2.5639
   54DOPE  H15Y 6956   6.671   3.556   4.832 -0.4270  1.1710 -0.9119
   54DOPE  C316 6957   6.656   3.499   5.039  0.2876  0.2830  0.7030
   54DOPE  H16X 6958   6.705   3.587   5.086 -1.5942  3.3053 -2.5425
   54DOPE  H16Y 6959   6.724   3.416   5.011 -2.0878 -0.7408 -2.6098
   54DOPE  C317 6960   6.557   3.438   5.145 -0.1397 -0.9042  0.4501
   54DOPE  H17X 6961   6.476   3.509   5.173  2.0738  0.8302  2.8546
   54DOPE  H17Y 6962   6.524   3.346   5.093  0.0636 -1.0185  0.5255
   54DOPE  C318 6963   6.614   3.386   5.274 -0.5839 -1.0528  0.0786
   54DOPE  H18X 6964   6.697   3.313   5.261  0.5203  0.5498 -2.5829
   54DOPE  H18Y 6965   6.653   3.471   5.335 -1.2245 -1.6156  1.3217
   54DOPE  H18Z 6966   6.542   3.330   5.337 -1.4809 -0.6894 -0.6036
   55DOPE     N 6967   0.841   6.498   2.795 -0.0216 -0.4073 -0.2550
   55DOPE   HN1 6968   0.744   6.488   2.830  0.3049 -0.5341  0.6160
   55DOPE   HN2 6969   0.833   6.510   2.691 -0.1029  3.2059  0.0248
   55DOPE   HN3 6970   0.883   6.404   2.810 -1.1729 -0.9513 -0.3289
   55DOPE   C12 6971   0.908   6.606   2.870  0.3594 -0.2707 -1.5873
   55DOPE  H12A 6972   0.902   6.559   2.971 -4.2380  0.3051 -1.3748
   55DOPE  H12B 6973   0.834   6.690   2.875 -0.4429 -1.0288  0.5494
   55DOPE   C11 6974   1.049   6.643   2.825  0.2848 -0.0942 -0.6990
   55DOPE  H11A 6975   1.055   6.746   2.866 -3.1462  0.1213 -0.4363
   55DOPE  H11B 6976   1.051   6.648   2.714  0.0305 -0.5391 -0.7260
   55DOPE     P 6977   1.290   6.603   2.865 -0.8336 -0.0765 -0.1196
   55DOPE   O13 6978   1.305   6.735   2.929 -0.1564  0.1458  0.4141
   55DOPE   O14 6979   1.325   6.582   2.724 -0.0070  0.0220 -0.2906
   55DOPE   O11 6980   1.376   6.499   2.947 -0.0066  0.6520 -0.2209
   55DOPE   O12 6981   1.147   6.550   2.882  0.3741 -0.2524 -0.2455
   55DOPE    C1 6982   1.320   6.377   2.995 -0.1332 -0.6270 -0.2359
   55DOPE    HA 6983   1.400   6.301   3.001  1.1037  0.6625  0.2274
   55DOPE    HB 6984   1.241   6.343   2.925  0.0510  0.6650 -1.1230
   55DOPE    C2 6985   1.249   6.400   3.135  0.5987 -0.5853 -0.4071
   55DOPE    HS 6986   1.166   6.473   3.120  1.8944  0.5479 -2.4102
   55DOPE   O21 6987   1.348   6.443   3.229 -0.3179  0.0222  0.4637
   55DOPE   C21 6988   1.360   6.569   3.247 -0.1730 -0.3851  0.5353
   55DOPE   O22 6989   1.277   6.654   3.219 -0.3790 -0.3402  0.5092
   55DOPE   C22 6990   1.490   6.603   3.326 -0.2187  0.1111  0.5757
   55DOPE   H2R 6991   1.566   6.606   3.245  0.6619  2.1186  1.4326
   55DOPE   H2S 6992   1.520   6.516   3.389 -0.1436 -0.6758 -0.5072
   55DOPE    C3 6993   1.178   6.269   3.177 -0.5815 -0.0015  0.9789
   55DOPE    HX 6994   1.250   6.186   3.159 -0.1861  0.1936  1.6442
   55DOPE    HY 6995   1.099   6.256   3.100 -1.3183 -2.9872  2.0816
   55DOPE   O31 6996   1.134   6.262   3.316 -0.1857 -0.1659  0.3616
   55DOPE   C31 6997   1.010   6.305   3.341 -0.0596  0.1885 -0.1436
   55DOPE   O32 6998   0.941   6.365   3.262 -0.0355  0.0632 -0.0373
   55DOPE   C32 6999   0.972   6.273   3.482 -0.1378 -0.1430  0.4816
   55DOPE   H2X 7000   0.863   6.250   3.486  0.0750 -1.0947  1.1225
   55DOPE   H2Y 7001   1.031   6.186   3.518  0.5999  0.2954  0.3537
   55DOPE   C23 7002   1.496   6.743   3.385  0.1491 -0.2795 -0.2329
   55DOPE   H3R 7003   1.471   6.819   3.308 -1.9155  0.3484  0.9763
   55DOPE   H3S 7004   1.595   6.761   3.433 -1.3773  2.5236  2.2119
   55DOPE   C24 7005   1.388   6.760   3.493 -0.5425  0.3744 -0.5656
   55DOPE   H4R 7006   1.293   6.721   3.453 -0.9812  1.7501 -0.9154
   55DOPE   H4S 7007   1.365   6.865   3.519  0.3586  0.2936  0.6777
   55DOPE   C25 7008   1.417   6.676   3.617 -0.0407 -0.2627 -0.6298
   55DOPE   H5R 7009   1.515   6.704   3.661 -0.4887 -0.5435  0.6101
   55DOPE   H5S 7010   1.404   6.567   3.598 -1.8303 -0.3150  0.6691
   55DOPE   C26 7011   1.302   6.700   3.714 -0.1660 -0.3399 -0.2106
   55DOPE   H6R 7012   1.209   6.642   3.700 -0.0825 -0.5643  0.1440
   55DOPE   H6S 7013   1.273   6.807   3.721 -0.0849 -0.3822  1.2155
   55DOPE   C27 7014   1.336   6.648   3.854  0.5339 -0.6749  0.4529
   55DOPE   H7R 7015   1.421   6.704   3.899  0.0096 -0.1086  0.7540
   55DOPE   H7S 7016   1.364   6.542   3.834 -0.7915 -1.0732  0.6181
   55DOPE   C28 7017   1.211   6.634   3.943  0.4695  0.5358 -0.2356
   55DOPE   H8R 7018   1.242   6.577   4.033 -0.4423  1.9452  1.0227
   55DOPE   H8S 7019   1.142   6.560   3.897 -0.7777  0.9173  0.9604
   55DOPE   C29 7020   1.144   6.765   3.966  0.9342 -0.2834  0.4058
   55DOPE   H9R 7021   1.202   6.858   3.959  2.6658 -1.3740 -0.2215
   55DOPE  C210 7022   1.009   6.776   3.980  0.7994  0.5555  0.0646
   55DOPE  H10R 7023   0.967   6.872   4.013 -0.3441 -0.8935  3.1592
   55DOPE  C211 7024   0.911   6.657   3.993  0.3679 -0.2939 -0.4717
   55DOPE  H11R 7025   0.961   6.567   4.035  0.5087 -0.4512 -0.9569
   55DOPE  H11S 7026   0.861   6.654   3.894 -0.9658  0.5784  0.1437
   55DOPE  C212 7027   0.788   6.690   4.087  0.0600 -0.3063  0.3555
   55DOPE  H12R 7028   0.719   6.603   4.082  1.0007 -1.0777  0.3007
   55DOPE  H12S 7029   0.738   6.779   4.044  2.2742 -0.4588 -2.9347
   55DOPE  C213 7030   0.826   6.689   4.238  0.2247 -0.3167  0.1145
   55DOPE  H13R 7031   0.921   6.746   4.245  1.0359 -1.5856 -0.1448
   55DOPE  H13S 7032   0.846   6.580   4.245  1.9144 -0.1526 -1.5895
   55DOPE  C214 7033   0.721   6.733   4.348 -0.1710 -0.2737 -0.1138
   55DOPE  H14R 7034   0.726   6.844   4.360  0.0655 -0.0608 -1.9848
   55DOPE  H14S 7035   0.751   6.687   4.445 -2.7593 -0.2003  0.7870
   55DOPE  C215 7036   0.580   6.691   4.315  0.0938 -0.2051 -0.1454
   55DOPE  H15R 7037   0.547   6.593   4.356  1.8234  0.5083  3.3195
   55DOPE  H15S 7038   0.571   6.672   4.206 -3.7548  0.5196 -0.0796
   55DOPE  C216 7039   0.475   6.802   4.350  0.1484  0.1649  0.5472
   55DOPE  H16R 7040   0.480   6.820   4.459  0.5699 -0.4084  0.6256
   55DOPE  H16S 7041   0.369   6.781   4.323 -0.3388  2.9473 -0.0664
   55DOPE  C217 7042   0.497   6.941   4.285 -0.1745  0.7845 -0.4518
   55DOPE  H17R 7043   0.564   6.929   4.197 -2.7534  0.8793 -2.5906
   55DOPE  H17S 7044   0.539   7.015   4.356 -2.0409  0.8642  0.6312
   55DOPE  C218 7045   0.369   7.006   4.236  0.2550  0.6030 -0.2627
   55DOPE  H18R 7046   0.293   6.995   4.316  1.1418 -1.5545  0.3296
   55DOPE  H18S 7047   0.320   6.952   4.152  0.0889  0.3535 -0.0081
   55DOPE  H18T 7048   0.395   7.111   4.208  0.4881  0.3546 -0.9924
   55DOPE   C33 7049   0.994   6.402   3.570 -0.4809  0.0355 -0.3838
   55DOPE   H3X 7050   0.912   6.473   3.549  0.5159  1.1746 -0.5341
   55DOPE   H3Y 7051   1.093   6.451   3.557  0.3435 -1.7048 -1.0211
   55DOPE   C34 7052   0.983   6.369   3.722 -0.3219 -1.0386  0.0528
   55DOPE   H4X 7053   1.082   6.327   3.749  0.9264  0.9643 -1.1895
   55DOPE   H4Y 7054   0.976   6.464   3.778  1.1778  0.0762 -1.5708
   55DOPE   C35 7055   0.873   6.269   3.752  0.0114 -0.5235  0.2347
   55DOPE   H5X 7056   0.903   6.170   3.711  2.4811 -0.1889  1.0615
   55DOPE   H5Y 7057   0.780   6.304   3.703 -1.2641 -2.4336  1.1770
   55DOPE   C36 7058   0.844   6.246   3.900  0.3195 -0.1831  0.6602
   55DOPE   H6X 7059   0.817   6.348   3.935 -0.9241 -0.2407 -0.0581
   55DOPE   H6Y 7060   0.939   6.210   3.945  3.0270  0.8559 -3.5282
   55DOPE   C37 7061   0.733   6.145   3.937 -0.5746 -0.0372  1.0265
   55DOPE   H7X 7062   0.640   6.167   3.881  0.4937  0.5568 -0.5970
   55DOPE   H7Y 7063   0.764   6.044   3.902  0.6228  0.0147  1.8780
   55DOPE   C38 7064   0.697   6.139   4.089  0.3387  0.2244 -0.0567
   55DOPE   H8X 7065   0.791   6.116   4.143  0.9961  0.0786 -1.2265
   55DOPE   H8Y 7066   0.632   6.050   4.097  1.1337 -0.4227 -0.6456
   55DOPE   C39 7067   0.611   6.260   4.136 -0.5274 -0.7270  0.2650
   55DOPE   H9X 7068   0.525   6.285   4.073 -0.2704 -0.9294 -0.1644
   55DOPE  C310 7069   0.631   6.327   4.252  0.7154 -0.2361 -0.3589
   55DOPE  H10X 7070   0.561   6.410   4.271 -0.0372 -0.5442 -1.6707
   55DOPE  C311 7071   0.744   6.309   4.351 -0.3409 -0.6427  0.3944
   55DOPE  H11X 7072   0.793   6.211   4.336  0.2181  0.0691 -3.3363
   55DOPE  H11Y 7073   0.829   6.379   4.342 -0.5020 -0.7164 -2.3773
   55DOPE  C312 7074   0.695   6.314   4.498 -0.6730 -0.6187 -0.2052
   55DOPE  H12X 7075   0.591   6.275   4.501 -1.0136  0.2853  0.1428
   55DOPE  H12Y 7076   0.686   6.422   4.523  1.0290 -0.3427 -0.6481
   55DOPE  C313 7077   0.787   6.254   4.607 -0.3738 -0.5733 -0.0954
   55DOPE  H13X 7078   0.782   6.145   4.587  3.1534 -0.3973 -2.9150
   55DOPE  H13Y 7079   0.891   6.293   4.610 -1.7861  3.9145  4.3052
   55DOPE  C314 7080   0.725   6.269   4.746 -0.3525  0.5352 -0.3597
   55DOPE  H14X 7081   0.697   6.375   4.762 -0.1051  0.6529 -0.7140
   55DOPE  H14Y 7082   0.789   6.222   4.824 -2.0135 -3.8271 -1.3147
   55DOPE  C315 7083   0.589   6.199   4.769  0.4230 -0.4344  0.4870
   55DOPE  H15X 7084   0.595   6.092   4.739 -1.8371 -0.2894 -0.6772
   55DOPE  H15Y 7085   0.513   6.242   4.700  0.6390  0.0169  0.5288
   55DOPE  C316 7086   0.543   6.204   4.912 -0.5470 -0.9841 -0.5456
   55DOPE  H16X 7087   0.514   6.308   4.938  0.2789 -1.1559  1.2290
   55DOPE  H16Y 7088   0.631   6.177   4.974 -1.2481 -0.3236  0.7801
   55DOPE  C317 7089   0.431   6.101   4.943  0.3053  1.1085  0.5383
   55DOPE  H17X 7090   0.352   6.123   4.868  0.2240 -0.7333  0.0237
   55DOPE  H17Y 7091   0.459   5.994   4.933 -2.8331 -0.0093  2.0274
   55DOPE  C318 7092   0.375   6.122   5.081  0.8823  0.4880  0.4160
   55DOPE  H18X 7093   0.354   6.227   5.112  1.7650  0.5986  0.6593
   55DOPE  H18Y 7094   0.277   6.069   5.093  1.1064 -0.2992 -1.0536
   55DOPE  H18Z 7095   0.436   6.077   5.162  0.7162 -0.0409  0.2514
   56DOPE     N 7096   1.976   7.385   3.389 -0.1822 -0.0352  0.2590
   56DOPE   HN1 7097   1.905   7.362   3.461 -0.4903  1.8311  0.5932
   56DOPE   HN2 7098   2.002   7.300   3.336 -3.0404  0.5378 -2.2962
   56DOPE   HN3 7099   2.058   7.429   3.437  0.3499  1.0877 -1.5988
   56DOPE   C12 7100   1.916   7.493   3.291  0.1018  0.2220 -0.1347
   56DOPE  H12A 7101   1.995   7.512   3.214  0.5994 -0.1417  0.2764
   56DOPE  H12B 7102   1.894   7.588   3.343 -0.5124 -0.4189  0.7948
   56DOPE   C11 7103   1.788   7.431   3.232 -0.1167  0.6290 -0.2654
   56DOPE  H11A 7104   1.815   7.346   3.166 -0.6077 -1.2913  1.8486
   56DOPE  H11B 7105   1.749   7.502   3.157 -0.9863  0.3291 -0.1082
   56DOPE     P 7106   1.638   7.259   3.353  0.1751  0.2812 -0.2250
   56DOPE   O13 7107   1.611   7.201   3.222  0.0989 -0.3837 -0.1466
   56DOPE   O14 7108   1.530   7.259   3.453 -0.3688  0.7155 -0.0953
   56DOPE   O11 7109   1.776   7.205   3.412 -0.2076  0.8624 -0.2486
   56DOPE   O12 7110   1.700   7.405   3.333  0.4195 -0.0996 -0.6170
   56DOPE    C1 7111   1.799   7.070   3.457  0.1414  0.0157  0.1482
   56DOPE    HA 7112   1.905   7.040   3.442  0.0086  0.3895 -1.8248
   56DOPE    HB 7113   1.733   6.998   3.404  2.5717 -0.3892 -2.6005
   56DOPE    C2 7114   1.767   7.069   3.610  0.1320  0.0672 -0.0655
   56DOPE    HS 7115   1.670   7.123   3.619 -0.3749 -0.9627  0.8079
   56DOPE   O21 7116   1.879   7.141   3.673  0.5245  0.0972  0.3004
   56DOPE   C21 7117   1.855   7.205   3.777 -0.0696 -0.2564 -0.0789
   56DOPE   O22 7118   1.745   7.221   3.837 -0.2418 -0.0304  0.8388
   56DOPE   C22 7119   1.990   7.241   3.852  0.5193  0.3363 -0.4982
   56DOPE   H2R 7120   2.017   7.341   3.814 -0.3308  0.4309 -0.8758
   56DOPE   H2S 7121   2.070   7.169   3.825  0.9322  0.5330  0.1874
   56DOPE    C3 7122   1.745   6.919   3.667 -0.4601 -0.6273 -0.4945
   56DOPE    HX 7123   1.836   6.859   3.645 -0.4056 -1.0973  0.9527
   56DOPE    HY 7124   1.663   6.871   3.609 -0.0146 -3.0212  0.7468
   56DOPE   O31 7125   1.723   6.916   3.808  0.1018  0.2852  0.3095
   56DOPE   C31 7126   1.602   6.954   3.845 -0.4519  0.0145 -0.1408
   56DOPE   O32 7127   1.507   6.975   3.772  0.6182 -0.2394  0.2701
   56DOPE   C32 7128   1.605   6.975   4.000 -0.9575 -0.0666  0.2649
   56DOPE   H2X 7129   1.611   6.870   4.036  2.4704 -0.0499  0.0174
   56DOPE   H2Y 7130   1.696   7.024   4.038 -0.6090 -1.3052  1.0961
   56DOPE   C23 7131   1.972   7.253   4.006  0.0446  0.5443 -0.5989
   56DOPE   H3R 7132   2.074   7.262   4.048  1.1297  1.2714 -3.1643
   56DOPE   H3S 7133   1.918   7.161   4.037 -1.6935  2.0072  0.9291
   56DOPE   C24 7134   1.891   7.372   4.048  0.0480  0.0228 -0.0205
   56DOPE   H4R 7135   1.784   7.375   4.019  0.1434 -0.9270 -0.4915
   56DOPE   H4S 7136   1.930   7.464   3.998  0.1179  0.7071  1.2719
   56DOPE   C25 7137   1.899   7.418   4.197 -0.3322 -0.0313 -0.9109
   56DOPE   H5R 7138   1.848   7.517   4.209  1.3841  0.6030  2.3594
   56DOPE   H5S 7139   2.005   7.429   4.230 -0.3398 -3.6138  0.7248
   56DOPE   C26 7140   1.825   7.323   4.295 -0.0381  0.7869  0.8254
   56DOPE   H6R 7141   1.872   7.223   4.306 -0.1676  0.8925  2.4978
   56DOPE   H6S 7142   1.723   7.312   4.251 -0.2874  5.1305 -0.1720
   56DOPE   C27 7143   1.808   7.387   4.432 -0.3704  0.0546  0.3900
   56DOPE   H7R 7144   1.747   7.478   4.415 -0.9120 -0.5634 -1.1487
   56DOPE   H7S 7145   1.906   7.424   4.470  0.2550 -2.2343  1.1684
   56DOPE   C28 7146   1.754   7.302   4.545 -0.3048  1.0397 -0.1434
   56DOPE   H8R 7147   1.748   7.366   4.636 -0.5502 -0.4266  0.9061
   56DOPE   H8S 7148   1.832   7.225   4.561 -0.6940  0.3478 -1.4272
   56DOPE   C29 7149   1.619   7.253   4.519  0.1136  0.3393  0.7864
   56DOPE   H9R 7150   1.550   7.332   4.486 -0.0057 -0.2973 -0.5636
   56DOPE  C210 7151   1.575   7.128   4.548  0.1506  0.6527  0.4153
   56DOPE  H10R 7152   1.474   7.096   4.519  0.7150 -0.6902 -0.1693
   56DOPE  C211 7153   1.663   7.019   4.611  0.9688 -0.0290 -0.0392
   56DOPE  H11R 7154   1.770   7.044   4.624  0.1040  2.7130  2.8331
   56DOPE  H11S 7155   1.656   6.929   4.545 -0.1984 -0.8219  1.1182
   56DOPE  C212 7156   1.605   6.966   4.737 -0.3327  0.2632  0.4667
   56DOPE  H12R 7157   1.497   6.939   4.730 -0.6946  1.5920  0.7733
   56DOPE  H12S 7158   1.610   7.043   4.817 -1.0826  0.6808  0.1240
   56DOPE  C213 7159   1.669   6.841   4.793 -0.2971  0.0447 -0.1698
   56DOPE  H13R 7160   1.660   6.760   4.717  1.0484  0.0382 -0.3521
   56DOPE  H13S 7161   1.620   6.810   4.888  0.2023  0.7023  0.3106
   56DOPE  C214 7162   1.821   6.858   4.823  0.0858 -0.5293 -0.4424
   56DOPE  H14R 7163   1.836   6.940   4.896  0.7243  0.1098 -1.2683
   56DOPE  H14S 7164   1.857   6.900   4.726  0.5670 -0.0852 -0.0750
   56DOPE  C215 7165   1.907   6.733   4.852 -0.2431 -0.1135  0.0296
   56DOPE  H15R 7166   1.844   6.647   4.819  0.6164 -0.6889 -0.1300
   56DOPE  H15S 7167   1.921   6.726   4.962  1.1196 -0.1839 -0.1268
   56DOPE  C216 7168   2.034   6.739   4.778 -0.2549 -0.5919 -0.1504
   56DOPE  H16R 7169   2.100   6.822   4.810  0.3957 -1.1639  0.0208
   56DOPE  H16S 7170   2.017   6.760   4.670 -1.4728 -0.0037  0.1333
   56DOPE  C217 7171   2.116   6.606   4.789 -0.1594  0.4602  0.8339
   56DOPE  H17R 7172   2.096   6.577   4.895  1.0075  3.8383  2.1010
   56DOPE  H17S 7173   2.223   6.625   4.770 -0.4316  0.9357 -0.2714
   56DOPE  C218 7174   2.070   6.500   4.698  0.0941 -0.4519 -0.2001
   56DOPE  H18R 7175   1.960   6.487   4.711 -0.2586  3.5119  2.3251
   56DOPE  H18S 7176   2.132   6.413   4.725  2.4257  1.5201  1.2490
   56DOPE  H18T 7177   2.085   6.543   4.596  0.2907  0.3565  0.1613
   56DOPE   C33 7178   1.474   7.032   4.066  0.2976 -0.0071  0.3447
   56DOPE   H3X 7179   1.385   6.980   4.024 -1.5448  2.8931  0.4343
   56DOPE   H3Y 7180   1.462   7.139   4.040  1.6187 -0.0023 -0.3359
   56DOPE   C34 7181   1.465   7.014   4.221  0.3275  0.0641 -0.0090
   56DOPE   H4X 7182   1.564   7.030   4.268 -0.8176  2.3946  1.7889
   56DOPE   H4Y 7183   1.401   7.085   4.277 -0.4777 -1.0835  0.5613
   56DOPE   C35 7184   1.404   6.872   4.243  0.3437  0.1475 -0.2035
   56DOPE   H5X 7185   1.474   6.790   4.214  0.2489 -1.2844  3.0776
   56DOPE   H5Y 7186   1.312   6.858   4.184  0.0045 -1.7920  0.6956
   56DOPE   C36 7187   1.375   6.844   4.389  0.7146 -0.2041  0.0412
   56DOPE   H6X 7188   1.296   6.912   4.426 -1.2586 -1.4062 -1.7482
   56DOPE   H6Y 7189   1.472   6.860   4.441  1.1566  0.8225 -1.0673
   56DOPE   C37 7190   1.337   6.692   4.413  0.0192  0.1282  1.0112
   56DOPE   H7X 7191   1.409   6.620   4.369  0.0405 -0.1822  1.5536
   56DOPE   H7Y 7192   1.363   6.675   4.519  0.1704  0.4804  1.0330
   56DOPE   C38 7193   1.192   6.643   4.382 -0.5428  0.5822 -0.6234
   56DOPE   H8X 7194   1.161   6.637   4.275 -0.0787  0.1357 -0.7383
   56DOPE   H8Y 7195   1.125   6.719   4.426  1.2434  1.8135  0.0818
   56DOPE   C39 7196   1.186   6.500   4.447 -0.3180  0.4022  0.0483
   56DOPE   H9X 7197   1.253   6.423   4.405  0.5561  0.4942  1.2229
   56DOPE  C310 7198   1.112   6.461   4.552  0.0232 -0.3981 -0.6429
   56DOPE  H10X 7199   1.117   6.354   4.575  0.9520 -0.3522 -0.5935
   56DOPE  C311 7200   1.015   6.543   4.638  0.4015 -0.0674  0.4422
   56DOPE  H11X 7201   0.997   6.646   4.603  1.7768  1.1577  3.0460
   56DOPE  H11Y 7202   0.915   6.496   4.647 -0.3607  1.9236  5.1333
   56DOPE  C312 7203   1.063   6.554   4.780 -0.3476 -0.1795 -0.0946
   56DOPE  H12X 7204   1.078   6.456   4.830  1.3815  1.4515  2.9190
   56DOPE  H12Y 7205   0.989   6.607   4.844  1.4280 -0.1696  2.0662
   56DOPE  C313 7206   1.188   6.640   4.804  0.3171  0.0063  0.3418
   56DOPE  H13X 7207   1.272   6.571   4.826 -1.3261 -1.9596  0.7488
   56DOPE  H13Y 7208   1.224   6.703   4.720  2.6644 -2.0384 -0.3401
   56DOPE  C314 7209   1.182   6.745   4.915  0.2355 -0.2455  0.5108
   56DOPE  H14X 7210   1.191   6.689   5.011 -0.9328 -0.7264  0.3544
   56DOPE  H14Y 7211   1.084   6.799   4.915  1.2457  1.7101 -0.8837
   56DOPE  C315 7212   1.282   6.864   4.933 -0.1713  0.4435  0.4886
   56DOPE  H15X 7213   1.285   6.918   4.835 -0.0403  0.9025  0.7404
   56DOPE  H15Y 7214   1.384   6.827   4.955  0.1697 -0.1864 -1.8803
   56DOPE  C316 7215   1.243   6.971   5.041 -0.4955  0.1811 -0.1010
   56DOPE  H16X 7216   1.195   6.919   5.127 -3.7586  0.9963 -1.2535
   56DOPE  H16Y 7217   1.162   7.029   4.990 -0.4535 -0.4512 -0.9065
   56DOPE  C317 7218   1.361   7.060   5.086  0.5669  0.1892 -0.3162
   56DOPE  H17X 7219   1.441   6.995   5.127 -0.8948 -1.9687 -0.7146
   56DOPE  H17Y 7220   1.413   7.101   4.997  0.1205  2.3899  0.3837
   56DOPE  C318 7221   1.329   7.174   5.184 -0.0344  0.3790 -0.0519
   56DOPE  H18X 7222   1.277   7.139   5.276 -1.0781  0.1651 -0.7103
   56DOPE  H18Y 7223   1.420   7.236   5.200 -0.9002  1.5661  0.4246
   56DOPE  H18Z 7224   1.253   7.239   5.136 -0.4459 -1.3704 -1.8924
   57DOPE     N 7225   1.362   1.450   3.432  0.7872 -0.5565  0.2070
   57DOPE   HN1 7226   1.354   1.513   3.349  1.5991 -2.0636 -1.0740
   57DOPE   HN2 7227   1.438   1.382   3.407 -1.1344 -2.5438 -0.5752
   57DOPE   HN3 7228   1.278   1.389   3.432  0.5660 -0.2539  0.8221
   57DOPE   C12 7229   1.386   1.538   3.550  0.0490  0.2756  0.0036
   57DOPE  H12A 7230   1.475   1.598   3.521  0.4814 -0.4090 -0.1209
   57DOPE  H12B 7231   1.413   1.479   3.640 -1.1530  1.0543  0.9053
   57DOPE   C11 7232   1.260   1.612   3.584  0.2555 -0.3639  0.6022
   57DOPE  H11A 7233   1.286   1.684   3.664 -2.6758  3.0157 -1.1486
   57DOPE  H11B 7234   1.176   1.555   3.630 -0.6451  2.0714  2.1568
   57DOPE     P 7235   1.235   1.835   3.464 -0.3652  0.0266 -0.0669
   57DOPE   O13 7236   1.142   1.906   3.373  0.5453  0.2390  0.3054
   57DOPE   O14 7237   1.373   1.841   3.413 -0.1844 -0.2529  0.1169
   57DOPE   O11 7238   1.228   1.901   3.609 -0.4121  0.1724  0.1269
   57DOPE   O12 7239   1.205   1.681   3.475  1.0346 -0.3625  0.1441
   57DOPE    C1 7240   1.320   2.002   3.651  0.4453 -0.5208 -0.6667
   57DOPE    HA 7241   1.252   2.085   3.681  0.1980 -1.0048  0.1130
   57DOPE    HB 7242   1.396   2.042   3.579  1.4271 -1.5707 -0.2355
   57DOPE    C2 7243   1.399   1.959   3.778 -0.6331 -0.4132  0.6357
   57DOPE    HS 7244   1.429   1.853   3.768 -0.5976 -0.3388 -0.1270
   57DOPE   O21 7245   1.313   1.972   3.891  0.2814  0.4545 -0.4399
   57DOPE   C21 7246   1.256   1.863   3.937  0.1412  0.3548 -0.3354
   57DOPE   O22 7247   1.279   1.751   3.897  0.1028 -0.4432 -0.0482
   57DOPE   C22 7248   1.174   1.902   4.060 -0.4728  0.2955 -0.9747
   57DOPE   H2R 7249   1.118   1.990   4.022  0.0080  0.5780 -1.0331
   57DOPE   H2S 7250   1.241   1.930   4.144 -0.1516  0.2909 -1.2270
   57DOPE    C3 7251   1.533   2.049   3.775  0.0714  0.2348 -0.2107
   57DOPE    HX 7252   1.596   2.023   3.687 -1.0604  0.5230 -1.1276
   57DOPE    HY 7253   1.588   2.033   3.870  1.1166  1.2449 -0.6157
   57DOPE   O31 7254   1.503   2.196   3.765 -0.3796 -0.5326 -0.1576
   57DOPE   C31 7255   1.509   2.270   3.869  0.6019 -0.0694 -0.3666
   57DOPE   O32 7256   1.535   2.230   3.983  0.0140  0.2628 -0.5219
   57DOPE   C32 7257   1.457   2.416   3.839 -0.1993  0.8431  0.1909
   57DOPE   H2X 7258   1.513   2.441   3.747 -0.7996 -1.4865 -0.8713
   57DOPE   H2Y 7259   1.353   2.401   3.802 -0.5222 -1.1506  1.7408
   57DOPE   C23 7260   1.072   1.797   4.107  0.2340 -0.2655  0.0413
   57DOPE   H3R 7261   1.018   1.762   4.017  1.6162  0.7644 -1.2307
   57DOPE   H3S 7262   1.001   1.846   4.177  1.9782  1.2278  0.8206
   57DOPE   C24 7263   1.131   1.671   4.168 -0.1806 -0.0657 -0.1984
   57DOPE   H4R 7264   1.196   1.604   4.108  1.6726  0.6682  0.9075
   57DOPE   H4S 7265   1.042   1.614   4.203 -1.3146  2.4665  1.2786
   57DOPE   C25 7266   1.217   1.696   4.294 -0.1462 -0.1433 -0.4542
   57DOPE   H5R 7267   1.311   1.752   4.275  0.4421 -0.8601  0.3279
   57DOPE   H5S 7268   1.249   1.596   4.329 -0.4795 -0.2371 -0.4085
   57DOPE   C26 7269   1.144   1.771   4.404  0.1750  0.0627 -0.0810
   57DOPE   H6R 7270   1.040   1.734   4.415  0.8803 -2.4239 -1.0063
   57DOPE   H6S 7271   1.141   1.874   4.362  0.5286 -0.4747 -1.4906
   57DOPE   C27 7272   1.215   1.762   4.543 -0.1511 -0.3587  0.5202
   57DOPE   H7R 7273   1.320   1.789   4.522 -0.3054 -0.4250 -0.3970
   57DOPE   H7S 7274   1.209   1.654   4.569  0.7891 -0.0947  1.8971
   57DOPE   C28 7275   1.149   1.854   4.640 -0.5102  0.2300  0.2992
   57DOPE   H8R 7276   1.039   1.843   4.632 -0.4619 -0.3269  0.4101
   57DOPE   H8S 7277   1.172   1.961   4.620  1.5579  0.1828  1.9973
   57DOPE   C29 7278   1.187   1.815   4.787  0.0517  0.6561  0.4237
   57DOPE   H9R 7279   1.203   1.707   4.795  0.4554  0.6542 -0.2996
   57DOPE  C210 7280   1.209   1.889   4.902  0.0325  0.1702  0.1968
   57DOPE  H10R 7281   1.252   1.841   4.991 -0.8775 -1.6428 -0.2860
   57DOPE  C211 7282   1.197   2.034   4.899 -0.1240  0.0387 -0.1000
   57DOPE  H11R 7283   1.173   2.075   4.798 -1.7474 -0.5214  0.0289
   57DOPE  H11S 7284   1.290   2.081   4.939  0.3391  0.7660 -1.9307
   57DOPE  C212 7285   1.080   2.064   4.994  0.0092  0.7972  0.7213
   57DOPE  H12R 7286   0.990   1.999   4.985 -0.1869  1.1601 -0.0369
   57DOPE  H12S 7287   1.043   2.164   4.963 -0.1849  0.7567  0.8180
   57DOPE  C213 7288   1.126   2.068   5.138 -0.2626 -0.1174  0.2427
   57DOPE  H13R 7289   1.211   2.001   5.163  2.0045  1.7012 -2.0216
   57DOPE  H13S 7290   1.046   2.018   5.196 -0.5483  0.1667  0.0944
   57DOPE  C214 7291   1.134   2.208   5.199  0.6886  0.4570  1.1396
   57DOPE  H14R 7292   1.033   2.254   5.200  0.0806 -0.8349  1.7672
   57DOPE  H14S 7293   1.193   2.282   5.141  0.3340  0.8299  1.2472
   57DOPE  C215 7294   1.188   2.202   5.337 -0.4128  0.6545 -0.7246
   57DOPE  H15R 7295   1.279   2.139   5.347 -0.8447  0.3358  2.4470
   57DOPE  H15S 7296   1.111   2.154   5.402  0.6249  0.9453  0.7673
   57DOPE  C216 7297   1.223   2.340   5.403  0.2434 -0.4351 -0.2048
   57DOPE  H16R 7298   1.134   2.405   5.390 -0.7552 -0.6495  4.0635
   57DOPE  H16S 7299   1.317   2.380   5.360  0.6984  1.8272  2.5798
   57DOPE  C217 7300   1.256   2.323   5.558 -0.3124 -0.1558 -0.0299
   57DOPE  H17R 7301   1.304   2.417   5.591 -0.6368  0.4849 -1.3086
   57DOPE  H17S 7302   1.324   2.236   5.571 -0.6130 -0.0879  2.3173
   57DOPE  C218 7303   1.136   2.300   5.648  0.1783  0.0973  0.2893
   57DOPE  H18R 7304   1.092   2.205   5.612 -2.7996  1.6547 -0.5298
   57DOPE  H18S 7305   1.057   2.376   5.630  1.6868  2.1785  1.9165
   57DOPE  H18T 7306   1.154   2.287   5.757 -2.9510 -0.7524  0.8129
   57DOPE   C33 7307   1.475   2.524   3.945  0.1981 -0.1727 -0.3074
   57DOPE   H3X 7308   1.418   2.490   4.034 -0.9140 -0.2712 -1.0372
   57DOPE   H3Y 7309   1.422   2.615   3.907  0.5923  0.2452  0.1376
   57DOPE   C34 7310   1.609   2.571   3.986 -0.6838  0.1238  0.5508
   57DOPE   H4X 7311   1.668   2.483   4.020  1.6473  0.3428 -2.4468
   57DOPE   H4Y 7312   1.671   2.594   3.896 -0.9151  0.5495  0.4935
   57DOPE   C35 7313   1.618   2.691   4.086  0.6700 -0.3653 -0.0701
   57DOPE   H5X 7314   1.556   2.671   4.176  0.9668 -1.9716 -0.1999
   57DOPE   H5Y 7315   1.570   2.772   4.028  1.3670  0.6020  0.6667
   57DOPE   C36 7316   1.760   2.735   4.129 -0.1805  0.1296 -0.1315
   57DOPE   H6X 7317   1.802   2.801   4.050 -0.0747 -1.6376 -1.6088
   57DOPE   H6Y 7318   1.826   2.646   4.130  0.7421  0.7326  2.6429
   57DOPE   C37 7319   1.771   2.813   4.257  0.3630  0.4119 -0.3017
   57DOPE   H7X 7320   1.692   2.891   4.260 -0.5126 -0.4873  0.7759
   57DOPE   H7Y 7321   1.736   2.747   4.339  1.2037  0.7743  0.3728
   57DOPE   C38 7322   1.911   2.865   4.295  0.2138 -0.2259  0.3136
   57DOPE   H8X 7323   1.978   2.778   4.277  0.2132  0.2449 -2.2746
   57DOPE   H8Y 7324   1.910   2.880   4.405  0.9228  0.7066  0.2030
   57DOPE   C39 7325   1.961   2.991   4.220  0.4080  0.0283 -0.2612
   57DOPE   H9X 7326   1.918   3.006   4.120 -0.4718 -0.3331  0.0515
   57DOPE  C310 7327   2.050   3.084   4.269 -0.5315  0.4840  0.1090
   57DOPE  H10X 7328   2.090   3.159   4.199 -0.8799 -0.0561 -0.6922
   57DOPE  C311 7329   2.117   3.088   4.407  0.0103  0.3905 -0.1384
   57DOPE  H11X 7330   2.159   3.188   4.427  0.0666  0.3659 -0.1334
   57DOPE  H11Y 7331   2.039   3.068   4.484 -0.6670 -4.5393 -1.7072
   57DOPE  C312 7332   2.229   2.981   4.435 -0.1190 -0.2509  0.0463
   57DOPE  H12X 7333   2.315   3.001   4.367  0.1274  0.9342  0.6745
   57DOPE  H12Y 7334   2.183   2.882   4.416 -0.4651 -0.3129  1.1127
   57DOPE  C313 7335   2.271   2.970   4.584 -0.1091  0.3353 -1.0153
   57DOPE  H13X 7336   2.176   2.933   4.631 -0.3966  0.5785 -1.4036
   57DOPE  H13Y 7337   2.340   2.884   4.599 -0.4041  0.6313  3.5407
   57DOPE  C314 7338   2.330   3.100   4.648  0.6581  0.5392  0.0802
   57DOPE  H14X 7339   2.332   3.081   4.757 -1.0734 -0.2709  0.0147
   57DOPE  H14Y 7340   2.244   3.170   4.636 -0.6370 -0.9049  0.5882
   57DOPE  C315 7341   2.468   3.142   4.590 -0.6432  0.3542  0.1363
   57DOPE  H15X 7342   2.487   3.244   4.629 -1.8380  0.1461  1.3264
   57DOPE  H15Y 7343   2.462   3.135   4.479 -2.3926 -0.6542  0.2441
   57DOPE  C316 7344   2.583   3.055   4.643 -0.6655  0.0723 -0.0032
   57DOPE  H16X 7345   2.583   2.958   4.589  2.8190  0.3878 -0.8521
   57DOPE  H16Y 7346   2.575   3.024   4.749 -0.2649 -2.0813 -0.5457
   57DOPE  C317 7347   2.723   3.118   4.604 -0.4504  0.9924  0.1063
   57DOPE  H17X 7348   2.721   3.174   4.508 -1.4701 -0.9950 -1.1024
   57DOPE  H17Y 7349   2.739   3.201   4.676  0.8302  2.5253 -1.8166
   57DOPE  C318 7350   2.848   3.022   4.615 -0.0708 -0.1520  0.0331
   57DOPE  H18X 7351   2.945   3.060   4.577  0.1655 -2.4740 -1.8822
   57DOPE  H18Y 7352   2.849   3.011   4.726  0.1399  0.9338  0.1464
   57DOPE  H18Z 7353   2.824   2.933   4.553  2.3080  0.5945 -2.1295
   58DOPE     N 7354   0.084   5.468   2.511  0.0495  0.4628  0.1952
   58DOPE   HN1 7355  -0.011   5.450   2.548 -0.6366  2.4746 -0.4437
   58DOPE   HN2 7356   0.083   5.460   2.407 -0.1133  0.3623  0.2042
   58DOPE   HN3 7357   0.151   5.394   2.540  2.6057  2.7416  0.5400
   58DOPE   C12 7358   0.126   5.599   2.560  0.4919  0.4710  0.3737
   58DOPE  H12A 7359   0.039   5.666   2.539 -1.2979 -1.3198  1.6783
   58DOPE  H12B 7360   0.212   5.634   2.499  0.8065 -0.6575  0.1483
   58DOPE   C11 7361   0.163   5.592   2.704  0.1423 -0.6431  0.6922
   58DOPE  H11A 7362   0.076   5.544   2.754 -0.1337  1.3816  2.2578
   58DOPE  H11B 7363   0.165   5.698   2.737 -0.5390 -0.4787  0.2155
   58DOPE     P 7364   0.414   5.589   2.778 -0.0223  0.1338  0.0247
   58DOPE   O13 7365   0.428   5.723   2.715 -0.4657 -0.2655  0.1893
   58DOPE   O14 7366   0.530   5.498   2.767 -0.0272  0.2396  0.4179
   58DOPE   O11 7367   0.372   5.598   2.932  0.4311 -0.1143  0.4211
   58DOPE   O12 7368   0.288   5.522   2.719  0.5997 -0.3979 -0.2487
   58DOPE    C1 7369   0.373   5.486   3.009 -0.3105  0.6543 -0.9133
   58DOPE    HA 7370   0.471   5.436   3.002 -0.1303  1.0073 -0.9446
   58DOPE    HB 7371   0.297   5.415   2.970 -0.9381  1.3154 -0.9170
   58DOPE    C2 7372   0.347   5.510   3.159  0.2782  0.6179 -0.4576
   58DOPE    HS 7373   0.357   5.423   3.228 -0.2110  0.8919 -0.0358
   58DOPE   O21 7374   0.220   5.565   3.181  0.2423  0.0246 -0.2162
   58DOPE   C21 7375   0.116   5.483   3.158 -0.6609 -0.1841  0.5901
   58DOPE   O22 7376   0.127   5.362   3.143  0.3335 -0.2917 -0.3138
   58DOPE   C22 7377  -0.013   5.561   3.165  0.2185 -0.0417  0.0108
   58DOPE   H2R 7378  -0.023   5.598   3.061  1.3527  0.1908 -0.0329
   58DOPE   H2S 7379  -0.001   5.646   3.235 -1.0164  0.2999 -0.1660
   58DOPE    C3 7380   0.460   5.604   3.211  0.3267 -0.2392 -0.5468
   58DOPE    HX 7381   0.435   5.700   3.161 -2.3426 -1.2904 -1.3826
   58DOPE    HY 7382   0.548   5.576   3.148 -0.5089  1.5912 -2.6471
   58DOPE   O31 7383   0.474   5.596   3.354 -0.0542  0.2556  0.5851
   58DOPE   C31 7384   0.530   5.701   3.409  0.4706  0.7885 -0.1434
   58DOPE   O32 7385   0.578   5.793   3.352  0.0869 -0.6240  0.9430
   58DOPE   C32 7386   0.501   5.696   3.559  0.0788 -0.3514 -0.9051
   58DOPE   H2X 7387   0.392   5.711   3.564 -0.2620 -2.5220 -0.6892
   58DOPE   H2Y 7388   0.523   5.595   3.602 -1.0486  0.4274  1.6545
   58DOPE   C23 7389  -0.130   5.477   3.227 -0.3296 -0.5772  0.4070
   58DOPE   H3R 7390  -0.078   5.422   3.309 -1.4265 -0.2696  1.3425
   58DOPE   H3S 7391  -0.172   5.400   3.160  0.4805 -0.9796  0.3421
   58DOPE   C24 7392  -0.242   5.561   3.280  0.6075 -0.5321 -0.2864
   58DOPE   H4R 7393  -0.313   5.609   3.210 -0.0543 -0.0412  0.6917
   58DOPE   H4S 7394  -0.209   5.640   3.351 -1.1575 -1.6689  1.9177
   58DOPE   C25 7395  -0.336   5.479   3.375  0.7369 -0.7141  0.2020
   58DOPE   H5R 7396  -0.278   5.427   3.454  1.9110  2.2367  1.4147
   58DOPE   H5S 7397  -0.399   5.404   3.323  0.4359 -1.5142  1.6545
   58DOPE   C26 7398  -0.437   5.577   3.438  1.0051 -0.4619  0.3435
   58DOPE   H6R 7399  -0.518   5.611   3.370  1.0871  0.1247  0.5342
   58DOPE   H6S 7400  -0.383   5.668   3.471 -1.1804  1.3786 -0.8822
   58DOPE   C27 7401  -0.504   5.507   3.563 -0.1717 -0.1627 -0.1543
   58DOPE   H7R 7402  -0.430   5.485   3.643 -0.6071  0.2683  0.3750
   58DOPE   H7S 7403  -0.539   5.410   3.522  0.1896  0.0390 -0.9640
   58DOPE   C28 7404  -0.613   5.599   3.622  0.4424  0.3815  0.0705
   58DOPE   H8R 7405  -0.685   5.624   3.541  1.6229  0.3775 -1.0198
   58DOPE   H8S 7406  -0.561   5.694   3.647  0.0660  0.8681 -0.9220
   58DOPE   C29 7407  -0.679   5.548   3.753 -0.2637  0.1896 -0.6693
   58DOPE   H9R 7408  -0.618   5.555   3.844 -0.7018  1.6460 -0.4711
   58DOPE  C210 7409  -0.804   5.495   3.772  0.2844 -0.0484  0.1946
   58DOPE  H10R 7410  -0.833   5.460   3.873 -1.4745 -1.3504 -0.7141
   58DOPE  C211 7411  -0.911   5.472   3.665  0.2140  0.3759  0.4034
   58DOPE  H11R 7412  -0.919   5.362   3.650 -0.7682  0.6474 -1.2869
   58DOPE  H11S 7413  -0.877   5.506   3.565  1.0471 -0.9607  0.2102
   58DOPE  C212 7414  -1.048   5.536   3.694 -0.5131  0.9980 -0.0091
   58DOPE  H12R 7415  -1.050   5.646   3.677 -1.8159  1.0167  0.1480
   58DOPE  H12S 7416  -1.078   5.515   3.799 -1.0193  2.2056  0.1036
   58DOPE  C213 7417  -1.155   5.473   3.603 -0.6387  0.1858  0.1548
   58DOPE  H13R 7418  -1.139   5.364   3.593 -0.3231  0.0325  2.0071
   58DOPE  H13S 7419  -1.156   5.516   3.500 -1.1437 -2.5908 -1.1037
   58DOPE  C214 7420  -1.300   5.498   3.653 -0.8830  0.2183 -0.3760
   58DOPE  H14R 7421  -1.310   5.608   3.667  2.3505  0.6775 -0.9750
   58DOPE  H14S 7422  -1.324   5.447   3.748 -0.2907  0.4968 -0.0714
   58DOPE  C215 7423  -1.404   5.446   3.554 -0.5168  0.3192  0.2436
   58DOPE  H15R 7424  -1.506   5.456   3.596 -0.8249 -2.0415  0.1814
   58DOPE  H15S 7425  -1.386   5.337   3.539 -1.5312  0.2418 -0.5485
   58DOPE  C216 7426  -1.401   5.518   3.422 -0.3006 -0.0983  0.4855
   58DOPE  H16R 7427  -1.316   5.483   3.359  1.1359  2.3159  0.9470
   58DOPE  H16S 7428  -1.381   5.618   3.466 -1.0587 -0.7554  2.4121
   58DOPE  C217 7429  -1.528   5.508   3.344  0.0370  0.6909  0.2307
   58DOPE  H17R 7430  -1.609   5.526   3.418  0.1970 -0.1577  0.6260
   58DOPE  H17S 7431  -1.546   5.404   3.309 -1.6840  0.5694  1.3563
   58DOPE  C218 7432  -1.540   5.613   3.232 -0.5541 -0.0185 -0.2570
   58DOPE  H18R 7433  -1.637   5.608   3.178 -1.7353 -2.3196  1.8476
   58DOPE  H18S 7434  -1.460   5.599   3.156 -0.9911  1.7705 -1.0924
   58DOPE  H18T 7435  -1.531   5.713   3.279 -1.6712 -0.0975  0.1571
   58DOPE   C33 7436   0.564   5.812   3.651  0.5146 -0.4080 -0.0442
   58DOPE   H3X 7437   0.504   5.825   3.744 -0.6219 -1.8222 -0.5317
   58DOPE   H3Y 7438   0.547   5.911   3.605 -2.1624 -0.8881 -0.2942
   58DOPE   C34 7439   0.713   5.798   3.689  0.1474  0.3692  0.4939
   58DOPE   H4X 7440   0.777   5.785   3.599 -1.5894 -0.2526 -0.7135
   58DOPE   H4Y 7441   0.742   5.891   3.741  1.8343 -1.1295  2.3989
   58DOPE   C35 7442   0.734   5.678   3.782  0.4239  0.2131 -0.6375
   58DOPE   H5X 7443   0.712   5.591   3.717  0.1494 -0.4444  0.3168
   58DOPE   H5Y 7444   0.663   5.683   3.868  2.4230 -0.6156  1.1499
   58DOPE   C36 7445   0.881   5.656   3.830 -0.5329 -0.2857 -0.1438
   58DOPE   H6X 7446   0.957   5.631   3.753 -2.6152  0.5788 -2.6428
   58DOPE   H6Y 7447   0.894   5.570   3.898  1.2276 -1.0380 -1.3453
   58DOPE   C37 7448   0.942   5.777   3.910  0.1212 -0.1862 -0.2459
   58DOPE   H7X 7449   1.049   5.763   3.937 -0.1456 -2.4148 -0.1612
   58DOPE   H7Y 7450   0.944   5.868   3.847  0.7426  1.1129  1.5542
   58DOPE   C38 7451   0.871   5.812   4.040 -0.1910 -0.2188 -0.9378
   58DOPE   H8X 7452   0.763   5.834   4.024 -0.8275 -0.6711  2.0094
   58DOPE   H8Y 7453   0.919   5.906   4.074  2.0369 -0.7923 -2.2630
   58DOPE   C39 7454   0.869   5.712   4.152  0.1339 -0.7597  0.0405
   58DOPE   H9X 7455   0.904   5.612   4.120 -0.1854 -0.0102 -2.9583
   58DOPE  C310 7456   0.842   5.733   4.281 -0.4638  0.4353  0.3160
   58DOPE  H10X 7457   0.861   5.650   4.351  1.0563  1.0678  0.7056
   58DOPE  C311 7458   0.803   5.862   4.337  0.1009 -1.2571 -0.4204
   58DOPE  H11X 7459   0.894   5.926   4.338 -2.1683  2.2686  0.8697
   58DOPE  H11Y 7460   0.730   5.922   4.278  2.3888  1.2025 -0.9401
   58DOPE  C312 7461   0.735   5.853   4.474  0.3766  0.2481  0.2932
   58DOPE  H12X 7462   0.731   5.957   4.516  1.6416  0.7025 -0.6527
   58DOPE  H12Y 7463   0.811   5.795   4.530  0.5993  0.4579  0.2118
   58DOPE  C313 7464   0.592   5.784   4.473 -0.3831  0.0014 -0.4333
   58DOPE  H13X 7465   0.523   5.867   4.446 -0.4306  0.1915  0.2571
   58DOPE  H13Y 7466   0.580   5.711   4.389  0.2747 -1.0640  0.3770
   58DOPE  C314 7467   0.536   5.733   4.614  0.1458 -0.1593 -0.0273
   58DOPE  H14X 7468   0.517   5.816   4.686  0.5846 -0.0195 -0.0741
   58DOPE  H14Y 7469   0.604   5.654   4.654 -0.5003 -2.2173 -2.7044
   58DOPE  C315 7470   0.400   5.669   4.598 -0.0783 -1.0492  0.5154
   58DOPE  H15X 7471   0.404   5.563   4.563  0.5584 -0.4815 -1.2479
   58DOPE  H15Y 7472   0.335   5.728   4.531 -0.2761  0.9045  2.3355
   58DOPE  C316 7473   0.339   5.664   4.744 -0.4272 -0.3216  0.9239
   58DOPE  H16X 7474   0.331   5.766   4.787 -0.4820 -0.5920  1.5677
   58DOPE  H16Y 7475   0.408   5.602   4.805 -0.6810 -1.3369  0.2131
   58DOPE  C317 7476   0.200   5.604   4.750 -0.2234  0.0580  0.7685
   58DOPE  H17X 7477   0.158   5.650   4.658  1.2729  0.6660  0.3562
   58DOPE  H17Y 7478   0.195   5.494   4.737 -1.2551  0.0165  1.3979
   58DOPE  C318 7479   0.120   5.641   4.874 -0.2483 -0.2580  0.1862
   58DOPE  H18X 7480   0.177   5.629   4.968  0.4169 -0.6703 -0.2610
   58DOPE  H18Y 7481   0.078   5.743   4.863  1.5065  0.4897 -0.0445
   58DOPE  H18Z 7482   0.030   5.577   4.876 -1.6201  1.5489 -0.7826
   59DOPE     N 7483   0.333   0.910   3.165 -0.3345  0.3000  0.0105
   59DOPE   HN1 7484   0.264   0.834   3.155  1.0192 -0.9089 -0.4395
   59DOPE   HN2 7485   0.341   0.980   3.088  0.3177 -0.4007 -0.5768
   59DOPE   HN3 7486   0.425   0.863   3.174 -0.3265  0.3479  0.1793
   59DOPE   C12 7487   0.321   0.975   3.303 -0.2782  0.2380 -0.1555
   59DOPE  H12A 7488   0.364   0.904   3.377 -2.1135  0.5550  1.2929
   59DOPE  H12B 7489   0.214   0.975   3.332 -0.7563  2.1596 -1.7169
   59DOPE   C11 7490   0.371   1.114   3.315  0.5788 -1.0278 -0.7334
   59DOPE  H11A 7491   0.381   1.148   3.421  2.3041 -2.1670 -0.5032
   59DOPE  H11B 7492   0.302   1.179   3.256 -0.0186 -1.2443 -0.2786
   59DOPE     P 7493   0.604   1.233   3.255 -0.3662  0.1037  0.1803
   59DOPE   O13 7494   0.535   1.363   3.237  0.0712  0.1985 -0.4345
   59DOPE   O14 7495   0.708   1.204   3.154  0.0941 -0.2120 -0.0639
   59DOPE   O11 7496   0.658   1.227   3.400  0.6192 -0.1456  0.1799
   59DOPE   O12 7497   0.491   1.122   3.242 -0.1285  0.2259 -0.0973
   59DOPE    C1 7498   0.656   1.105   3.468 -0.6315  0.1863  0.4493
   59DOPE    HA 7499   0.727   1.032   3.423 -1.6792 -0.5606 -0.0246
   59DOPE    HB 7500   0.560   1.050   3.466 -2.5918  3.3700 -1.4576
   59DOPE    C2 7501   0.702   1.117   3.616 -0.5912 -0.1721 -0.1412
   59DOPE    HS 7502   0.662   1.037   3.682 -0.5639  1.0068  1.3617
   59DOPE   O21 7503   0.662   1.241   3.674  0.6732 -0.2930 -0.6843
   59DOPE   C21 7504   0.533   1.257   3.688  0.4401 -0.4882  1.0890
   59DOPE   O22 7505   0.449   1.170   3.675 -0.7469  0.2971 -0.3866
   59DOPE   C22 7506   0.506   1.406   3.718  0.5319 -0.1217 -0.3091
   59DOPE   H2R 7507   0.545   1.458   3.628 -0.6099  0.0193 -0.7449
   59DOPE   H2S 7508   0.567   1.452   3.799 -0.9909  0.1935  0.7116
   59DOPE    C3 7509   0.856   1.108   3.616 -0.0642 -0.1641 -0.0428
   59DOPE    HX 7510   0.900   1.180   3.544 -0.5102  0.9499  0.7677
   59DOPE    HY 7511   0.891   1.013   3.570  1.8409  0.3629  0.2441
   59DOPE   O31 7512   0.910   1.109   3.749 -0.4074  0.0346 -0.3097
   59DOPE   C31 7513   0.976   1.208   3.794  0.9383 -0.0930  0.0881
   59DOPE   O32 7514   0.998   1.316   3.736  0.1849 -0.6502 -0.0066
   59DOPE   C32 7515   1.016   1.174   3.934 -0.7477  0.6131  0.2122
   59DOPE   H2X 7516   0.922   1.189   3.992 -0.5335 -0.0651  0.7550
   59DOPE   H2Y 7517   1.034   1.064   3.940 -2.7310  0.2802  1.0541
   59DOPE   C23 7518   0.354   1.441   3.724  0.2502 -0.0688  0.1338
   59DOPE   H3R 7519   0.302   1.374   3.652 -2.4864 -0.8087  2.6435
   59DOPE   H3S 7520   0.326   1.546   3.697  0.4938 -0.3988 -1.5440
   59DOPE   C24 7521   0.294   1.412   3.863  0.1179  0.6956 -0.2644
   59DOPE   H4R 7522   0.335   1.320   3.909 -0.2291  0.5455 -0.2589
   59DOPE   H4S 7523   0.183   1.410   3.868  0.0283  2.5681  4.4799
   59DOPE   C25 7524   0.338   1.516   3.977  0.2890 -0.4038 -0.1361
   59DOPE   H5R 7525   0.316   1.616   3.935  1.5082  0.0772  0.3332
   59DOPE   H5S 7526   0.446   1.513   4.000  0.2086  1.6991  0.7515
   59DOPE   C26 7527   0.254   1.495   4.107  0.0686 -0.7810 -0.3590
   59DOPE   H6R 7528   0.152   1.463   4.079 -0.4845  0.0187  0.6878
   59DOPE   H6S 7529   0.241   1.594   4.155  0.1311 -0.2129 -1.4885
   59DOPE   C27 7530   0.321   1.402   4.215 -0.2989  0.2196 -1.0728
   59DOPE   H7R 7531   0.415   1.440   4.260 -0.0182 -0.3509 -1.1590
   59DOPE   H7S 7532   0.348   1.317   4.148 -0.6697 -0.6524 -0.1396
   59DOPE   C28 7533   0.222   1.358   4.322 -0.1228 -0.0392  0.0118
   59DOPE   H8R 7534   0.122   1.333   4.280  0.4188 -3.2604  0.4162
   59DOPE   H8S 7535   0.211   1.442   4.394  2.0737  0.4724 -0.1954
   59DOPE   C29 7536   0.282   1.249   4.404 -0.4505  0.6686 -0.7200
   59DOPE   H9R 7537   0.263   1.150   4.360  1.4763 -0.1675  0.1896
   59DOPE  C210 7538   0.347   1.239   4.518  0.2114  0.1203 -0.3764
   59DOPE  H10R 7539   0.389   1.149   4.565 -1.6071 -0.1496  0.7852
   59DOPE  C211 7540   0.391   1.361   4.594  0.1678 -0.1681  0.5027
   59DOPE  H11R 7541   0.354   1.453   4.545  0.3080 -1.3946 -2.0400
   59DOPE  H11S 7542   0.501   1.374   4.579  0.7744 -2.7222  2.0001
   59DOPE  C212 7543   0.360   1.357   4.742 -0.6170 -0.7352 -0.6548
   59DOPE  H12R 7544   0.386   1.459   4.778 -2.2522 -0.3305 -0.5164
   59DOPE  H12S 7545   0.416   1.280   4.800 -0.0316  0.8422  0.9897
   59DOPE  C213 7546   0.205   1.353   4.778 -0.5994 -0.3040 -0.9193
   59DOPE  H13R 7547   0.162   1.251   4.785 -0.6762 -0.3516 -2.0271
   59DOPE  H13S 7548   0.169   1.393   4.681 -0.2469 -0.7619 -1.2432
   59DOPE  C214 7549   0.173   1.449   4.900 -0.7928  0.0207  0.3584
   59DOPE  H14R 7550   0.219   1.550   4.888  0.3260 -0.4150  0.8848
   59DOPE  H14S 7551   0.219   1.408   4.992 -1.3531  1.5141  1.3405
   59DOPE  C215 7552   0.021   1.469   4.914  0.0516  0.2511  0.6593
   59DOPE  H15R 7553  -0.031   1.370   4.915 -0.3656  0.4474 -0.4956
   59DOPE  H15S 7554  -0.012   1.523   4.823 -1.4048  1.7260  2.0014
   59DOPE  C216 7555  -0.019   1.536   5.045  0.6129 -0.3380 -0.8243
   59DOPE  H16R 7556  -0.129   1.541   5.042  0.5810 -1.0700 -1.1369
   59DOPE  H16S 7557   0.012   1.643   5.044 -1.3198  0.2566 -1.8450
   59DOPE  C217 7558   0.034   1.453   5.166  0.0269 -0.1960 -0.5091
   59DOPE  H17R 7559   0.144   1.461   5.172  0.2240 -0.9940 -2.5596
   59DOPE  H17S 7560   0.011   1.347   5.144 -1.3195  0.7383 -4.2970
   59DOPE  C218 7561  -0.033   1.499   5.290  1.1803  0.3507 -0.9052
   59DOPE  H18R 7562   0.004   1.443   5.379  1.9871  1.7939 -0.3063
   59DOPE  H18S 7563  -0.140   1.469   5.280  0.7036  1.1204  1.3655
   59DOPE  H18T 7564  -0.038   1.608   5.311 -0.2194 -0.0450  1.1571
   59DOPE   C33 7565   1.124   1.269   3.987  0.3888 -0.0616 -0.6360
   59DOPE   H3X 7566   1.088   1.373   3.974  0.4212  0.2065  1.1810
   59DOPE   H3Y 7567   1.217   1.246   3.930  0.0237 -0.0670 -1.2384
   59DOPE   C34 7568   1.156   1.256   4.133 -0.0796 -0.5339 -0.6271
   59DOPE   H4X 7569   1.177   1.148   4.153  0.2256 -0.4517 -0.4994
   59DOPE   H4Y 7570   1.252   1.307   4.153 -0.7972 -0.0096  1.8180
   59DOPE   C35 7571   1.045   1.290   4.230  0.2063  0.1603  0.3807
   59DOPE   H5X 7572   0.958   1.226   4.206  0.8339 -0.3284 -0.6896
   59DOPE   H5Y 7573   1.014   1.395   4.211 -0.1862 -0.1737 -0.9161
   59DOPE   C36 7574   1.070   1.283   4.378  0.0935  0.2862 -0.2928
   59DOPE   H6X 7575   1.134   1.370   4.403  1.0770 -0.8387  1.3217
   59DOPE   H6Y 7576   1.131   1.191   4.393  0.9583  1.1846  2.2143
   59DOPE   C37 7577   0.939   1.278   4.449  0.1384 -0.1910  0.4431
   59DOPE   H7X 7578   0.894   1.375   4.421  0.9243 -0.0083 -0.1969
   59DOPE   H7Y 7579   0.881   1.190   4.414  0.4252 -1.2080  2.3341
   59DOPE   C38 7580   0.961   1.282   4.602  0.5190 -0.5970  0.0403
   59DOPE   H8X 7581   1.014   1.189   4.631 -0.2197 -0.3007  2.5584
   59DOPE   H8Y 7582   0.858   1.269   4.643  1.1771 -0.1961  1.9472
   59DOPE   C39 7583   1.030   1.399   4.662 -0.5554 -0.7436  0.3314
   59DOPE   H9X 7584   0.968   1.490   4.665  1.0266  0.3581  1.6329
   59DOPE  C310 7585   1.155   1.402   4.711 -0.7376  0.3196 -0.6412
   59DOPE  H10X 7586   1.204   1.500   4.703  0.9256 -0.5109 -1.0380
   59DOPE  C311 7587   1.251   1.282   4.722 -0.4570  0.4733 -0.8631
   59DOPE  H11X 7588   1.236   1.232   4.820  2.5882  0.8444 -0.0994
   59DOPE  H11Y 7589   1.207   1.202   4.658 -3.7337  1.3881  0.0895
   59DOPE  C312 7590   1.390   1.320   4.678 -0.0311  0.2580 -0.2173
   59DOPE  H12X 7591   1.430   1.411   4.726  0.7642  0.0669 -0.5052
   59DOPE  H12Y 7592   1.383   1.339   4.569  0.2804  0.5644 -0.1834
   59DOPE  C313 7593   1.491   1.209   4.696  0.5826 -0.5669 -0.0079
   59DOPE  H13X 7594   1.465   1.103   4.673  1.2222 -0.9057  0.7670
   59DOPE  H13Y 7595   1.573   1.244   4.631 -0.3814  2.3673  0.1831
   59DOPE  C314 7596   1.534   1.201   4.844 -0.3904 -0.1139 -0.7845
   59DOPE  H14X 7597   1.439   1.187   4.901  1.0565  0.0411  1.8071
   59DOPE  H14Y 7598   1.556   1.307   4.866  0.4158 -0.1909 -1.2021
   59DOPE  C315 7599   1.651   1.103   4.873  0.8332  0.2025  0.2787
   59DOPE  H15X 7600   1.607   1.001   4.876 -0.6552  0.8370  1.8615
   59DOPE  H15Y 7601   1.698   1.118   4.973  2.6264 -1.0946 -0.3254
   59DOPE  C316 7602   1.769   1.123   4.780 -0.1242  0.3949 -0.1887
   59DOPE  H16X 7603   1.732   1.088   4.681 -1.8254 -0.6138  0.7455
   59DOPE  H16Y 7604   1.854   1.060   4.815 -0.3388  0.3020  0.1820
   59DOPE  C317 7605   1.836   1.257   4.778 -0.4120  0.2575  0.1775
   59DOPE  H17X 7606   1.759   1.333   4.752 -1.1759 -0.8723 -1.0349
   59DOPE  H17Y 7607   1.876   1.292   4.875 -1.4064  0.5063  0.5117
   59DOPE  C318 7608   1.951   1.263   4.670 -0.4441  0.3225  0.1697
   59DOPE  H18X 7609   2.001   1.361   4.675  2.5686 -1.1435  0.7791
   59DOPE  H18Y 7610   2.031   1.193   4.703 -0.4825  0.2398  0.0883
   59DOPE  H18Z 7611   1.924   1.242   4.564  0.4823  0.4020 -0.0838
   60DOPE     N 7612   1.269   6.994   3.031  0.5762 -0.3544 -0.7125
   60DOPE   HN1 7613   1.285   6.895   3.002  2.0298  0.0554 -1.4013
   60DOPE   HN2 7614   1.178   7.026   2.994  0.3136  0.9262  0.9182
   60DOPE   HN3 7615   1.344   7.053   2.989  0.7856 -0.2501 -0.2014
   60DOPE   C12 7616   1.279   7.002   3.183 -0.2301 -1.1913  0.1644
   60DOPE  H12A 7617   1.386   7.009   3.212 -0.0237  1.7706 -0.9515
   60DOPE  H12B 7618   1.238   6.909   3.229  2.0710 -2.0116  0.7139
   60DOPE   C11 7619   1.206   7.124   3.244 -0.1236 -0.7881 -0.1541
   60DOPE  H11A 7620   1.246   7.210   3.187 -0.6569  0.0171  0.6578
   60DOPE  H11B 7621   1.239   7.120   3.350 -0.7542 -0.2649  0.0598
   60DOPE     P 7622   0.950   7.191   3.300 -0.0996 -0.3680  0.3750
   60DOPE   O13 7623   0.819   7.154   3.245 -0.2902 -0.4358  0.5791
   60DOPE   O14 7624   0.982   7.335   3.285  0.0710 -0.3248 -0.2196
   60DOPE   O11 7625   0.960   7.142   3.450  0.2754  0.1346 -0.1601
   60DOPE   O12 7626   1.069   7.109   3.236 -0.0794 -0.2638  0.1371
   60DOPE    C1 7627   0.976   7.000   3.482 -0.1233  0.5005  0.0202
   60DOPE    HA 7628   1.072   6.991   3.539 -1.2640 -1.6041  1.7626
   60DOPE    HB 7629   0.991   6.938   3.392  1.7907  0.7531  0.1035
   60DOPE    C2 7630   0.852   6.962   3.555 -0.4055  0.5471  0.0991
   60DOPE    HS 7631   0.775   6.965   3.476 -0.5719  1.3336  0.2903
   60DOPE   O21 7632   0.826   7.051   3.661 -0.1715 -0.1963 -0.1958
   60DOPE   C21 7633   0.702   7.079   3.686  0.2219  0.4416 -0.0282
   60DOPE   O22 7634   0.612   7.061   3.607  0.1882 -0.5353 -0.0004
   60DOPE   C22 7635   0.689   7.102   3.833 -0.8590 -0.0967 -0.4690
   60DOPE   H2R 7636   0.748   7.193   3.859  1.3629 -2.2345  2.7430
   60DOPE   H2S 7637   0.755   7.033   3.891  0.3049  1.8570  0.6453
   60DOPE    C3 7638   0.867   6.805   3.597 -0.3036  0.2625  0.0810
   60DOPE    HX 7639   0.959   6.804   3.659 -1.2596 -2.4071  1.6539
   60DOPE    HY 7640   0.886   6.735   3.512  1.1057 -0.1503  0.7101
   60DOPE   O31 7641   0.754   6.760   3.686 -0.0912  0.0660 -0.3113
   60DOPE   C31 7642   0.640   6.727   3.623 -0.4561 -0.5267  0.4933
   60DOPE   O32 7643   0.626   6.732   3.501  0.2051  0.0903  0.1513
   60DOPE   C32 7644   0.541   6.675   3.731  0.3071 -0.3554  0.7750
   60DOPE   H2X 7645   0.534   6.752   3.811 -2.3904 -0.8340  1.0808
   60DOPE   H2Y 7646   0.449   6.696   3.671  1.3611  1.9437 -0.1882
   60DOPE   C23 7647   0.551   7.102   3.888  0.8798  0.1179  0.3954
   60DOPE   H3R 7648   0.559   7.091   3.998  2.8322  1.2758  0.4167
   60DOPE   H3S 7649   0.491   7.019   3.845  0.2016 -1.4231  3.9421
   60DOPE   C24 7650   0.471   7.231   3.856 -1.1253 -0.2675  0.5698
   60DOPE   H4R 7651   0.371   7.212   3.901 -0.2832 -0.1476  2.6464
   60DOPE   H4S 7652   0.468   7.235   3.745 -0.4376  0.0994  0.5584
   60DOPE   C25 7653   0.517   7.357   3.924 -0.1169 -0.5720 -0.0785
   60DOPE   H5R 7654   0.457   7.446   3.894  0.6796  0.5553  1.4858
   60DOPE   H5S 7655   0.620   7.378   3.889 -0.3476 -0.6088 -0.7955
   60DOPE   C26 7656   0.514   7.351   4.074 -0.1464  0.4719 -0.1664
   60DOPE   H6R 7657   0.574   7.263   4.107 -0.1360  0.0870 -1.1447
   60DOPE   H6S 7658   0.410   7.340   4.111 -0.8018  1.6885 -1.5504
   60DOPE   C27 7659   0.596   7.461   4.152 -0.2267  0.5855  0.2080
   60DOPE   H7R 7660   0.558   7.558   4.113 -0.8630 -0.6116 -2.3926
   60DOPE   H7S 7661   0.701   7.438   4.123 -0.7617 -1.6414 -0.1446
   60DOPE   C28 7662   0.595   7.447   4.310  0.7093 -0.1046 -0.2016
   60DOPE   H8R 7663   0.657   7.518   4.368  1.3042 -1.6084  1.0793
   60DOPE   H8S 7664   0.627   7.343   4.335 -3.0077 -1.4159 -0.2611
   60DOPE   C29 7665   0.455   7.468   4.371 -0.0900 -0.6486 -0.7774
   60DOPE   H9R 7666   0.402   7.552   4.323  0.4258  0.1354 -0.0119
   60DOPE  C210 7667   0.390   7.379   4.453 -0.9631  0.2910  0.4387
   60DOPE  H10R 7668   0.287   7.408   4.481 -0.9354  0.2387  0.5918
   60DOPE  C211 7669   0.435   7.248   4.497 -0.7273  0.3509  0.5329
   60DOPE  H11R 7670   0.526   7.215   4.442  0.5893  2.1408  1.5575
   60DOPE  H11S 7671   0.361   7.165   4.489  0.8012 -1.0941  0.6783
   60DOPE  C212 7672   0.476   7.250   4.650 -0.0705  0.3249 -0.3433
   60DOPE  H12R 7673   0.549   7.331   4.671 -0.3186  0.2975  0.6871
   60DOPE  H12S 7674   0.520   7.149   4.665  0.4629  0.4588 -0.9555
   60DOPE  C213 7675   0.356   7.281   4.745  0.2159  0.1548  0.8106
   60DOPE  H13R 7676   0.267   7.229   4.702  0.2580  1.5149 -1.0462
   60DOPE  H13S 7677   0.331   7.389   4.735 -3.1624 -0.4692  1.2057
   60DOPE  C214 7678   0.377   7.250   4.895 -0.1257 -0.4432 -0.4411
   60DOPE  H14R 7679   0.403   7.143   4.909 -0.8488 -0.4380  1.2797
   60DOPE  H14S 7680   0.286   7.260   4.958  1.1929  0.7209  1.4085
   60DOPE  C215 7681   0.476   7.350   4.961  0.0307  0.0033 -0.1576
   60DOPE  H15R 7682   0.447   7.447   4.913 -0.0010 -0.1936 -0.5414
   60DOPE  H15S 7683   0.578   7.323   4.928  0.5268 -1.3822  2.3017
   60DOPE  C216 7684   0.485   7.353   5.116 -1.0229 -0.3763  0.3606
   60DOPE  H16R 7685   0.473   7.255   5.166  1.8529 -0.5904  0.8031
   60DOPE  H16S 7686   0.397   7.413   5.147 -0.9667 -1.0101  1.8579
   60DOPE  C217 7687   0.607   7.427   5.170  0.2111  0.3610 -0.4176
   60DOPE  H17R 7688   0.700   7.376   5.138  1.0890 -0.6105  3.1436
   60DOPE  H17S 7689   0.610   7.423   5.281 -1.8951  2.5007 -0.1829
   60DOPE  C218 7690   0.611   7.569   5.109 -0.7256 -0.0196  0.2738
   60DOPE  H18R 7691   0.519   7.631   5.119  0.2457  1.1124  3.6005
   60DOPE  H18S 7692   0.655   7.566   5.007 -1.1862  0.8692  0.0392
   60DOPE  H18T 7693   0.681   7.627   5.174 -1.4503  0.1643  0.9108
   60DOPE   C33 7694   0.541   6.533   3.764 -0.2426  0.4361 -0.3682
   60DOPE   H3X 7695   0.621   6.522   3.840 -1.4103  5.7291  2.0832
   60DOPE   H3Y 7696   0.557   6.467   3.676 -0.9236  1.0024 -0.9311
   60DOPE   C34 7697   0.414   6.490   3.846 -0.0436 -0.4891 -0.2625
   60DOPE   H4X 7698   0.322   6.466   3.788 -1.6544  1.2664  1.4187
   60DOPE   H4Y 7699   0.430   6.386   3.882 -0.9398 -0.9643 -1.1561
   60DOPE   C35 7700   0.371   6.581   3.959 -0.6189 -0.4807  0.6841
   60DOPE   H5X 7701   0.338   6.681   3.924  1.9832  0.2489  0.0835
   60DOPE   H5Y 7702   0.458   6.599   4.025 -0.0925 -0.6442  0.0489
   60DOPE   C36 7703   0.248   6.520   4.028 -0.2970  0.0204 -0.0978
   60DOPE   H6X 7704   0.264   6.413   4.055  3.8243  0.3368 -0.5653
   60DOPE   H6Y 7705   0.161   6.528   3.960  0.2573 -0.5708 -0.8974
   60DOPE   C37 7706   0.229   6.591   4.164 -0.4314 -0.2204 -0.1701
   60DOPE   H7X 7707   0.323   6.587   4.222 -0.4445 -3.1804 -0.2365
   60DOPE   H7Y 7708   0.201   6.697   4.143 -1.7758 -0.9689 -2.5533
   60DOPE   C38 7709   0.118   6.531   4.258  0.2497 -0.3216 -0.2350
   60DOPE   H8X 7710   0.102   6.589   4.351  0.6035  1.6117 -1.3230
   60DOPE   H8Y 7711   0.142   6.424   4.277 -0.5560 -0.3962  0.4150
   60DOPE   C39 7712  -0.014   6.547   4.192  0.1661 -0.5929  0.1515
   60DOPE   H9X 7713  -0.016   6.620   4.111 -3.5755 -2.7816 -1.9866
   60DOPE  C310 7714  -0.120   6.464   4.188 -0.2601  0.0252  0.4634
   60DOPE  H10X 7715  -0.205   6.492   4.125  0.4938  2.0322  0.2833
   60DOPE  C311 7716  -0.138   6.324   4.253  0.2149 -0.3231  0.3733
   60DOPE  H11X 7717  -0.119   6.248   4.174 -0.7287  0.2246 -0.3899
   60DOPE  H11Y 7718  -0.061   6.304   4.331  0.6537 -0.8802 -0.1951
   60DOPE  C312 7719  -0.281   6.299   4.304  0.1417 -0.8660  0.6358
   60DOPE  H12X 7720  -0.353   6.321   4.223  1.2036  1.7678  0.3136
   60DOPE  H12Y 7721  -0.296   6.375   4.384 -0.5947 -0.5879  0.2424
   60DOPE  C313 7722  -0.303   6.158   4.359 -0.3187  0.1449  0.4760
   60DOPE  H13X 7723  -0.225   6.129   4.432 -2.2520 -2.3494  1.7217
   60DOPE  H13Y 7724  -0.399   6.160   4.416 -1.6090 -0.0521 -1.5976
   60DOPE  C314 7725  -0.314   6.054   4.261  0.4059 -0.0913 -0.0902
   60DOPE  H14X 7726  -0.217   6.040   4.209  0.2011  0.2502 -0.5804
   60DOPE  H14Y 7727  -0.388   6.072   4.180  0.0357 -4.8066 -1.0484
   60DOPE  C315 7728  -0.355   5.925   4.324  0.8924 -0.5071  0.0744
   60DOPE  H15X 7729  -0.353   5.847   4.245 -1.2963  0.0547 -0.6032
   60DOPE  H15Y 7730  -0.459   5.930   4.362 -0.0907 -0.7582 -2.3645
   60DOPE  C316 7731  -0.257   5.886   4.440  0.1622  0.3417  0.5619
   60DOPE  H16X 7732  -0.279   5.926   4.542 -2.0633 -0.0761  0.3075
   60DOPE  H16Y 7733  -0.152   5.916   4.418  1.2481 -3.3864 -0.0189
   60DOPE  C317 7734  -0.280   5.739   4.480 -0.0031  0.7007  0.0571
   60DOPE  H17X 7735  -0.274   5.674   4.390 -0.0481  0.9998 -0.1632
   60DOPE  H17Y 7736  -0.193   5.718   4.546 -0.4065  1.6611  0.9180
   60DOPE  C318 7737  -0.397   5.703   4.564  0.9102  1.1778 -0.4348
   60DOPE  H18X 7738  -0.498   5.738   4.534 -0.4946 -0.1024  2.4151
   60DOPE  H18Y 7739  -0.401   5.593   4.577  0.9237  0.9155 -2.3536
   60DOPE  H18Z 7740  -0.382   5.747   4.665  0.0331  0.4062  0.0504
   6123SM     N 7741   2.536   5.978   7.182 -0.4060  0.3572 -0.0509
   6123SM   C15 7742   2.450   6.103   7.203  0.3030 -0.0809  0.2480
   6123SM  H15A 7743   2.452   6.139   7.305  1.4693 -2.0550  0.9745
   6123SM  H15B 7744   2.347   6.080   7.181 -0.6080  3.3359  0.3159
   6123SM  H15C 7745   2.464   6.177   7.125 -4.1024  0.0319 -0.7180
   6123SM   C14 7746   2.677   6.032   7.156  0.3418  0.8388  0.2254
   6123SM  H14A 7747   2.670   6.094   7.068 -2.0433  0.0838 -0.1820
   6123SM  H14B 7748   2.750   5.954   7.141  0.4220  0.6051  1.6233
   6123SM  H14C 7749   2.720   6.088   7.238  0.9821  0.4528  0.1572
   6123SM   C13 7750   2.536   5.895   7.310 -0.7107 -0.8156  0.4569
   6123SM  H13A 7751   2.585   5.951   7.388 -0.0207  1.3248 -1.3967
   6123SM  H13B 7752   2.591   5.804   7.294 -0.9771 -0.7555 -0.9851
   6123SM  H13C 7753   2.436   5.867   7.339 -1.3767  0.5874 -0.3526
   6123SM   C12 7754   2.496   5.891   7.063  0.3607  0.2470  0.0370
   6123SM  H12A 7755   2.484   5.952   6.974  2.2531  1.6743  0.6923
   6123SM  H12B 7756   2.401   5.847   7.090  0.6678 -0.3731  0.1109
   6123SM   C11 7757   2.596   5.778   7.026  0.8836 -0.6932 -0.1870
   6123SM  H11A 7758   2.691   5.818   6.984  0.9405  1.3701  1.7050
   6123SM  H11B 7759   2.554   5.733   6.934  0.0315 -1.3210  0.4896
   6123SM     P 7760   2.559   5.537   7.134 -0.2888  0.2216 -0.1093
   6123SM   O13 7761   2.640   5.464   7.241  0.4159  0.2989 -0.1414
   6123SM   O14 7762   2.412   5.540   7.156  0.5871 -0.1200 -0.3503
   6123SM   O11 7763   2.597   5.470   6.994  0.3631  0.4326  0.1194
   6123SM   O12 7764   2.617   5.683   7.127 -0.3705 -0.4543  0.1889
   6123SM   C1S 7765   2.737   5.479   6.964 -0.4123  0.0274 -0.5950
   6123SM   H1S 7766   2.812   5.447   7.040  0.0353  0.3775 -0.8872
   6123SM   H1T 7767   2.765   5.586   6.953 -0.9836  0.5653  2.2242
   6123SM    NF 7768   2.923   5.440   6.811  0.1633 -0.0217  0.2245
   6123SM   HNF 7769   2.941   5.521   6.756 -0.2426 -0.1536 -0.1139
   6123SM   C2S 7770   2.777   5.404   6.834  0.5537 -0.6486  0.1460
   6123SM   H2S 7771   2.776   5.299   6.871  1.7019  0.4140  3.5066
   6123SM   C3S 7772   2.683   5.434   6.715  0.3075  0.3678 -0.7233
   6123SM   H3S 7773   2.692   5.542   6.690  2.1145  1.2678  3.0528
   6123SM    O3 7774   2.538   5.419   6.737  0.3809 -0.0116  0.2623
   6123SM   HO3 7775   2.526   5.428   6.832 -0.7941  0.3445  0.0908
   6123SM   C4S 7776   2.737   5.356   6.597  0.1466  0.1121 -0.4942
   6123SM   H4S 7777   2.834   5.402   6.571  0.5016  0.0930  0.7118
   6123SM   C5S 7778   2.682   5.245   6.542  0.3459 -0.3269 -0.1003
   6123SM   H5S 7779   2.588   5.212   6.590  0.0379  0.2296 -0.3094
   6123SM   C6S 7780   2.749   5.144   6.451  0.3769  1.0036 -0.3632
   6123SM   H6S 7781   2.715   5.177   6.350  0.0986 -1.7424 -1.2475
   6123SM   H6T 7782   2.713   5.042   6.478  1.4966  0.7867  0.3977
   6123SM   C7S 7783   2.902   5.132   6.464  0.4290 -0.2351 -0.1664
   6123SM   H7S 7784   2.934   5.096   6.563  3.1807  1.4383 -0.3478
   6123SM   H7T 7785   2.931   5.238   6.449 -1.1754  0.1211 -1.0561
   6123SM   C8S 7786   2.954   5.054   6.340 -0.1894 -0.1066 -0.6504
   6123SM   H8S 7787   2.938   5.110   6.245 -0.6842  0.7041 -0.1008
   6123SM   H8T 7788   2.906   4.954   6.336  1.7735 -1.1221  0.1794
   6123SM   C9S 7789   3.096   5.026   6.352 -0.0531 -0.5912  0.8456
   6123SM   H9S 7790   3.123   4.991   6.453  0.8592 -0.8652  0.5181
   6123SM   H9T 7791   3.155   5.118   6.334  0.2212 -0.9918 -0.4204
   6123SM  C10S 7792   3.145   4.924   6.247  0.1081  0.2466 -0.1655
   6123SM  H10S 7793   3.087   4.831   6.263  0.2310 -0.1328 -1.7497
   6123SM  H10T 7794   3.251   4.899   6.268 -0.5409 -1.1862  1.7124
   6123SM  C11S 7795   3.139   4.957   6.097 -0.0925 -0.3493 -0.1125
   6123SM  H11S 7796   3.201   5.045   6.071 -1.4309  1.2839  1.8920
   6123SM  H11T 7797   3.032   4.983   6.083 -0.2230  0.4416  2.0588
   6123SM  C12S 7798   3.162   4.838   5.999 -0.0871  0.4462 -0.4672
   6123SM  H12S 7799   3.080   4.764   5.991 -0.3030  0.4793  1.0713
   6123SM  H12T 7800   3.259   4.785   6.008 -0.3538 -0.6855 -3.3732
   6123SM  C13S 7801   3.172   4.900   5.849 -0.6982  0.4104  0.4059
   6123SM  H13S 7802   3.256   4.966   5.880  0.2704 -0.8808  0.5779
   6123SM  H13T 7803   3.076   4.955   5.834 -0.7089 -0.0151 -1.3504
   6123SM  C14S 7804   3.208   4.797   5.743 -0.2690  0.0917  0.0990
   6123SM  H14S 7805   3.135   4.714   5.726 -1.7676  1.4966 -0.6816
   6123SM  H14T 7806   3.302   4.743   5.768  1.2091  1.4094 -2.2749
   6123SM  C15S 7807   3.225   4.867   5.604 -0.9272 -0.3686 -0.0234
   6123SM  H15S 7808   3.317   4.929   5.604 -0.6071 -0.7969  1.4122
   6123SM  H15T 7809   3.134   4.929   5.592  0.6260  2.2230  0.8338
   6123SM  C16S 7810   3.240   4.761   5.487  0.3007  0.2702  0.1268
   6123SM  H16S 7811   3.255   4.810   5.388 -1.5394 -1.3321 -1.0305
   6123SM  H16T 7812   3.148   4.701   5.472  0.7809 -0.1938 -1.0497
   6123SM  C17S 7813   3.339   4.648   5.503 -0.5338 -0.1009  0.4800
   6123SM  H17S 7814   3.319   4.596   5.599 -5.7086  0.6127  0.0787
   6123SM  H17T 7815   3.438   4.696   5.515 -0.1012 -0.9108  0.2479
   6123SM  C18S 7816   3.356   4.552   5.387  0.6787 -0.3544  0.0604
   6123SM  H18S 7817   3.261   4.495   5.379 -0.4031  1.4332 -0.5010
   6123SM  H18T 7818   3.445   4.490   5.410  0.3432 -0.4707  1.1254
   6123SM  H18U 7819   3.370   4.604   5.290  1.0078 -2.5283 -1.1172
   6123SM   C1F 7820   3.022   5.387   6.875 -0.2706  0.3428 -0.4964
   6123SM    OF 7821   2.999   5.289   6.949  0.1459 -0.1561  0.6173
   6123SM   C2F 7822   3.164   5.446   6.846 -0.1003  0.5926  0.0560
   6123SM   H2F 7823   3.228   5.419   6.933 -0.2292  0.4542  0.1086
   6123SM   H2G 7824   3.151   5.556   6.846 -0.9481  0.5177  1.6659
   6123SM   C3F 7825   3.227   5.376   6.720 -0.5157  0.7929 -0.3757
   6123SM   H3F 7826   3.204   5.268   6.727  0.3461  0.4967 -1.7465
   6123SM   H3G 7827   3.336   5.386   6.739 -0.9800  2.4959  1.9152
   6123SM   C4F 7828   3.183   5.434   6.585  0.0410 -0.0059 -0.4719
   6123SM   H4F 7829   3.172   5.545   6.593  1.4828  0.0028  2.8414
   6123SM   H4G 7830   3.085   5.394   6.553  0.8149 -0.9754 -1.7257
   6123SM   C5F 7831   3.284   5.393   6.480 -0.0490  0.4459 -0.1111
   6123SM   H5F 7832   3.315   5.287   6.492  0.2123  0.5672  0.3120
   6123SM   H5G 7833   3.370   5.461   6.500 -0.3688  0.9186 -0.3333
   6123SM   C6F 7834   3.229   5.405   6.336 -0.2511  0.1214 -0.3333
   6123SM   H6F 7835   3.200   5.511   6.319  1.6343  0.6597 -0.4957
   6123SM   H6G 7836   3.141   5.337   6.333  0.0905 -0.3680  0.4001
   6123SM   C7F 7837   3.320   5.362   6.217 -0.0800  0.5589 -0.1259
   6123SM   H7F 7838   3.332   5.254   6.238  0.4760  1.0179  2.2527
   6123SM   H7G 7839   3.417   5.415   6.230  0.3562 -0.5444  1.4281
   6123SM   C8F 7840   3.262   5.383   6.077 -0.9423 -0.2400  0.0000
   6123SM   H8F 7841   3.196   5.470   6.056 -0.0793  0.8059  1.4460
   6123SM   H8G 7842   3.196   5.294   6.088  0.5630 -1.2583  1.2735
   6123SM   C9F 7843   3.366   5.349   5.957  0.3599 -0.3599  0.2305
   6123SM   H9F 7844   3.420   5.261   5.996 -0.8529 -0.2775  2.2448
   6123SM   H9G 7845   3.430   5.440   5.962  1.3991 -1.0512 -0.2732
   6123SM  C10F 7846   3.297   5.331   5.820  0.4589  0.5301 -0.4639
   6123SM  H10F 7847   3.250   5.425   5.785  0.8934  0.8084 -0.2937
   6123SM  H10G 7848   3.214   5.261   5.844  1.0355 -0.5403 -1.4661
   6123SM  C11F 7849   3.383   5.286   5.701  0.1343  0.5449  0.3076
   6123SM  H11F 7850   3.428   5.191   5.735 -0.4785  0.2934  0.4428
   6123SM  H11G 7851   3.459   5.363   5.677  1.7978 -0.7287  1.3419
   6123SM  C12F 7852   3.298   5.262   5.576 -0.5524  0.2354  0.2321
   6123SM  H12F 7853   3.240   5.345   5.530 -1.7650 -1.5665 -1.6775
   6123SM  H12G 7854   3.219   5.195   5.616  0.8476 -1.0527  0.9628
   6123SM  C13F 7855   3.382   5.196   5.464  0.1942  0.2106  0.6298
   6123SM  H13F 7856   3.310   5.189   5.379  0.8369  0.6569  0.0400
   6123SM  H13G 7857   3.419   5.094   5.489 -1.1523 -0.4184  0.1517
   6123SM  C14F 7858   3.505   5.281   5.420 -0.4819 -0.5736  0.7901
   6123SM  H14F 7859   3.581   5.288   5.501  2.4009 -0.0560 -1.8136
   6123SM  H14G 7860   3.465   5.380   5.388 -0.2647 -0.6188  0.3896
   6123SM  C15F 7861   3.588   5.222   5.307 -0.3271 -0.6720 -0.0271
   6123SM  H15F 7862   3.521   5.231   5.218 -0.8271  1.4128  0.5085
   6123SM  H15G 7863   3.609   5.116   5.333  1.0675  0.3779  3.8267
   6123SM  C16F 7864   3.722   5.293   5.295 -0.4848 -0.3687 -0.9025
   6123SM  H16F 7865   3.798   5.239   5.236  2.1325  0.7693  1.2345
   6123SM  H16G 7866   3.759   5.292   5.400  1.5139 -0.6261 -1.5829
   6123SM  C17F 7867   3.722   5.446   5.255  0.3157  0.0692 -0.1300
   6123SM  H17F 7868   3.652   5.497   5.324  0.2123  0.1474 -0.2927
   6123SM  H17G 7869   3.677   5.466   5.155  0.2558  0.9025  0.0591
   6123SM  C18F 7870   3.863   5.509   5.255 -0.2282  0.1273  0.7689
   6123SM  H18F 7871   3.933   5.446   5.197  1.1973  2.1135  0.2669
   6123SM  H18G 7872   3.901   5.504   5.360  0.9044 -2.8257  0.3248
   6123SM  C19F 7873   3.859   5.650   5.187 -0.1507 -0.6066 -0.5812
   6123SM  H19F 7874   3.797   5.717   5.251  0.1315  0.2737 -1.2327
   6123SM  H19G 7875   3.810   5.656   5.088 -0.7236 -0.6477 -0.3072
   6123SM  C20F 7876   4.000   5.716   5.190 -1.0443  0.4195  0.0266
   6123SM  H20F 7877   4.071   5.641   5.150 -1.7377 -1.2914  1.8406
   6123SM  H20G 7878   4.034   5.741   5.293  0.6237 -0.5845 -0.2442
   6123SM  C21F 7879   4.032   5.832   5.093 -0.2461 -0.1298  1.0868
   6123SM  H21F 7880   3.961   5.915   5.114 -0.6910 -0.2945  0.2600
   6123SM  H21G 7881   4.025   5.802   4.986  1.1484  0.7409  0.7231
   6123SM  C22F 7882   4.174   5.901   5.104 -0.0014 -0.0575 -0.2434
   6123SM  H22F 7883   4.240   5.812   5.113 -1.2779 -0.9648  0.3516
   6123SM  H22G 7884   4.173   5.966   5.194 -2.2562  2.0071 -1.6249
   6123SM  C23F 7885   4.213   5.987   4.983  0.5387 -0.2684 -0.3849
   6123SM  H23F 7886   4.273   6.075   5.015  0.4248  1.2425 -3.8077
   6123SM  H23G 7887   4.127   6.015   4.918 -0.7695 -2.2018  0.4300
   6123SM  H23H 7888   4.271   5.929   4.908 -2.1029 -0.7715 -2.1931
   6223SM     N 7889   3.579   4.152   7.469 -0.0408  1.3438 -0.4484
   6223SM   C15 7890   3.449   4.111   7.541 -0.4775 -0.6066  0.2176
   6223SM  H15A 7891   3.465   4.084   7.645  2.8547  2.9975  0.8739
   6223SM  H15B 7892   3.396   4.026   7.503 -1.1625  0.9723 -2.6136
   6223SM  H15C 7893   3.382   4.195   7.550  1.0057  0.6639 -0.1944
   6223SM   C14 7894   3.638   4.265   7.543 -0.0449  0.6325 -0.6418
   6223SM  H14A 7895   3.728   4.298   7.493  0.2002  0.2691 -0.4421
   6223SM  H14B 7896   3.656   4.244   7.647 -1.1280  1.5470 -0.2405
   6223SM  H14C 7897   3.575   4.353   7.548 -0.0638  0.5897 -0.0824
   6223SM   C13 7898   3.666   4.031   7.483  0.2265  0.4466 -0.2387
   6223SM  H13A 7899   3.756   4.060   7.430  1.5145  3.2474  3.0766
   6223SM  H13B 7900   3.619   3.941   7.446  1.8722 -1.5401  2.1039
   6223SM  H13C 7901   3.695   4.015   7.586  3.6934  0.5541 -1.0798
   6223SM   C12 7902   3.558   4.183   7.325  0.9199  0.0102 -0.5675
   6223SM  H12A 7903   3.485   4.261   7.317  1.5236  0.8921  1.6614
   6223SM  H12B 7904   3.508   4.100   7.277 -0.9460  0.8939 -0.2055
   6223SM   C11 7905   3.690   4.237   7.252 -0.2833 -0.0208 -0.0315
   6223SM  H11A 7906   3.694   4.212   7.144 -1.4192 -0.3457 -0.0062
   6223SM  H11B 7907   3.777   4.188   7.301  0.5532 -0.2377 -1.6679
   6223SM     P 7908   3.608   4.482   7.215 -0.6044  0.4747  0.1513
   6223SM   O13 7909   3.477   4.462   7.289 -0.1888 -0.1409  0.3200
   6223SM   O14 7910   3.668   4.617   7.217 -0.4361 -0.0408 -0.2106
   6223SM   O11 7911   3.603   4.425   7.073  0.1199 -0.8967  0.4363
   6223SM   O12 7912   3.711   4.382   7.263  0.2313  0.3065  0.0401
   6223SM   C1S 7913   3.497   4.429   6.983  0.4807 -0.3256 -0.5797
   6223SM   H1S 7914   3.423   4.506   7.014  2.2899  1.3560 -0.2870
   6223SM   H1T 7915   3.435   4.337   6.974 -0.2876  0.1542 -0.3221
   6223SM    NF 7916   3.447   4.491   6.747  0.2936  0.1287  0.4499
   6223SM   HNF 7917   3.404   4.417   6.696  1.9002  0.8496 -2.1521
   6223SM   C2S 7918   3.553   4.467   6.841 -0.4681 -0.0853 -0.1060
   6223SM   H2S 7919   3.615   4.560   6.849  0.5361 -0.7600  0.1372
   6223SM   C3S 7920   3.648   4.350   6.802  0.5530 -0.0287  0.1423
   6223SM   H3S 7921   3.582   4.261   6.800  1.9634 -1.0956 -1.4960
   6223SM    O3 7922   3.740   4.306   6.899  0.1561  0.4465 -0.0994
   6223SM   HO3 7923   3.703   4.345   6.979 -1.9769 -0.0837 -0.7847
   6223SM   C4S 7924   3.718   4.371   6.673  0.2563 -0.5012  0.6778
   6223SM   H4S 7925   3.732   4.480   6.668 -0.0930 -0.3696  2.1503
   6223SM   C5S 7926   3.729   4.290   6.558  0.2867  0.0002 -0.4784
   6223SM   H5S 7927   3.672   4.196   6.562  0.8389 -0.3364 -0.4065
   6223SM   C6S 7928   3.797   4.327   6.430 -0.0108  0.0534  0.0381
   6223SM   H6S 7929   3.891   4.269   6.419  1.6739  2.2884  1.7676
   6223SM   H6T 7930   3.834   4.431   6.442 -0.5971  0.0113  2.7224
   6223SM   C7S 7931   3.722   4.326   6.299 -0.2457  0.7035  0.6484
   6223SM   H7S 7932   3.695   4.431   6.275  0.7629  1.1132  1.2685
   6223SM   H7T 7933   3.626   4.272   6.318 -0.1030  0.5644  0.9864
   6223SM   C8S 7934   3.808   4.275   6.185  1.0507  0.1338 -0.8144
   6223SM   H8S 7935   3.870   4.188   6.217 -0.1258 -0.3891  0.1707
   6223SM   H8T 7936   3.870   4.358   6.147  0.2120  0.9624 -0.4100
   6223SM   C9S 7937   3.715   4.222   6.070 -0.1288  0.7062 -0.0522
   6223SM   H9S 7938   3.646   4.298   6.030 -0.7760 -1.9358 -4.5407
   6223SM   H9T 7939   3.645   4.144   6.108 -2.0639  0.8322 -3.0566
   6223SM  C10S 7940   3.802   4.175   5.955  0.0596  0.0882  0.6160
   6223SM  H10S 7941   3.851   4.076   5.965  0.0251  0.0866  0.7624
   6223SM  H10T 7942   3.889   4.244   5.942  0.6758 -0.6317  0.8694
   6223SM  C11S 7943   3.718   4.145   5.835 -0.4431 -0.2404  0.0625
   6223SM  H11S 7944   3.645   4.226   5.812  0.4021  0.7069  0.6178
   6223SM  H11T 7945   3.663   4.054   5.865 -0.6676 -0.3383 -0.6212
   6223SM  C12S 7946   3.807   4.117   5.708  0.1027  0.0905  0.1295
   6223SM  H12S 7947   3.742   4.080   5.626 -1.2343  2.1997  0.1705
   6223SM  H12T 7948   3.878   4.033   5.725 -0.7555 -0.5148  0.7795
   6223SM  C13S 7949   3.889   4.238   5.664 -0.6313 -0.6586  0.6136
   6223SM  H13S 7950   3.991   4.234   5.708 -0.4998  1.0948  0.5615
   6223SM  H13T 7951   3.850   4.332   5.708  1.1278 -0.5589  2.0740
   6223SM  C14S 7952   3.918   4.263   5.512  0.2936  1.0558 -0.0074
   6223SM  H14S 7953   3.979   4.177   5.477  0.3159  1.8027 -1.9108
   6223SM  H14T 7954   3.980   4.355   5.512  0.6701  0.8193 -1.3417
   6223SM  C15S 7955   3.789   4.266   5.424 -0.2140 -0.2327 -0.6778
   6223SM  H15S 7956   3.742   4.366   5.430 -0.4341 -0.3325 -0.7524
   6223SM  H15T 7957   3.718   4.197   5.474  0.7809 -0.5713  0.3047
   6223SM  C16S 7958   3.818   4.241   5.277 -0.5466  0.0897 -0.2196
   6223SM  H16S 7959   3.862   4.140   5.268 -0.8836 -0.1213  0.4170
   6223SM  H16T 7960   3.907   4.295   5.237  0.0624 -1.2870 -0.7820
   6223SM  C17S 7961   3.703   4.263   5.180 -0.5311 -0.3928 -0.5368
   6223SM  H17S 7962   3.733   4.210   5.087  0.9650 -0.7815  0.1302
   6223SM  H17T 7963   3.690   4.368   5.149  0.4401 -0.2980 -0.6687
   6223SM  C18S 7964   3.564   4.218   5.232  0.2123 -0.2636  0.4079
   6223SM  H18S 7965   3.541   4.291   5.312  0.0887 -0.8174  0.8885
   6223SM  H18T 7966   3.552   4.111   5.261 -2.8000 -0.6310 -1.7130
   6223SM  H18U 7967   3.485   4.216   5.153 -0.4395  0.1585  1.0388
   6223SM   C1F 7968   3.379   4.609   6.749 -1.0405 -0.2074 -0.1045
   6223SM    OF 7969   3.434   4.713   6.793  0.0595 -0.1414  0.1494
   6223SM   C2F 7970   3.234   4.607   6.720  0.2005 -0.5123 -0.4453
   6223SM   H2F 7971   3.186   4.680   6.788  1.6186  0.4197 -0.3976
   6223SM   H2G 7972   3.196   4.509   6.757  0.5310  0.4108  2.6060
   6223SM   C3F 7973   3.201   4.645   6.578  0.4000 -0.3521  0.4801
   6223SM   H3F 7974   3.248   4.740   6.547  0.0194 -0.5311 -0.7139
   6223SM   H3G 7975   3.091   4.661   6.569  0.1602 -2.1020 -0.1326
   6223SM   C4F 7976   3.242   4.534   6.475  0.3039 -0.1790  0.1691
   6223SM   H4F 7977   3.204   4.432   6.501  3.0995 -1.2465  0.4359
   6223SM   H4G 7978   3.353   4.530   6.487  0.3708 -0.0085 -0.3847
   6223SM   C5F 7979   3.210   4.563   6.325  0.1837 -0.3419 -0.3882
   6223SM   H5F 7980   3.229   4.671   6.310 -0.1805 -0.3750 -1.1717
   6223SM   H5G 7981   3.105   4.541   6.296  0.1859 -1.9807  0.7026
   6223SM   C6F 7982   3.303   4.482   6.249 -0.1693 -0.6064  0.3662
   6223SM   H6F 7983   3.270   4.376   6.242  0.8750 -1.0258  1.4973
   6223SM   H6G 7984   3.411   4.482   6.275 -0.0991  1.9309  0.2508
   6223SM   C7F 7985   3.313   4.525   6.099 -0.1718 -0.1412  0.5045
   6223SM   H7F 7986   3.372   4.619   6.095  1.5460 -1.2249 -1.4507
   6223SM   H7G 7987   3.207   4.541   6.068 -1.0849 -2.1250  2.3540
   6223SM   C8F 7988   3.376   4.427   6.002 -0.3912 -0.3711  0.2360
   6223SM   H8F 7989   3.443   4.364   6.064 -1.8090 -2.0656  0.1234
   6223SM   H8G 7990   3.430   4.477   5.918 -4.5785  0.8617 -1.9898
   6223SM   C9F 7991   3.263   4.343   5.933  0.6716  1.5785 -0.1824
   6223SM   H9F 7992   3.184   4.396   5.875  0.5319  0.5709 -0.9406
   6223SM   H9G 7993   3.199   4.311   6.018 -1.0111  1.7255 -1.3307
   6223SM  C10F 7994   3.314   4.233   5.840 -0.4068 -0.2411  0.3702
   6223SM  H10F 7995   3.225   4.168   5.822 -0.1914 -0.4073 -0.1354
   6223SM  H10G 7996   3.396   4.173   5.886 -0.3890  1.6226  2.9520
   6223SM  C11F 7997   3.357   4.282   5.699  0.5791 -0.0297 -0.6478
   6223SM  H11F 7998   3.435   4.357   5.725  0.3304 -0.5350  1.8630
   6223SM  H11G 7999   3.274   4.326   5.640  1.0966  0.8378 -0.7525
   6223SM  C12F 8000   3.421   4.180   5.609  0.2035 -0.2468 -0.0505
   6223SM  H12F 8001   3.529   4.164   5.630  0.5457  1.2642 -0.5291
   6223SM  H12G 8002   3.426   4.220   5.506  0.2589  1.4706  0.5815
   6223SM  C13F 8003   3.359   4.038   5.595  0.0433  0.2556 -0.9990
   6223SM  H13F 8004   3.256   4.038   5.553 -0.8929 -1.3451  1.1244
   6223SM  H13G 8005   3.351   3.997   5.698  1.7586  2.2474  0.0229
   6223SM  C14F 8006   3.449   3.945   5.516 -0.8791  0.5963  0.1712
   6223SM  H14F 8007   3.543   3.929   5.573  0.4976 -1.2217 -2.3818
   6223SM  H14G 8008   3.478   3.989   5.417 -0.1732  0.0463  0.1252
   6223SM  C15F 8009   3.383   3.809   5.486 -0.1657  0.0148 -0.2865
   6223SM  H15F 8010   3.282   3.819   5.441 -1.9638 -1.2855  3.1117
   6223SM  H15G 8011   3.370   3.762   5.586  0.8965  0.0703 -0.1131
   6223SM  C16F 8012   3.467   3.717   5.405  0.3440 -0.1152  0.0975
   6223SM  H16F 8013   3.444   3.609   5.417  2.5504 -0.4477  2.0758
   6223SM  H16G 8014   3.569   3.715   5.449  0.1122 -0.0997  0.6442
   6223SM  C17F 8015   3.457   3.743   5.254  0.1186  0.1576  0.3821
   6223SM  H17F 8016   3.479   3.848   5.227 -0.2608 -0.1774 -1.3263
   6223SM  H17G 8017   3.349   3.736   5.226 -0.1635 -3.0139  1.8281
   6223SM  C18F 8018   3.543   3.642   5.174  0.2452  0.2522  0.0698
   6223SM  H18F 8019   3.508   3.646   5.068  0.9217 -1.8283 -0.2694
   6223SM  H18G 8020   3.533   3.543   5.222 -1.4438  1.1112  1.6255
   6223SM  C19F 8021   3.690   3.677   5.166  0.6752  0.2682  0.1082
   6223SM  H19F 8022   3.735   3.664   5.267  0.7721 -0.6033 -0.0413
   6223SM  H19G 8023   3.699   3.779   5.123  1.4200  0.1571 -0.0075
   6223SM  C20F 8024   3.774   3.600   5.063 -0.0555 -0.9646 -0.3883
   6223SM  H20F 8025   3.768   3.491   5.083  0.7936 -0.8968  0.2867
   6223SM  H20G 8026   3.878   3.638   5.062  0.4002 -1.7797  3.3128
   6223SM  C21F 8027   3.723   3.621   4.918  0.3648 -0.6868 -0.6198
   6223SM  H21F 8028   3.682   3.721   4.894  1.7618 -0.6240 -3.0417
   6223SM  H21G 8029   3.641   3.547   4.907  1.8665 -2.4135 -0.7287
   6223SM  C22F 8030   3.827   3.592   4.812 -0.2900  0.2519  0.4317
   6223SM  H22F 8031   3.905   3.671   4.812  1.3321 -1.2675  0.9680
   6223SM  H22G 8032   3.777   3.590   4.713 -1.2809  0.6787  0.9124
   6223SM  C23F 8033   3.911   3.459   4.835  0.0869 -0.4960 -0.3253
   6223SM  H23F 8034   3.972   3.469   4.927  1.3735 -1.9378 -0.9684
   6223SM  H23G 8035   3.970   3.428   4.746 -1.9770  2.2013 -2.8449
   6223SM  H23H 8036   3.846   3.371   4.853 -0.3117  0.0718  1.1616
   6323SM     N 8037   5.020   6.569   7.120  0.1846 -0.0116 -0.0377
   6323SM   C15 8038   5.093   6.490   7.219 -0.3913 -0.3538 -1.0035
   6323SM  H15A 8039   5.199   6.492   7.198 -0.3083 -1.7166 -0.7811
   6323SM  H15B 8040   5.075   6.384   7.210  0.7228 -0.8204  1.4181
   6323SM  H15C 8041   5.070   6.511   7.322 -1.5322 -0.3959 -1.2367
   6323SM   C14 8042   4.877   6.530   7.125  0.3538  0.5850 -0.2251
   6323SM  H14A 8043   4.816   6.594   7.062  0.1117  0.1607 -0.4257
   6323SM  H14B 8044   4.831   6.542   7.222 -3.0338  0.0188 -1.6121
   6323SM  H14C 8045   4.862   6.429   7.091  0.9276  0.5114 -0.2597
   6323SM   C13 8046   5.029   6.720   7.153  0.3590  0.4644 -0.1354
   6323SM  H13A 8047   4.980   6.772   7.071  1.4537  0.3150 -0.9050
   6323SM  H13B 8048   5.132   6.751   7.144  0.4012  0.3979  0.1352
   6323SM  H13C 8049   4.979   6.748   7.244 -1.4047  0.4301 -1.0521
   6323SM   C12 8050   5.083   6.539   6.984 -0.4959 -0.1654 -0.3298
   6323SM  H12A 8051   5.191   6.539   6.983 -0.3636  1.7173  2.7408
   6323SM  H12B 8052   5.051   6.622   6.922  1.7636  2.4056  1.7098
   6323SM   C11 8053   5.035   6.411   6.899 -0.5083 -0.4520 -0.2409
   6323SM  H11A 8054   5.111   6.393   6.820 -1.1768 -0.8815 -0.7865
   6323SM  H11B 8055   4.942   6.441   6.847 -2.2252 -2.7642  1.3353
   6323SM     P 8056   4.898   6.202   6.969 -0.2985  0.0265 -0.0343
   6323SM   O13 8057   4.958   6.077   7.010 -0.0740  0.7181 -0.2853
   6323SM   O14 8058   4.787   6.244   7.049  0.2032 -0.5236 -0.1009
   6323SM   O11 8059   4.857   6.190   6.815  0.5396 -0.1616  0.1225
   6323SM   O12 8060   5.021   6.297   6.980  0.7410 -0.3534 -0.1183
   6323SM   C1S 8061   4.946   6.136   6.716 -0.0822 -0.8465  0.4628
   6323SM   H1S 8062   4.957   6.026   6.729 -1.3141 -1.0287  0.0705
   6323SM   H1T 8063   5.048   6.180   6.731  0.6501 -2.2180 -0.3120
   6323SM    NF 8064   4.991   6.094   6.472  0.6050 -0.4256 -0.1852
   6323SM   HNF 8065   5.047   6.152   6.413  0.0365 -0.3536 -0.6668
   6323SM   C2S 8066   4.900   6.155   6.571  0.6753  0.3349  0.2002
   6323SM   H2S 8067   4.804   6.100   6.563  1.1085 -0.3775 -0.1370
   6323SM   C3S 8068   4.884   6.303   6.532  1.2745  0.3800 -0.1360
   6323SM   H3S 8069   4.981   6.356   6.530  1.5860 -0.1156  1.0279
   6323SM    O3 8070   4.794   6.370   6.621 -0.3988  0.4594 -0.5971
   6323SM   HO3 8071   4.801   6.319   6.702 -0.3524  4.2339  2.0276
   6323SM   C4S 8072   4.816   6.307   6.392 -0.7305 -0.1370 -0.3576
   6323SM   H4S 8073   4.707   6.298   6.390 -0.7155 -1.5990  2.0022
   6323SM   C5S 8074   4.880   6.322   6.279 -0.0342  0.1111  0.4313
   6323SM   H5S 8075   4.988   6.342   6.279 -0.0872  0.7163 -2.1472
   6323SM   C6S 8076   4.817   6.312   6.142  0.2388  0.7026 -0.1296
   6323SM   H6S 8077   4.771   6.406   6.105 -0.3772  0.9133  1.1362
   6323SM   H6T 8078   4.738   6.234   6.139  1.1829 -0.4345  2.0736
   6323SM   C7S 8079   4.922   6.265   6.040  0.4278 -0.6597  0.0230
   6323SM   H7S 8080   4.881   6.217   5.949  0.8214  2.7062 -2.1071
   6323SM   H7T 8081   4.981   6.182   6.085  2.0543  1.2939  1.6763
   6323SM   C8S 8082   5.019   6.378   5.993 -0.0711  0.2096 -0.1711
   6323SM   H8S 8083   5.071   6.399   6.089 -2.2172 -0.7418  1.2769
   6323SM   H8T 8084   4.951   6.461   5.963 -2.0457 -0.4315  2.2114
   6323SM   C9S 8085   5.119   6.342   5.890  0.1104  0.0676 -0.4057
   6323SM   H9S 8086   5.155   6.241   5.921  1.2401 -0.1146 -2.1178
   6323SM   H9T 8087   5.211   6.404   5.901  0.2528 -0.5265  2.7144
   6323SM  C10S 8088   5.068   6.347   5.747 -0.0618 -0.4833 -0.3194
   6323SM  H10S 8089   4.958   6.361   5.755 -0.0451 -0.5710  0.0550
   6323SM  H10T 8090   5.096   6.252   5.696  0.9059  0.5160 -1.7187
   6323SM  C11S 8091   5.114   6.452   5.645 -0.0827 -0.4162 -0.0310
   6323SM  H11S 8092   5.225   6.450   5.649  0.0049  1.2400 -0.8371
   6323SM  H11T 8093   5.075   6.550   5.681 -1.9106 -1.0577 -0.1640
   6323SM  C12S 8094   5.060   6.426   5.503 -0.1678 -1.1410 -0.8385
   6323SM  H12S 8095   4.949   6.426   5.518 -0.1902 -0.2463 -0.9817
   6323SM  H12T 8096   5.093   6.322   5.484 -0.4489 -1.7034  1.4727
   6323SM  C13S 8097   5.101   6.507   5.381  0.0969  0.2794  0.5497
   6323SM  H13S 8098   5.084   6.613   5.411  0.0800  0.4861 -0.1741
   6323SM  H13T 8099   5.032   6.479   5.300  1.0323  1.1784 -0.5982
   6323SM  C14S 8100   5.253   6.497   5.341  0.4383  0.3638 -0.4675
   6323SM  H14S 8101   5.317   6.523   5.428 -0.8649 -0.0259  0.6460
   6323SM  H14T 8102   5.271   6.576   5.264  1.7960  0.2937 -0.2512
   6323SM  C15S 8103   5.286   6.362   5.277  0.4976  0.0861 -0.1982
   6323SM  H15S 8104   5.239   6.283   5.339 -0.4447 -0.2409 -1.3000
   6323SM  H15T 8105   5.396   6.347   5.273  0.4837 -0.1088  0.1712
   6323SM  C16S 8106   5.245   6.355   5.127  0.4211  0.5598 -0.2601
   6323SM  H16S 8107   5.307   6.433   5.078 -0.3338  0.5393 -1.2655
   6323SM  H16T 8108   5.141   6.390   5.115  1.2730  3.1999 -0.5547
   6323SM  C17S 8109   5.263   6.215   5.065  0.6200 -0.5197 -0.1951
   6323SM  H17S 8110   5.186   6.144   5.103 -0.7119 -0.7205 -2.9947
   6323SM  H17T 8111   5.364   6.172   5.082  0.6151 -0.4325  0.0587
   6323SM  C18S 8112   5.243   6.210   4.909 -0.0075  0.6049 -0.1961
   6323SM  H18S 8113   5.263   6.104   4.883 -0.3699  0.0475  1.6521
   6323SM  H18T 8114   5.315   6.275   4.855  1.8203 -2.5014 -1.7524
   6323SM  H18U 8115   5.137   6.232   4.881  0.2580  3.5093  0.6677
   6323SM   C1F 8116   5.012   5.966   6.461 -0.5664 -0.4627 -0.7348
   6323SM    OF 8117   4.937   5.884   6.511  0.2132 -0.3760  0.2781
   6323SM   C2F 8118   5.138   5.926   6.379 -0.1194 -0.6218 -0.4370
   6323SM   H2F 8119   5.221   5.998   6.393  1.7147 -2.7825  0.4010
   6323SM   H2G 8120   5.104   5.939   6.274  1.0775  1.2959 -0.6286
   6323SM   C3F 8121   5.189   5.783   6.414  0.5575  1.1120  0.6348
   6323SM   H3F 8122   5.105   5.711   6.397  1.3228  0.9605 -3.4327
   6323SM   H3G 8123   5.229   5.781   6.518  0.7983 -0.9618  0.5504
   6323SM   C4F 8124   5.291   5.718   6.326  0.2062  0.5026  0.5176
   6323SM   H4F 8125   5.320   5.613   6.349  0.0788  0.3896  0.1651
   6323SM   H4G 8126   5.385   5.777   6.327  0.3451  0.2916  0.0849
   6323SM   C5F 8127   5.244   5.695   6.175 -0.3066  0.2985  0.0277
   6323SM   H5F 8128   5.209   5.791   6.132  1.0105  1.2592  0.9846
   6323SM   H5G 8129   5.164   5.619   6.169  0.8482 -1.2811  2.6140
   6323SM   C6F 8130   5.350   5.625   6.095  0.0255 -0.4464  0.3789
   6323SM   H6F 8131   5.363   5.523   6.140  0.2557 -0.8752 -0.6333
   6323SM   H6G 8132   5.446   5.681   6.089 -1.0937  1.3906 -1.9262
   6323SM   C7F 8133   5.303   5.603   5.947  0.0567 -0.4099  0.8716
   6323SM   H7F 8134   5.287   5.695   5.888 -1.2418 -1.5591 -0.6549
   6323SM   H7G 8135   5.201   5.562   5.934 -0.3391  1.3014 -2.2626
   6323SM   C8F 8136   5.404   5.524   5.859  0.6063 -0.3007  0.3357
   6323SM   H8F 8137   5.433   5.439   5.924  1.4911 -0.0522  0.2776
   6323SM   H8G 8138   5.498   5.574   5.828  1.7391 -1.9851  0.8951
   6323SM   C9F 8139   5.337   5.478   5.729  0.1356  0.1221 -0.7942
   6323SM   H9F 8140   5.305   5.565   5.668  1.1878 -0.1855 -1.8424
   6323SM   H9G 8141   5.253   5.407   5.742 -0.9565  1.2382 -1.5775
   6323SM  C10F 8142   5.435   5.396   5.642 -0.4939  0.0700  0.5672
   6323SM  H10F 8143   5.475   5.322   5.715 -0.7057 -0.5402  0.0738
   6323SM  H10G 8144   5.523   5.456   5.611  0.0321 -0.8901  0.1710
   6323SM  C11F 8145   5.373   5.315   5.521  0.0517  0.5864 -0.2905
   6323SM  H11F 8146   5.283   5.254   5.542  0.8359 -0.1769  0.9973
   6323SM  H11G 8147   5.455   5.243   5.503 -0.3896 -0.3913  1.4011
   6323SM  C12F 8148   5.356   5.407   5.408 -0.7444  0.0613 -0.9145
   6323SM  H12F 8149   5.413   5.500   5.429  0.3658 -1.0927  1.5277
   6323SM  H12G 8150   5.253   5.446   5.395  0.5200  4.4248  0.4793
   6323SM  C13F 8151   5.396   5.328   5.279  0.0462  0.1487  0.2354
   6323SM  H13F 8152   5.321   5.247   5.272 -0.4166  0.6290 -0.4299
   6323SM  H13G 8153   5.498   5.284   5.284  0.1223  0.2630 -0.2752
   6323SM  C14F 8154   5.382   5.407   5.150 -0.4657 -0.3829 -0.0672
   6323SM  H14F 8155   5.439   5.502   5.166 -0.2113 -0.0933 -2.2739
   6323SM  H14G 8156   5.279   5.446   5.132  0.4878  2.2127 -0.4031
   6323SM  C15F 8157   5.430   5.340   5.030 -0.3493 -0.2121 -0.2598
   6323SM  H15F 8158   5.534   5.298   5.032 -0.4541 -0.4982 -0.7972
   6323SM  H15G 8159   5.430   5.416   4.950 -0.2723 -1.8504 -1.8954
   6323SM  C16F 8160   5.334   5.230   4.978 -0.1055 -0.1496  0.0157
   6323SM  H16F 8161   5.232   5.274   4.981  0.6218  1.8443 -1.8701
   6323SM  H16G 8162   5.344   5.144   5.048  3.4239 -0.2574 -0.4268
   6323SM  C17F 8163   5.368   5.201   4.832  0.4014 -0.0392  0.1983
   6323SM  H17F 8164   5.470   5.158   4.814 -0.5836 -1.7615 -1.6955
   6323SM  H17G 8165   5.357   5.288   4.764  0.4644 -0.1509  0.0441
   6323SM  C18F 8166   5.286   5.091   4.767 -0.0788 -0.1298 -0.5370
   6323SM  H18F 8167   5.183   5.127   4.745  0.4969  0.2114 -2.9195
   6323SM  H18G 8168   5.280   5.010   4.843 -1.3813  0.5486  0.1074
   6323SM  C19F 8169   5.344   5.048   4.629 -0.0493  0.3831 -0.1175
   6323SM  H19F 8170   5.274   4.972   4.587 -0.1249 -0.3646  1.3100
   6323SM  H19G 8171   5.445   5.002   4.635 -0.7103 -1.1143  0.1782
   6323SM  C20F 8172   5.349   5.164   4.529 -0.0180  0.2490  0.0369
   6323SM  H20F 8173   5.418   5.246   4.557  2.7542 -2.1994  0.8872
   6323SM  H20G 8174   5.244   5.197   4.523  0.2842  1.1395 -0.4749
   6323SM  C21F 8175   5.402   5.126   4.394 -0.1540  0.5244  0.7458
   6323SM  H21F 8176   5.331   5.056   4.345  0.3581 -1.1306  2.2453
   6323SM  H21G 8177   5.505   5.084   4.406 -0.1544  0.8250  1.9878
   6323SM  C22F 8178   5.420   5.246   4.295  0.5779  0.5483 -0.1245
   6323SM  H22F 8179   5.460   5.193   4.206 -0.5159 -0.9456  0.2209
   6323SM  H22G 8180   5.489   5.319   4.342 -0.0521  0.7351  0.5258
   6323SM  C23F 8181   5.299   5.329   4.267  0.2089 -1.2209 -0.8230
   6323SM  H23F 8182   5.328   5.394   4.181  1.9762 -0.4174  0.3157
   6323SM  H23G 8183   5.262   5.393   4.349 -0.1663 -0.1186 -1.8241
   6323SM  H23H 8184   5.217   5.271   4.220  0.6407  0.2693 -3.6340
   6423SM     N 8185   5.999   4.465   7.104  0.0601  0.2503 -0.5145
   6423SM   C15 8186   6.031   4.485   7.254 -0.8796  0.3591  0.2913
   6423SM  H15A 8187   6.129   4.440   7.267 -1.2709 -0.1791  1.5202
   6423SM  H15B 8188   5.953   4.442   7.314 -1.2185  0.3152 -0.1752
   6423SM  H15C 8189   6.052   4.587   7.284 -1.0402  0.5554 -0.2574
   6423SM   C14 8190   6.113   4.522   7.039 -0.4399 -0.5381  0.1731
   6423SM  H14A 8191   6.098   4.539   6.934  0.7723  1.7816  0.2924
   6423SM  H14B 8192   6.200   4.460   7.051  0.4235  0.5245 -0.4458
   6423SM  H14C 8193   6.132   4.619   7.084 -1.1296  0.4088 -1.4754
   6423SM   C13 8194   5.963   4.318   7.082 -0.1384  0.0349 -0.1851
   6423SM  H13A 8195   5.936   4.290   6.981  1.1317 -2.5155  0.0840
   6423SM  H13B 8196   5.876   4.299   7.142  0.3399  0.1248  0.5566
   6423SM  H13C 8197   6.034   4.242   7.112 -1.0269  0.5536  3.8439
   6423SM   C12 8198   5.881   4.552   7.075  0.1561 -0.4448  0.7442
   6423SM  H12A 8199   5.920   4.652   7.090 -1.5198  0.7625 -2.0477
   6423SM  H12B 8200   5.803   4.536   7.148 -0.0407 -0.7891  0.4585
   6423SM   C11 8201   5.820   4.560   6.932 -0.0141  0.0665  0.0602
   6423SM  H11A 8202   5.715   4.594   6.942 -1.0753 -1.6904 -3.5383
   6423SM  H11B 8203   5.794   4.459   6.896 -0.7857  0.4108 -0.3571
   6423SM     P 8204   5.881   4.782   6.833 -0.1223 -0.6444 -0.0063
   6423SM   O13 8205   5.816   4.830   6.956 -0.6924 -0.1471  0.5009
   6423SM   O14 8206   6.002   4.855   6.778  0.1961 -0.2352 -0.2474
   6423SM   O11 8207   5.766   4.795   6.725  0.1305 -0.2776 -0.5255
   6423SM   O12 8208   5.901   4.629   6.838  0.1900 -0.1224  0.4570
   6423SM   C1S 8209   5.767   4.878   6.611 -0.4390  0.3093  0.6739
   6423SM   H1S 8210   5.869   4.910   6.581 -0.6815 -1.7393 -2.8692
   6423SM   H1T 8211   5.707   4.965   6.645  1.2666  1.5584  0.6262
   6423SM    NF 8212   5.718   4.897   6.362  0.7550 -0.0111  0.2819
   6423SM   HNF 8213   5.628   4.930   6.336 -0.0746 -0.6749  2.1206
   6423SM   C2S 8214   5.715   4.808   6.481  0.3143  0.4788  0.3087
   6423SM   H2S 8215   5.780   4.719   6.462 -0.1945  0.1653  0.0079
   6423SM   C3S 8216   5.577   4.748   6.505  0.4134  0.0181 -0.4922
   6423SM   H3S 8217   5.507   4.835   6.506  0.8965  0.4257 -1.0591
   6423SM    O3 8218   5.548   4.698   6.633  0.1594  0.4593  0.3341
   6423SM   HO3 8219   5.630   4.709   6.682  1.4327 -1.4728 -1.1743
   6423SM   C4S 8220   5.545   4.646   6.398 -0.0142 -0.2246 -0.0757
   6423SM   H4S 8221   5.613   4.560   6.397  0.0420 -0.1785 -0.9191
   6423SM   C5S 8222   5.445   4.658   6.303  0.4437 -0.3466  0.9013
   6423SM   H5S 8223   5.371   4.738   6.319 -0.3758 -0.7329 -0.6907
   6423SM   C6S 8224   5.403   4.567   6.194 -0.1902  1.1303 -0.2406
   6423SM   H6S 8225   5.414   4.617   6.096 -0.6480  0.0465 -0.8634
   6423SM   H6T 8226   5.295   4.544   6.206 -0.7910  1.2441 -4.2004
   6423SM   C7S 8227   5.475   4.426   6.178 -0.2581 -0.2616  0.0930
   6423SM   H7S 8228   5.456   4.361   6.266  2.2720 -1.0675  0.1426
   6423SM   H7T 8229   5.585   4.439   6.166 -0.2260 -1.9046 -2.0603
   6423SM   C8S 8230   5.437   4.362   6.043  0.5178  0.4718  0.2156
   6423SM   H8S 8231   5.483   4.420   5.960  1.6702 -1.7247 -0.7606
   6423SM   H8T 8232   5.328   4.385   6.041  0.1003 -1.3186 -0.7690
   6423SM   C9S 8233   5.475   4.214   6.041 -0.6544  0.2796  0.0893
   6423SM   H9S 8234   5.410   4.171   5.962 -1.0273 -0.8665  1.0003
   6423SM   H9T 8235   5.448   4.178   6.142 -1.6420  2.9926  0.8976
   6423SM  C10S 8236   5.619   4.183   6.005 -1.2715 -0.7785 -0.6465
   6423SM  H10S 8237   5.684   4.188   6.095  1.2920  0.7562 -2.4852
   6423SM  H10T 8238   5.652   4.268   5.941 -0.5094  1.1611  2.1312
   6423SM  C11S 8239   5.637   4.049   5.947 -0.0215  0.2869  0.0833
   6423SM  H11S 8240   5.734   4.045   5.893 -0.8720 -1.0006 -1.4237
   6423SM  H11T 8241   5.559   4.030   5.871  0.5527 -2.7345  0.1277
   6423SM  C12S 8242   5.650   3.934   6.060 -0.1291 -0.3258  0.3747
   6423SM  H12S 8243   5.553   3.936   6.114  1.4056 -0.3443  3.3455
   6423SM  H12T 8244   5.729   3.972   6.128  0.6959 -0.1818 -0.6363
   6423SM  C13S 8245   5.675   3.787   6.015  0.6598 -0.5786  0.6149
   6423SM  H13S 8246   5.658   3.712   6.095 -0.6145 -1.7988 -0.7420
   6423SM  H13T 8247   5.779   3.787   5.975 -0.1454 -2.6578 -1.7167
   6423SM  C14S 8248   5.576   3.754   5.907  0.5448 -0.0180  0.3865
   6423SM  H14S 8249   5.595   3.829   5.827 -2.4644 -0.0841 -0.5022
   6423SM  H14T 8250   5.471   3.767   5.940 -0.4793  0.8992 -2.8732
   6423SM  C15S 8251   5.589   3.611   5.856 -0.0224  0.5190  0.2776
   6423SM  H15S 8252   5.494   3.593   5.802  0.9121  0.8975 -1.5567
   6423SM  H15T 8253   5.595   3.544   5.945 -0.3235  1.2747  0.8793
   6423SM  C16S 8254   5.710   3.580   5.768 -0.6308 -0.2759 -0.2559
   6423SM  H16S 8255   5.739   3.474   5.781  1.2264  0.3844  1.6765
   6423SM  H16T 8256   5.796   3.635   5.812 -0.9372 -0.1316  0.1694
   6423SM  C17S 8257   5.687   3.608   5.620  0.1630  0.5927 -0.4549
   6423SM  H17S 8258   5.678   3.715   5.594  2.4063  1.5398  2.1661
   6423SM  H17T 8259   5.589   3.566   5.588 -0.2053  1.9181 -1.1289
   6423SM  C18S 8260   5.799   3.547   5.528  0.3685 -1.1185 -0.4669
   6423SM  H18S 8261   5.891   3.596   5.566  0.1945 -0.4895 -0.8343
   6423SM  H18T 8262   5.785   3.580   5.423  0.1672 -1.1890 -0.4633
   6423SM  H18U 8263   5.811   3.437   5.532  1.4371 -1.0235 -0.8393
   6423SM   C1F 8264   5.830   4.949   6.316  0.6506 -0.0934 -0.3151
   6423SM    OF 8265   5.937   4.933   6.371 -0.1372  0.2879 -0.3513
   6423SM   C2F 8266   5.810   5.047   6.204  0.0925  0.0291  0.0887
   6423SM   H2F 8267   5.872   5.140   6.205  1.5365 -0.7157 -3.4828
   6423SM   H2G 8268   5.706   5.086   6.207 -0.0746 -0.4845  1.8267
   6423SM   C3F 8269   5.837   4.980   6.071 -0.3474  0.7673  0.0062
   6423SM   H3F 8270   5.761   4.903   6.045 -0.2423  0.3940  0.7487
   6423SM   H3G 8271   5.925   4.914   6.086 -1.6622 -1.0431  0.1537
   6423SM   C4F 8272   5.859   5.073   5.954  0.6991 -0.0482 -0.1459
   6423SM   H4F 8273   5.948   5.139   5.970 -0.8567  2.0463  0.3354
   6423SM   H4G 8274   5.774   5.143   5.964 -0.2135 -0.4760 -3.6827
   6423SM   C5F 8275   5.858   4.990   5.827 -0.1429 -0.0217 -0.4529
   6423SM   H5F 8276   5.783   4.908   5.830  0.1418 -0.2717  1.9836
   6423SM   H5G 8277   5.963   4.953   5.820  0.2644  0.8233  0.8723
   6423SM   C6F 8278   5.825   5.078   5.704 -0.4015  0.5758 -0.0481
   6423SM   H6F 8279   5.914   5.142   5.688  0.0082  0.1403  0.4419
   6423SM   H6G 8280   5.734   5.142   5.704 -1.7238 -1.2013 -1.0267
   6423SM   C7F 8281   5.797   4.982   5.584 -0.2865  0.1264 -0.5527
   6423SM   H7F 8282   5.713   4.916   5.615 -0.1048 -0.2764 -0.9085
   6423SM   H7G 8283   5.882   4.910   5.575  0.2220  0.7764 -1.0550
   6423SM   C8F 8284   5.767   5.052   5.455  0.4051  0.0856 -0.1446
   6423SM   H8F 8285   5.832   5.141   5.437  1.3575  0.0864  2.7177
   6423SM   H8G 8286   5.665   5.091   5.474  0.5964  0.0563  1.0309
   6423SM   C9F 8287   5.752   4.953   5.338  0.9026  0.1281  0.4948
   6423SM   H9F 8288   5.685   4.871   5.371 -0.1881  0.9380  0.3730
   6423SM   H9G 8289   5.847   4.901   5.313  0.0912 -0.9994 -0.3484
   6423SM  C10F 8290   5.682   5.018   5.218  0.6207  0.0767  0.5314
   6423SM  H10F 8291   5.741   5.109   5.193  2.6918 -0.9504  1.4532
   6423SM  H10G 8292   5.574   5.033   5.239  0.3368  1.1144 -1.3603
   6423SM  C11F 8293   5.686   4.918   5.102  0.2457 -0.3931  0.4555
   6423SM  H11F 8294   5.661   4.818   5.143  0.2754 -0.4326  0.3771
   6423SM  H11G 8295   5.794   4.915   5.076 -0.1976 -1.4520 -1.4788
   6423SM  C12F 8296   5.601   4.957   4.984  0.0519  0.8272  1.5812
   6423SM  H12F 8297   5.615   5.064   4.960 -1.1692  0.9776  1.4584
   6423SM  H12G 8298   5.498   4.930   5.014  0.0193 -1.0806  0.0359
   6423SM  C13F 8299   5.635   4.883   4.849 -0.4016  0.2276 -0.3577
   6423SM  H13F 8300   5.542   4.869   4.789 -1.9658 -0.4347  2.1033
   6423SM  H13G 8301   5.666   4.780   4.872  0.2704  0.3100 -0.8682
   6423SM  C14F 8302   5.733   4.966   4.762  0.0590  0.6599  0.0656
   6423SM  H14F 8303   5.821   4.991   4.826 -0.1894  0.9573  0.2950
   6423SM  H14G 8304   5.678   5.060   4.739 -0.7079 -0.4608 -3.0783
   6423SM  C15F 8305   5.773   4.892   4.640 -0.3069 -0.2155 -0.1113
   6423SM  H15F 8306   5.684   4.878   4.575  2.2146  0.5858 -4.1667
   6423SM  H15G 8307   5.803   4.788   4.662 -0.4617 -0.2323  0.0146
   6423SM  C16F 8308   5.881   4.961   4.558  0.6769  0.4074 -0.0831
   6423SM  H16F 8309   5.981   4.946   4.605 -0.7338 -2.3188  2.3529
   6423SM  H16G 8310   5.860   5.070   4.555  0.5688  0.3842 -0.1811
   6423SM  C17F 8311   5.892   4.905   4.413  0.3656 -0.6913 -0.8877
   6423SM  H17F 8312   5.901   4.795   4.420 -0.0241 -0.7288 -0.9623
   6423SM  H17G 8313   5.980   4.946   4.359  0.5794 -1.1493 -0.8977
   6423SM  C18F 8314   5.764   4.926   4.326  0.5257  0.8182 -0.6956
   6423SM  H18F 8315   5.773   5.028   4.282  0.2722 -0.0832 -2.9870
   6423SM  H18G 8316   5.671   4.928   4.385 -0.2157  0.8726 -1.8288
   6423SM  C19F 8317   5.748   4.825   4.216  0.2604 -0.3312 -0.5116
   6423SM  H19F 8318   5.664   4.848   4.146  0.7127  2.1231 -0.3539
   6423SM  H19G 8319   5.725   4.727   4.263 -0.9343 -1.2538 -2.8436
   6423SM  C20F 8320   5.879   4.803   4.137  0.9821 -0.0358  0.4969
   6423SM  H20F 8321   5.952   4.754   4.204 -0.2617 -3.5247 -0.4949
   6423SM  H20G 8322   5.910   4.902   4.096 -0.2627 -0.3788 -1.4398
   6423SM  C21F 8323   5.863   4.721   4.008  0.4312 -0.8047 -0.8502
   6423SM  H21F 8324   5.784   4.777   3.954 -1.2104 -1.6302  0.5828
   6423SM  H21G 8325   5.816   4.622   4.027 -0.3206 -0.4749 -0.9796
   6423SM  C22F 8326   5.997   4.701   3.927  0.8254 -0.7998 -0.3781
   6423SM  H22F 8327   6.068   4.647   3.993  1.5368 -0.2748 -0.6988
   6423SM  H22G 8328   6.041   4.802   3.911 -0.4762 -0.1926 -0.3162
   6423SM  C23F 8329   5.989   4.633   3.793  0.7172 -0.6103 -0.1379
   6423SM  H23F 8330   5.940   4.690   3.711  0.9457 -0.3205 -0.0767
   6423SM  H23G 8331   5.926   4.542   3.796  1.9230 -1.4384  1.2192
   6423SM  H23H 8332   6.090   4.613   3.753  1.9312  1.8977  1.4102
   6523SM     N 8333   6.126   5.388   6.515  0.1913 -0.9684  0.4825
   6523SM   C15 8334   6.259   5.415   6.575 -0.1281 -0.0264 -0.3084
   6523SM  H15A 8335   6.308   5.500   6.530  0.6094  0.7758  1.8834
   6523SM  H15B 8336   6.327   5.332   6.565  0.5670  0.3660  0.9659
   6523SM  H15C 8337   6.240   5.445   6.676 -1.3845  0.5873 -0.7128
   6523SM   C14 8338   6.044   5.508   6.527 -0.4103  0.1574  0.1526
   6523SM  H14A 8339   6.100   5.591   6.487  0.8068 -0.8302 -0.2733
   6523SM  H14B 8340   6.010   5.530   6.627 -0.1541 -0.7058  0.4385
   6523SM  H14C 8341   5.946   5.494   6.483 -1.5490  1.0497  2.2625
   6523SM   C13 8342   6.144   5.355   6.364 -0.0135  0.0302  0.2950
   6523SM  H13A 8343   6.205   5.421   6.305  0.5881 -0.9542 -0.2053
   6523SM  H13B 8344   6.046   5.355   6.319  0.9620  3.5592 -2.2550
   6523SM  H13C 8345   6.186   5.257   6.348 -2.5653 -1.1808  0.4168
   6523SM   C12 8346   6.055   5.269   6.584  0.6997 -0.0233  0.3865
   6523SM  H12A 8347   6.054   5.295   6.688  0.1639 -0.5759  0.5325
   6523SM  H12B 8348   6.112   5.178   6.570 -1.8756 -1.6314 -0.3812
   6523SM   C11 8349   5.908   5.231   6.534 -0.4208 -0.1487 -0.4020
   6523SM  H11A 8350   5.874   5.141   6.588 -0.4678  1.9495  3.3794
   6523SM  H11B 8351   5.916   5.211   6.425  2.2827 -0.0508 -0.2934
   6523SM     P 8352   5.711   5.342   6.672  0.0507 -0.1224  0.1718
   6523SM   O13 8353   5.786   5.308   6.794  0.4823 -0.1605  0.6042
   6523SM   O14 8354   5.654   5.480   6.677 -0.0022 -0.0809  0.2183
   6523SM   O11 8355   5.594   5.249   6.640  0.0089  0.2072  0.3424
   6523SM   O12 8356   5.815   5.339   6.554  0.6788  0.0251  0.4542
   6523SM   C1S 8357   5.561   5.234   6.497  0.3763 -0.4286  0.0768
   6523SM   H1S 8358   5.619   5.152   6.450 -0.1181 -1.6169  1.4323
   6523SM   H1T 8359   5.569   5.330   6.442 -1.3130  0.1177  0.7134
   6523SM    NF 8360   5.372   5.211   6.345 -0.3302 -0.0091 -0.6432
   6523SM   HNF 8361   5.337   5.302   6.325 -1.1543 -0.3115 -0.6210
   6523SM   C2S 8362   5.412   5.198   6.482  0.2152 -0.0253  0.1407
   6523SM   H2S 8363   5.394   5.092   6.510  2.2673 -0.3224  0.4562
   6523SM   C3S 8364   5.319   5.285   6.575 -0.4945  0.4737 -0.0606
   6523SM   H3S 8365   5.362   5.387   6.558 -1.0590  0.3319 -2.8261
   6523SM    O3 8366   5.341   5.253   6.717 -0.0338  0.3485 -0.1840
   6523SM   HO3 8367   5.433   5.226   6.716  0.2132  1.0924  1.2179
   6523SM   C4S 8368   5.183   5.280   6.535  0.5153  0.4196  1.0222
   6523SM   H4S 8369   5.131   5.187   6.560  2.2253 -0.9003 -0.1056
   6523SM   C5S 8370   5.119   5.388   6.480 -0.1618 -0.4616 -0.2501
   6523SM   H5S 8371   5.181   5.476   6.459 -2.6806  1.0771 -1.7566
   6523SM   C6S 8372   4.974   5.402   6.448  0.0240  0.1348  0.3399
   6523SM   H6S 8373   4.943   5.490   6.507 -0.3771  0.2059  0.0301
   6523SM   H6T 8374   4.918   5.311   6.479 -0.1387  0.2281  0.3175
   6523SM   C7S 8375   4.938   5.435   6.300 -0.5181  0.2633 -0.2506
   6523SM   H7S 8376   4.959   5.541   6.276  1.4797 -0.2862 -1.0605
   6523SM   H7T 8377   4.831   5.406   6.287 -0.1824 -1.8127  1.0766
   6523SM   C8S 8378   5.027   5.354   6.195  0.3144  0.5762  0.4292
   6523SM   H8S 8379   5.044   5.249   6.225  1.6787 -0.0464 -2.1947
   6523SM   H8T 8380   5.125   5.404   6.183  1.9043 -2.5195 -0.3715
   6523SM   C9S 8381   4.942   5.365   6.066  0.1776  0.0047 -0.0944
   6523SM   H9S 8382   4.908   5.468   6.041 -0.2890 -0.3588 -0.9889
   6523SM   H9T 8383   4.846   5.317   6.094 -0.9431  2.0273 -0.2891
   6523SM  C10S 8384   5.015   5.293   5.952  0.5355 -0.2756  0.4734
   6523SM  H10S 8385   5.040   5.187   5.971 -1.2216 -0.8064  0.0320
   6523SM  H10T 8386   5.100   5.358   5.924  0.3366 -0.0729  0.3363
   6523SM  C11S 8387   4.935   5.296   5.818  0.5530  0.3790  0.1735
   6523SM  H11S 8388   4.889   5.395   5.799  1.0477  0.4030 -1.0251
   6523SM  H11T 8389   4.853   5.221   5.813 -0.5881  1.6629 -1.5858
   6523SM  C12S 8390   5.017   5.247   5.689 -0.6316  0.5319  0.7047
   6523SM  H12S 8391   5.080   5.157   5.708  0.0690  0.5760 -1.1856
   6523SM  H12T 8392   5.082   5.332   5.660  0.5066 -1.1236 -1.9308
   6523SM  C13S 8393   4.935   5.229   5.562 -0.3607  0.5898  0.3860
   6523SM  H13S 8394   5.004   5.210   5.477 -2.1924  1.4724 -1.3922
   6523SM  H13T 8395   4.872   5.319   5.548 -2.0623 -0.1625  2.7127
   6523SM  C14S 8396   4.841   5.104   5.570  0.7262 -0.2560 -0.4971
   6523SM  H14S 8397   4.759   5.130   5.640  1.5004  1.7520 -0.2741
   6523SM  H14T 8398   4.906   5.018   5.599 -0.9431 -2.2909 -2.4097
   6523SM  C15S 8399   4.770   5.067   5.438 -0.0574  0.1035  0.9491
   6523SM  H15S 8400   4.840   5.037   5.357 -0.4368  2.8632 -0.5547
   6523SM  H15T 8401   4.713   5.152   5.393  0.7150 -0.8020 -1.9603
   6523SM  C16S 8402   4.678   4.944   5.450  0.3631 -0.2545 -0.9572
   6523SM  H16S 8403   4.608   4.958   5.535 -1.6699  2.4872 -2.8903
   6523SM  H16T 8404   4.739   4.855   5.477  2.7842  1.1192 -1.6488
   6523SM  C17S 8405   4.587   4.916   5.327 -0.2322 -0.4110  0.5963
   6523SM  H17S 8406   4.525   4.824   5.333  2.3083 -2.4056 -1.2311
   6523SM  H17T 8407   4.657   4.900   5.241  1.9494  1.2412  1.9537
   6523SM  C18S 8408   4.498   5.039   5.282 -0.4467  0.6590  0.4906
   6523SM  H18S 8409   4.450   5.022   5.183  0.5387  1.7000 -0.1875
   6523SM  H18T 8410   4.554   5.132   5.261  1.5417 -0.6156 -0.2314
   6523SM  H18U 8411   4.432   5.049   5.371 -0.1111  2.3991  0.5769
   6523SM   C1F 8412   5.411   5.123   6.253 -0.2899  0.1840 -0.1768
   6523SM    OF 8413   5.473   5.025   6.291  0.1582  0.1738 -0.0527
   6523SM   C2F 8414   5.383   5.143   6.108  0.4017 -0.2002 -0.4038
   6523SM   H2F 8415   5.452   5.221   6.070 -0.0867 -0.8632 -2.8241
   6523SM   H2G 8416   5.276   5.171   6.098  0.5267  0.1036 -0.8941
   6523SM   C3F 8417   5.418   5.015   6.032  0.1094  0.7299 -0.1825
   6523SM   H3F 8418   5.351   4.932   6.065 -0.0737  0.6075 -0.8385
   6523SM   H3G 8419   5.517   4.969   6.052 -0.8079 -0.8533  0.9206
   6523SM   C4F 8420   5.401   5.030   5.881  0.2894  0.1214 -0.8461
   6523SM   H4F 8421   5.467   5.107   5.836 -1.2976  1.6647 -0.6560
   6523SM   H4G 8422   5.302   5.080   5.869  0.1391  0.1477  0.3623
   6523SM   C5F 8423   5.403   4.896   5.814  0.2288  0.1188 -0.0675
   6523SM   H5F 8424   5.304   4.853   5.838  0.4671 -0.7064 -0.5150
   6523SM   H5G 8425   5.478   4.830   5.863 -0.7523 -2.0877 -1.3685
   6523SM   C6F 8426   5.419   4.900   5.662  1.0300  0.2580 -0.1222
   6523SM   H6F 8427   5.476   4.807   5.641  0.6415 -0.5992  2.2292
   6523SM   H6G 8428   5.484   4.983   5.628  0.8146  0.6532  0.4185
   6523SM   C7F 8429   5.291   4.908   5.582 -0.6240  0.0198  0.1511
   6523SM   H7F 8430   5.227   4.996   5.604 -2.5023 -0.7659 -1.7923
   6523SM   H7G 8431   5.222   4.827   5.614 -1.1236  0.2147 -0.4155
   6523SM   C8F 8432   5.311   4.905   5.432  0.0335  0.1690  0.2371
   6523SM   H8F 8433   5.361   4.809   5.407 -0.7660 -0.0728 -0.4777
   6523SM   H8G 8434   5.377   4.987   5.397  2.0810 -2.2663 -2.0124
   6523SM   C9F 8435   5.171   4.917   5.363  0.3340 -0.4561 -0.8323
   6523SM   H9F 8436   5.143   5.024   5.377 -2.5345 -1.1706 -0.5383
   6523SM   H9G 8437   5.105   4.841   5.409 -1.7806  0.2838 -2.4748
   6523SM  C10F 8438   5.189   4.899   5.207 -0.4292 -1.0484 -0.1245
   6523SM  H10F 8439   5.255   4.809   5.203  2.8062  1.1022  0.7188
   6523SM  H10G 8440   5.245   4.987   5.169  0.9993 -2.0704 -0.4904
   6523SM  C11F 8441   5.064   4.896   5.130 -0.6302  0.1165  0.8297
   6523SM  H11F 8442   4.994   4.831   5.187 -0.2646 -1.0181  0.0281
   6523SM  H11G 8443   5.101   4.843   5.039  0.5644 -1.3990  2.1457
   6523SM  C12F 8444   5.008   5.029   5.093 -0.0578 -0.2468 -0.5510
   6523SM  H12F 8445   5.092   5.090   5.052 -1.2773  0.7651 -1.6172
   6523SM  H12G 8446   4.976   5.081   5.186  0.5194  2.0675 -1.5570
   6523SM  C13F 8447   4.889   5.016   5.002 -0.5665 -0.9089 -0.6810
   6523SM  H13F 8448   4.839   5.114   5.020  1.1521  0.5019 -3.0402
   6523SM  H13G 8449   4.827   4.934   5.046 -0.6619  0.7265  2.5916
   6523SM  C14F 8450   4.912   4.992   4.857 -0.3791  0.0113  1.0450
   6523SM  H14F 8451   4.959   4.891   4.850 -0.1976  0.1790 -0.9441
   6523SM  H14G 8452   4.985   5.070   4.826 -0.6397 -0.3725 -0.6693
   6523SM  C15F 8453   4.785   4.990   4.778 -0.4003  0.8785  0.3976
   6523SM  H15F 8454   4.722   4.899   4.789 -1.1761  1.0812 -1.7997
   6523SM  H15G 8455   4.821   4.991   4.673 -0.5271 -2.7373  0.1892
   6523SM  C16F 8456   4.683   5.109   4.794  0.4505 -0.1646 -0.0642
   6523SM  H16F 8457   4.741   5.204   4.792  0.7705 -0.3461  0.4359
   6523SM  H16G 8458   4.632   5.108   4.893 -1.6175  1.3747 -1.0371
   6523SM  C17F 8459   4.579   5.115   4.683  0.2173  0.2973 -0.3166
   6523SM  H17F 8460   4.505   5.032   4.682 -0.0950  0.5266 -2.9691
   6523SM  H17G 8461   4.638   5.119   4.589 -0.0491 -0.0984 -0.5020
   6523SM  C18F 8462   4.519   5.257   4.692  0.2700 -0.0166  0.0748
   6523SM  H18F 8463   4.598   5.334   4.695 -0.4576  0.7048  1.3333
   6523SM  H18G 8464   4.470   5.265   4.792 -0.0640  0.0098 -0.0906
   6523SM  C19F 8465   4.417   5.292   4.578 -0.1205  0.0295 -0.0633
   6523SM  H19F 8466   4.326   5.244   4.621  0.3635 -0.4177  0.4833
   6523SM  H19G 8467   4.449   5.241   4.484 -0.2003 -0.7566  0.3258
   6523SM  C20F 8468   4.381   5.439   4.559 -0.1917  0.9394  0.6201
   6523SM  H20F 8469   4.372   5.451   4.449  0.4329  0.2865  0.4876
   6523SM  H20G 8470   4.466   5.496   4.601  1.1439 -0.7382  0.3298
   6523SM  C21F 8471   4.249   5.482   4.625 -0.1088  0.1605 -0.4925
   6523SM  H21F 8472   4.268   5.483   4.735 -0.0259  0.0135 -0.5044
   6523SM  H21G 8473   4.167   5.409   4.607 -0.2999 -0.0473  1.0615
   6523SM  C22F 8474   4.200   5.626   4.593 -0.3768 -0.7663  0.5125
   6523SM  H22F 8475   4.281   5.690   4.633 -0.7790 -0.6419  1.1378
   6523SM  H22G 8476   4.107   5.645   4.651 -1.4224  2.9833 -2.0589
   6523SM  C23F 8477   4.167   5.656   4.443  0.7534 -0.3027 -0.2267
   6523SM  H23F 8478   4.111   5.568   4.404  1.7750 -0.3814 -1.5598
   6523SM  H23G 8479   4.253   5.670   4.375  0.7711  1.3185  0.0936
   6523SM  H23H 8480   4.098   5.743   4.439  2.2723  0.9517  0.1382
   6623SM     N 8481   4.404   3.900   7.160 -0.0373 -0.8482  0.3071
   6623SM   C15 8482   4.311   3.994   7.239 -0.0873 -0.3197  0.4591
   6623SM  H15A 8483   4.219   3.941   7.259  0.8545 -1.9052  0.8183
   6623SM  H15B 8484   4.290   4.079   7.176  1.0860 -1.2744 -1.3211
   6623SM  H15C 8485   4.349   4.031   7.333  1.2357  0.8041 -0.4599
   6623SM   C14 8486   4.379   3.908   7.014 -0.3091 -0.5265 -0.1976
   6623SM  H14A 8487   4.393   4.010   6.980  0.2406 -0.3798  0.4282
   6623SM  H14B 8488   4.276   3.880   7.000 -0.8697  0.3012  1.8091
   6623SM  H14C 8489   4.435   3.833   6.961 -0.1016 -2.5481  2.6566
   6623SM   C13 8490   4.538   3.962   7.179  0.0915 -0.2499  0.4244
   6623SM  H13A 8491   4.557   4.050   7.120 -1.5353  0.3832  0.7950
   6623SM  H13B 8492   4.612   3.893   7.139  1.4292  1.6993 -0.6137
   6623SM  H13C 8493   4.554   3.986   7.283  0.3485  0.4363  0.2309
   6623SM   C12 8494   4.391   3.756   7.218  0.1804 -0.4686 -0.4413
   6623SM  H12A 8495   4.294   3.711   7.203  0.4108 -0.7959 -1.0199
   6623SM  H12B 8496   4.404   3.760   7.325 -1.4408 -1.7912 -0.1564
   6623SM   C11 8497   4.483   3.653   7.165  0.2722  0.0744 -0.0833
   6623SM  H11A 8498   4.477   3.650   7.054 -0.4801 -2.0334 -0.0469
   6623SM  H11B 8499   4.453   3.555   7.209 -0.2150 -0.0467 -0.6663
   6623SM     P 8500   4.740   3.598   7.162  0.1762 -0.0522 -0.1338
   6623SM   O13 8501   4.858   3.652   7.237 -0.2663 -0.3230 -0.0656
   6623SM   O14 8502   4.704   3.456   7.183 -0.4933  0.3895  0.4495
   6623SM   O11 8503   4.759   3.623   7.010 -0.1076 -0.1340  0.1948
   6623SM   O12 8504   4.612   3.689   7.206 -0.0373 -0.3799  0.1888
   6623SM   C1S 8505   4.766   3.748   6.946  0.0060  0.3807  0.1760
   6623SM   H1S 8506   4.852   3.802   6.992  0.0873 -0.8047  1.4813
   6623SM   H1T 8507   4.685   3.815   6.982  1.1836  1.2340  1.3513
   6623SM    NF 8508   4.770   3.874   6.731  0.0537 -0.4624  0.1709
   6623SM   HNF 8509   4.687   3.919   6.699  1.6978  1.7443 -1.2389
   6623SM   C2S 8510   4.765   3.742   6.793 -0.3391 -0.3557  0.9480
   6623SM   H2S 8511   4.861   3.696   6.761 -1.4557 -0.6622 -2.4325
   6623SM   C3S 8512   4.652   3.641   6.738  0.3084  0.1423  0.8233
   6623SM   H3S 8513   4.557   3.683   6.778  0.7941  2.4449 -0.3046
   6623SM    O3 8514   4.658   3.506   6.780 -0.5622 -0.4565  0.1666
   6623SM   HO3 8515   4.725   3.513   6.848 -1.4611  3.7888  0.8931
   6623SM   C4S 8516   4.643   3.649   6.586 -0.0869 -0.1488  0.1255
   6623SM   H4S 8517   4.586   3.735   6.549  1.5836  0.0501 -2.2219
   6623SM   C5S 8518   4.697   3.568   6.489  0.0053 -0.0635 -0.0371
   6623SM   H5S 8519   4.771   3.496   6.526 -0.3664 -0.0687  0.7349
   6623SM   C6S 8520   4.685   3.572   6.338  0.4259  0.1476  0.1600
   6623SM   H6S 8521   4.588   3.522   6.316 -1.6649  3.6293  0.7125
   6623SM   H6T 8522   4.767   3.511   6.295  1.6273  1.2430  0.8549
   6623SM   C7S 8523   4.701   3.707   6.282  0.5165  0.2829 -0.0103
   6623SM   H7S 8524   4.799   3.743   6.320  0.1832  0.0030  1.1489
   6623SM   H7T 8525   4.619   3.770   6.324  0.1072 -0.7495  0.7803
   6623SM   C8S 8526   4.691   3.705   6.127 -0.2091  0.3925 -0.0837
   6623SM   H8S 8527   4.586   3.675   6.107 -1.8210  3.5708  2.6944
   6623SM   H8T 8528   4.759   3.625   6.091  0.2597 -0.5937  2.7290
   6623SM   C9S 8529   4.713   3.841   6.064  0.5881 -0.0573  0.5358
   6623SM   H9S 8530   4.783   3.890   6.135 -2.9601  0.4485  4.0434
   6623SM   H9T 8531   4.621   3.904   6.066 -0.1626 -1.1036 -0.1935
   6623SM  C10S 8532   4.750   3.831   5.913  0.2535 -0.6377 -0.3480
   6623SM  H10S 8533   4.848   3.782   5.893  0.0818 -0.2188 -2.4364
   6623SM  H10T 8534   4.760   3.940   5.893 -2.2967  0.2117  2.2517
   6623SM  C11S 8535   4.641   3.754   5.830 -0.2179 -0.0564 -0.0839
   6623SM  H11S 8536   4.547   3.813   5.835  0.1474  0.4068  1.8025
   6623SM  H11T 8537   4.615   3.656   5.876  1.6011 -0.3831  0.3138
   6623SM  C12S 8538   4.676   3.736   5.678  0.1221  0.3865  0.0572
   6623SM  H12S 8539   4.590   3.686   5.627 -0.7564  1.5050  0.4035
   6623SM  H12T 8540   4.770   3.678   5.670 -1.1132 -1.8229  0.6286
   6623SM  C13S 8541   4.695   3.870   5.614 -0.4122 -0.9185  0.3755
   6623SM  H13S 8542   4.786   3.925   5.647 -2.0401  1.4419  1.2140
   6623SM  H13T 8543   4.616   3.944   5.638 -0.4234 -0.6650 -0.3861
   6623SM  C14S 8544   4.701   3.862   5.461  0.1167  0.4546  0.2748
   6623SM  H14S 8545   4.606   3.810   5.435  1.0307 -2.0460  1.5488
   6623SM  H14T 8546   4.788   3.794   5.450 -0.9102 -0.9972  0.6839
   6623SM  C15S 8547   4.706   4.004   5.407 -0.2064  0.7968 -0.1076
   6623SM  H15S 8548   4.778   4.068   5.463 -0.5504 -0.6612  2.1612
   6623SM  H15T 8549   4.608   4.057   5.414 -0.4590  0.4245 -0.7547
   6623SM  C16S 8550   4.740   3.986   5.258 -0.5623  0.2027  0.0717
   6623SM  H16S 8551   4.658   3.935   5.203 -0.8055  0.7831 -0.1155
   6623SM  H16T 8552   4.833   3.926   5.251  0.1795  0.9609  2.4753
   6623SM  C17S 8553   4.762   4.128   5.202 -0.0004  0.2956  0.5023
   6623SM  H17S 8554   4.836   4.177   5.269 -1.3781  1.2358  1.4003
   6623SM  H17T 8555   4.666   4.183   5.191 -0.1912 -0.0619  0.3774
   6623SM  C18S 8556   4.833   4.129   5.064  0.1846 -0.1639 -0.1457
   6623SM  H18S 8557   4.785   4.056   4.995  1.3120  0.2806 -1.4439
   6623SM  H18T 8558   4.940   4.103   5.079 -0.1069 -0.8634  0.7950
   6623SM  H18U 8559   4.838   4.233   5.026  1.9011 -0.3514 -0.5271
   6623SM   C1F 8560   4.880   3.947   6.749 -0.5749  0.1047 -0.0096
   6623SM    OF 8561   4.978   3.903   6.808 -0.1312 -0.1666  0.6309
   6623SM   C2F 8562   4.873   4.090   6.703 -0.2096 -0.4535 -0.2310
   6623SM   H2F 8563   4.877   4.153   6.795  0.5652  0.8270 -1.1031
   6623SM   H2G 8564   4.779   4.116   6.651 -1.5891  1.5430  2.9387
   6623SM   C3F 8565   5.000   4.137   6.622  0.2471  0.4647 -0.1272
   6623SM   H3F 8566   5.097   4.118   6.673  1.1530 -0.4987 -2.0898
   6623SM   H3G 8567   5.001   4.248   6.622  0.0764  0.4684 -0.3604
   6623SM   C4F 8568   4.995   4.091   6.478 -0.2185 -0.3219 -0.7488
   6623SM   H4F 8569   5.056   4.165   6.422 -1.4264  0.4789 -1.0204
   6623SM   H4G 8570   4.891   4.090   6.441 -0.3478  3.8234 -0.9491
   6623SM   C5F 8571   5.078   3.961   6.450 -0.2683  0.2502 -0.6647
   6623SM   H5F 8572   5.026   3.867   6.477 -0.8828  0.7975  0.1014
   6623SM   H5G 8573   5.174   3.953   6.507 -1.3831 -1.9869  1.0384
   6623SM   C6F 8574   5.108   3.943   6.297  0.4448 -0.7611  0.6844
   6623SM   H6F 8575   5.198   4.003   6.271  0.5170 -0.1141  2.3424
   6623SM   H6G 8576   5.020   3.988   6.245  1.9327  0.2724 -1.0772
   6623SM   C7F 8577   5.123   3.795   6.250 -0.5031 -0.6371 -0.3204
   6623SM   H7F 8578   5.033   3.730   6.258  0.6391 -2.2149  0.3755
   6623SM   H7G 8579   5.199   3.747   6.316 -0.7295  0.1547  0.5319
   6623SM   C8F 8580   5.167   3.793   6.108  0.4419 -0.1617  0.3152
   6623SM   H8F 8581   5.268   3.836   6.094  0.6897 -0.6697  0.5112
   6623SM   H8G 8582   5.091   3.843   6.045 -0.0300  0.3585  1.2768
   6623SM   C9F 8583   5.176   3.658   6.046  0.2254  0.3190  0.4076
   6623SM   H9F 8584   5.085   3.596   6.058  0.8345 -0.5999  0.3949
   6623SM   H9G 8585   5.260   3.599   6.088 -0.6759 -0.9779  0.4669
   6623SM  C10F 8586   5.205   3.665   5.891  0.6442  0.0207 -0.7421
   6623SM  H10F 8587   5.292   3.732   5.874 -0.0587  1.6303  1.5460
   6623SM  H10G 8588   5.122   3.722   5.844 -1.1105 -0.9171  1.0338
   6623SM  C11F 8589   5.213   3.528   5.818  0.0810  0.6516 -0.4139
   6623SM  H11F 8590   5.121   3.472   5.843 -0.6711  1.5314 -1.1308
   6623SM  H11G 8591   5.298   3.468   5.858 -0.0932 -0.2533 -1.3668
   6623SM  C12F 8592   5.224   3.556   5.662  0.2099  0.7735 -0.5579
   6623SM  H12F 8593   5.306   3.628   5.644 -0.0682  1.1961 -0.1809
   6623SM  H12G 8594   5.127   3.603   5.634 -0.9193 -0.1689  1.5386
   6623SM  C13F 8595   5.238   3.434   5.569 -0.1601 -0.3406  0.2553
   6623SM  H13F 8596   5.334   3.380   5.574  1.2102  1.8955 -0.5102
   6623SM  H13G 8597   5.237   3.462   5.462  1.0548 -0.1557  0.2824
   6623SM  C14F 8598   5.134   3.328   5.591  0.7850  0.9804  0.2391
   6623SM  H14F 8599   5.148   3.298   5.697 -0.2330  0.8282  0.3366
   6623SM  H14G 8600   5.163   3.241   5.528  0.2641  1.5504 -0.8041
   6623SM  C15F 8601   4.982   3.360   5.575 -0.4393 -0.4529 -0.1481
   6623SM  H15F 8602   4.963   3.447   5.641  2.2603 -0.5823  0.8905
   6623SM  H15G 8603   4.926   3.273   5.615 -0.6344  0.8500  2.5993
   6623SM  C16F 8604   4.950   3.396   5.427  0.1037 -0.4608 -0.0312
   6623SM  H16F 8605   4.983   3.312   5.362  1.0414  0.8600 -1.3420
   6623SM  H16G 8606   5.011   3.486   5.402  0.9325 -0.8387  0.5939
   6623SM  C17F 8607   4.803   3.433   5.404 -0.1268 -0.1541  0.4121
   6623SM  H17F 8608   4.760   3.499   5.481  0.6730 -0.9824  1.6021
   6623SM  H17G 8609   4.745   3.338   5.410 -0.6566 -0.3246 -3.8407
   6623SM  C18F 8610   4.779   3.508   5.274 -0.1077 -0.0469  0.5283
   6623SM  H18F 8611   4.844   3.468   5.194 -0.3070 -1.6654  1.1353
   6623SM  H18G 8612   4.807   3.611   5.304 -0.1975 -0.2484  1.3445
   6623SM  C19F 8613   4.631   3.502   5.223 -0.4587 -0.1774  0.5347
   6623SM  H19F 8614   4.569   3.531   5.310  2.5948  2.0957  2.1556
   6623SM  H19G 8615   4.598   3.407   5.177  0.7857  0.1749 -1.2038
   6623SM  C20F 8616   4.609   3.590   5.098 -0.3281  0.0636  0.1578
   6623SM  H20F 8617   4.656   3.688   5.118  2.1837 -1.4034  1.9488
   6623SM  H20G 8618   4.500   3.601   5.077 -0.4033 -1.3770 -0.3659
   6623SM  C21F 8619   4.688   3.557   4.967  0.4599 -0.5933 -0.2738
   6623SM  H21F 8620   4.796   3.563   4.992  0.1439  0.3448  0.9588
   6623SM  H21G 8621   4.672   3.639   4.894 -0.9617  1.0186  1.7410
   6623SM  C22F 8622   4.644   3.422   4.915 -0.0926  0.8847  0.1338
   6623SM  H22F 8623   4.685   3.338   4.974 -1.0697  0.5499  0.3403
   6623SM  H22G 8624   4.692   3.400   4.817  1.7672  0.9947  0.9729
   6623SM  C23F 8625   4.490   3.410   4.901  0.7207 -0.3583  0.1838
   6623SM  H23F 8626   4.441   3.382   4.997 -1.4751  0.3164 -0.6726
   6623SM  H23G 8627   4.459   3.334   4.826 -1.5969  0.2603  0.4381
   6623SM  H23H 8628   4.448   3.504   4.859 -1.0961 -1.7428 -1.2785
   6723SM     N 8629   4.039   6.907   6.973  0.5237  0.1019 -0.0920
   6723SM   C15 8630   4.046   6.850   7.115 -0.7757 -0.0570 -0.4802
   6723SM  H15A 8631   4.110   6.910   7.178 -0.7874 -2.5420  2.0912
   6723SM  H15B 8632   4.088   6.750   7.115  1.0028  0.6236 -1.6711
   6723SM  H15C 8633   3.952   6.849   7.168  0.3301 -1.8251  1.6031
   6723SM   C14 8634   3.947   6.813   6.895  0.1799 -0.0056  0.5965
   6723SM  H14A 8635   3.938   6.834   6.789 -0.2716 -0.1329  0.6087
   6723SM  H14B 8636   3.846   6.830   6.930 -0.3278 -1.9346  0.1932
   6723SM  H14C 8637   3.965   6.709   6.916  0.3379  0.0354  0.6648
   6723SM   C13 8638   3.981   7.044   6.969  0.1568 -0.2617  0.4457
   6723SM  H13A 8639   3.963   7.077   6.868  0.3387  2.9618  1.3468
   6723SM  H13B 8640   4.036   7.120   7.022 -0.0893 -1.8022  3.0561
   6723SM  H13C 8641   3.885   7.049   7.017  0.3910  1.2450  0.8133
   6723SM   C12 8642   4.179   6.909   6.911  0.4266  0.0939 -0.2111
   6723SM  H12A 8643   4.239   6.984   6.961 -0.2907 -0.1572  1.0492
   6723SM  H12B 8644   4.167   6.944   6.809  0.1924  0.4971 -0.0454
   6723SM   C11 8645   4.270   6.781   6.892  0.3874  0.2758 -0.0602
   6723SM  H11A 8646   4.372   6.805   6.856  1.3052  0.0070  2.1588
   6723SM  H11B 8647   4.217   6.718   6.817 -2.6449 -1.8468  3.5153
   6723SM     P 8648   4.406   6.674   7.097  0.1244  0.0033  0.0400
   6723SM   O13 8649   4.433   6.794   7.175 -0.2006 -0.3571 -0.1547
   6723SM   O14 8650   4.399   6.543   7.166 -0.0745 -0.4207 -0.1251
   6723SM   O11 8651   4.520   6.671   6.984 -0.1295  0.5280  0.3710
   6723SM   O12 8652   4.269   6.692   7.016 -0.0451 -0.3825  0.3365
   6723SM   C1S 8653   4.528   6.554   6.906  0.4294  0.4496  0.5533
   6723SM   H1S 8654   4.434   6.496   6.894  1.5451 -0.8072 -3.6414
   6723SM   H1T 8655   4.600   6.486   6.957 -0.5130  0.6077  2.1687
   6723SM    NF 8656   4.556   6.471   6.673 -0.0686 -0.1857  0.6460
   6723SM   HNF 8657   4.641   6.437   6.633 -1.5990 -2.0141 -1.3281
   6723SM   C2S 8658   4.570   6.590   6.760 -0.4368  0.2220  0.6022
   6723SM   H2S 8659   4.492   6.657   6.717 -0.1941 -0.0943 -0.3531
   6723SM   C3S 8660   4.713   6.644   6.774 -0.4042 -0.2267 -0.2539
   6723SM   H3S 8661   4.766   6.561   6.824  1.7946  0.6834 -0.9582
   6723SM    O3 8662   4.732   6.747   6.873  0.3741 -0.0411  0.3698
   6723SM   HO3 8663   4.652   6.749   6.927  0.2688  1.1139  0.1879
   6723SM   C4S 8664   4.779   6.691   6.650  0.1343  0.1878  0.0679
   6723SM   H4S 8665   4.810   6.604   6.590 -3.9123 -1.1923 -0.3312
   6723SM   C5S 8666   4.795   6.816   6.605  0.9098 -0.6140  0.2792
   6723SM   H5S 8667   4.772   6.907   6.662 -0.8322 -0.2315 -0.9275
   6723SM   C6S 8668   4.849   6.857   6.472  0.3210  0.1005  0.4446
   6723SM   H6S 8669   4.927   6.934   6.489 -1.2860  1.3603  2.7915
   6723SM   H6T 8670   4.770   6.905   6.410 -0.4883  0.2664  1.5724
   6723SM   C7S 8671   4.917   6.746   6.390  0.0665 -0.1653  0.6279
   6723SM   H7S 8672   4.831   6.688   6.350 -0.2832  1.3256 -0.8599
   6723SM   H7T 8673   4.981   6.679   6.453  1.9938 -0.1182 -1.1879
   6723SM   C8S 8674   4.993   6.796   6.264  0.1259 -0.2745  0.0469
   6723SM   H8S 8675   5.072   6.871   6.289  1.4873 -2.0997  1.4498
   6723SM   H8T 8676   4.923   6.844   6.192 -1.6915 -0.5860  1.5235
   6723SM   C9S 8677   5.075   6.683   6.191  0.6198  0.0846  0.6715
   6723SM   H9S 8678   5.007   6.596   6.184 -0.1114  0.6926 -0.0081
   6723SM   H9T 8679   5.163   6.653   6.252  1.7296  0.3046 -0.7650
   6723SM  C10S 8680   5.118   6.724   6.057 -0.2637  0.0756  0.8159
   6723SM  H10S 8681   5.030   6.764   6.003 -0.2354 -0.3590  0.4386
   6723SM  H10T 8682   5.163   6.637   6.004  0.1469  0.0957  1.1279
   6723SM  C11S 8683   5.229   6.831   6.044 -0.0591 -0.1652 -0.1257
   6723SM  H11S 8684   5.202   6.919   6.106 -0.4769  0.0865 -0.6571
   6723SM  H11T 8685   5.231   6.869   5.939  3.1048  1.1596  0.3061
   6723SM  C12S 8686   5.370   6.779   6.077  0.6694 -0.3258  0.1798
   6723SM  H12S 8687   5.383   6.685   6.019 -1.4656 -1.5618  1.5907
   6723SM  H12T 8688   5.372   6.751   6.184 -0.3797 -0.8973  0.0651
   6723SM  C13S 8689   5.481   6.885   6.055  0.4219 -0.2277 -0.2590
   6723SM  H13S 8690   5.434   6.975   6.101  0.6741  0.3413 -1.0884
   6723SM  H13T 8691   5.493   6.891   5.945  0.4999 -0.1266 -0.2453
   6723SM  C14S 8692   5.622   6.854   6.106  0.3230  0.2473  0.5272
   6723SM  H14S 8693   5.651   6.758   6.057 -0.9712 -0.8848  1.8534
   6723SM  H14T 8694   5.619   6.828   6.214 -2.4723  0.2410  0.5227
   6723SM  C15S 8695   5.721   6.972   6.083  0.0226  0.1396  0.2648
   6723SM  H15S 8696   5.700   7.060   6.148 -2.2039 -0.9208  1.0978
   6723SM  H15T 8697   5.707   7.016   5.982  1.9196 -2.5557 -1.3094
   6723SM  C16S 8698   5.864   6.935   6.106  0.1866  0.4433 -0.5010
   6723SM  H16S 8699   5.861   6.872   6.198  0.8828 -0.1777 -0.8977
   6723SM  H16T 8700   5.921   7.024   6.139 -0.2720  0.9418 -1.0308
   6723SM  C17S 8701   5.933   6.857   5.994  0.3127 -0.7473  0.8887
   6723SM  H17S 8702   5.876   6.768   5.958  1.1845 -0.5846 -1.0491
   6723SM  H17T 8703   6.026   6.816   6.037  0.9247  1.2115  1.5617
   6723SM  C18S 8704   5.958   6.945   5.871  0.6270 -0.7335  0.6335
   6723SM  H18S 8705   6.015   7.037   5.898  1.5007 -1.0650 -0.0362
   6723SM  H18T 8706   5.866   6.980   5.820  2.1155  0.2082 -1.5514
   6723SM  H18U 8707   6.027   6.893   5.802 -0.9072 -2.5767  0.4289
   6723SM   C1F 8708   4.446   6.411   6.630  0.4295 -0.2983 -0.0872
   6723SM    OF 8709   4.341   6.468   6.654  0.4751 -0.1237  0.3893
   6723SM   C2F 8710   4.462   6.292   6.533 -0.3225 -0.1278  0.2577
   6723SM   H2F 8711   4.537   6.221   6.573 -0.6402 -0.9473 -0.5708
   6723SM   H2G 8712   4.511   6.330   6.440  2.6577 -1.7800  1.0220
   6723SM   C3F 8713   4.337   6.214   6.509  0.5497  0.8458 -0.0003
   6723SM   H3F 8714   4.243   6.269   6.487 -0.0486 -0.1732 -0.0326
   6723SM   H3G 8715   4.307   6.157   6.599 -3.1945  0.0320 -1.5879
   6723SM   C4F 8716   4.338   6.105   6.401 -0.3489  0.4276 -0.1522
   6723SM   H4F 8717   4.255   6.031   6.410 -0.5634  0.9341  3.1115
   6723SM   H4G 8718   4.437   6.058   6.412 -1.0739 -1.1004  0.0790
   6723SM   C5F 8719   4.333   6.181   6.273 -0.1609 -0.2168  0.1479
   6723SM   H5F 8720   4.415   6.254   6.259 -0.6246  0.0377 -1.5774
   6723SM   H5G 8721   4.234   6.231   6.258 -0.3252 -0.3353  0.8163
   6723SM   C6F 8722   4.346   6.078   6.161 -0.5640 -0.4064 -0.2845
   6723SM   H6F 8723   4.273   5.994   6.154  2.2188 -3.0240 -0.0957
   6723SM   H6G 8724   4.446   6.034   6.184 -0.8518 -0.4642  0.9277
   6723SM   C7F 8725   4.371   6.145   6.021 -0.1947  0.0414  0.1847
   6723SM   H7F 8726   4.399   6.251   6.041 -2.1263  0.4468  0.9664
   6723SM   H7G 8727   4.276   6.153   5.964 -0.1509 -0.9165 -0.0465
   6723SM   C8F 8728   4.470   6.053   5.934  0.0441  0.1155 -0.5129
   6723SM   H8F 8729   4.402   5.968   5.913 -1.5095  1.1287  0.1204
   6723SM   H8G 8730   4.560   6.020   5.989 -0.4160  0.5644  0.5563
   6723SM   C9F 8731   4.513   6.121   5.804 -0.1462  0.3866  0.0755
   6723SM   H9F 8732   4.571   6.215   5.818  1.3118 -0.0598 -2.2846
   6723SM   H9G 8733   4.419   6.150   5.753 -0.1386  0.4827  0.1164
   6723SM  C10F 8734   4.594   6.035   5.709  0.7206  0.1068 -0.8875
   6723SM  H10F 8735   4.539   5.943   5.677  1.1876  0.3822 -2.6156
   6723SM  H10G 8736   4.691   6.014   5.759  0.6974  1.4553 -0.2500
   6723SM  C11F 8737   4.615   6.103   5.578 -0.2545  0.1552  1.0227
   6723SM  H11F 8738   4.676   6.195   5.580 -0.9199  0.6407 -0.1489
   6723SM  H11G 8739   4.516   6.127   5.532  0.0680  0.7688  0.6487
   6723SM  C12F 8740   4.685   6.018   5.472 -0.0817 -0.0778 -0.3900
   6723SM  H12F 8741   4.645   5.916   5.451 -0.4250  0.0050 -0.1661
   6723SM  H12G 8742   4.791   6.004   5.500  0.0558  1.0400 -0.2777
   6723SM  C13F 8743   4.687   6.092   5.335  0.2351  0.0805 -0.9769
   6723SM  H13F 8744   4.717   6.199   5.339 -2.3903  0.8392  1.3969
   6723SM  H13G 8745   4.582   6.084   5.299 -0.4366  2.5340  0.1994
   6723SM  C14F 8746   4.768   6.019   5.226  0.8562 -0.4909  0.6127
   6723SM  H14F 8747   4.751   6.072   5.130 -1.6517 -1.4364  0.4620
   6723SM  H14G 8748   4.737   5.916   5.199  1.7351 -0.2703 -1.4071
   6723SM  C15F 8749   4.918   5.992   5.250  0.4908 -0.5484  0.5582
   6723SM  H15F 8750   4.930   5.966   5.357 -0.7435 -3.5589  0.0532
   6723SM  H15G 8751   4.979   6.084   5.232  2.7939 -2.0302  0.4105
   6723SM  C16F 8752   4.975   5.879   5.160  0.4030  0.0746  0.1214
   6723SM  H16F 8753   4.909   5.791   5.176 -0.0524  0.7533  2.2942
   6723SM  H16G 8754   5.069   5.844   5.208  1.5421  0.7159 -1.5497
   6723SM  C17F 8755   4.985   5.913   5.012 -0.1450 -1.1079 -0.5348
   6723SM  H17F 8756   5.049   6.004   5.012  0.5340 -1.5545  0.7145
   6723SM  H17G 8757   4.887   5.950   4.975  0.5696  1.3211 -0.1564
   6723SM  C18F 8758   5.037   5.822   4.914  0.0772  0.1140 -0.1230
   6723SM  H18F 8759   4.974   5.731   4.911  0.3750 -0.0788 -0.5152
   6723SM  H18G 8760   5.132   5.787   4.960  0.6133  0.8425 -0.6578
   6723SM  C19F 8761   5.061   5.885   4.780  0.3742 -0.0136  0.4458
   6723SM  H19F 8762   5.129   5.973   4.783 -0.3963  0.5960  0.3540
   6723SM  H19G 8763   4.962   5.920   4.745 -0.5144 -1.8327  1.0271
   6723SM  C20F 8764   5.111   5.777   4.681  0.4782  0.1001 -1.2786
   6723SM  H20F 8765   5.077   5.787   4.576 -0.1753  0.3990 -1.0440
   6723SM  H20G 8766   5.076   5.680   4.722 -0.6644  1.7966  2.1647
   6723SM  C21F 8767   5.261   5.777   4.673 -0.4338  0.1536 -0.8657
   6723SM  H21F 8768   5.304   5.768   4.775 -1.6085  0.9388 -0.2802
   6723SM  H21G 8769   5.284   5.881   4.642 -0.7332  0.8461  1.1149
   6723SM  C22F 8770   5.315   5.675   4.569  0.1943 -0.6710  0.8404
   6723SM  H22F 8771   5.254   5.680   4.476 -3.2976 -2.1069  2.8773
   6723SM  H22G 8772   5.300   5.572   4.607 -1.8774 -1.2206 -1.2789
   6723SM  C23F 8773   5.460   5.692   4.532  0.6639 -0.7519  0.1775
   6723SM  H23F 8774   5.493   5.640   4.439 -2.9485 -2.9967 -0.0292
   6723SM  H23G 8775   5.515   5.660   4.623 -1.8297  0.8278  2.3759
   6723SM  H23H 8776   5.486   5.799   4.518 -0.1679 -0.8339 -2.5897
   6823SM     N 8777   4.146   2.395   7.101 -0.2462  0.2699 -0.3598
   6823SM   C15 8778   4.071   2.490   7.014  0.0212 -0.0093 -0.4630
   6823SM  H15A 8779   4.013   2.557   7.075  0.4274 -0.3937  0.3623
   6823SM  H15B 8780   4.003   2.427   6.958  0.9095  0.2033 -1.8458
   6823SM  H15C 8781   4.143   2.547   6.955 -0.7570  2.2563  0.6500
   6823SM   C14 8782   4.191   2.478   7.217  0.1904  0.0803 -0.3685
   6823SM  H14A 8783   4.118   2.528   7.280  0.3767 -1.5760  1.2317
   6823SM  H14B 8784   4.257   2.557   7.184 -1.3146  0.7914 -1.8420
   6823SM  H14C 8785   4.248   2.416   7.285  0.9782  1.0959 -0.0694
   6823SM   C13 8786   4.041   2.302   7.160 -0.4560  0.2280  0.3927
   6823SM  H13A 8787   3.948   2.353   7.180 -0.7271 -0.3678  0.6579
   6823SM  H13B 8788   4.072   2.246   7.247 -0.2674 -1.0765 -0.4872
   6823SM  H13C 8789   4.025   2.230   7.082  0.4340  0.9723 -0.4980
   6823SM   C12 8790   4.255   2.311   7.034  0.5935  0.0546  0.8251
   6823SM  H12A 8791   4.296   2.246   7.110  1.5119 -1.9729 -1.2734
   6823SM  H12B 8792   4.337   2.373   7.002  0.6697  0.2775  1.4397
   6823SM   C11 8793   4.213   2.200   6.921 -0.2916 -0.4377 -0.1610
   6823SM  H11A 8794   4.304   2.166   6.866 -0.3003  1.3656 -1.3945
   6823SM  H11B 8795   4.148   2.250   6.845  1.7420  1.2405 -0.9107
   6823SM     P 8796   4.197   1.979   7.077 -0.2617  0.5879 -0.0213
   6823SM   O13 8797   4.315   2.029   7.147 -0.1461  0.5177  0.4274
   6823SM   O14 8798   4.077   1.931   7.157  0.2340  0.1533 -0.2546
   6823SM   O11 8799   4.236   1.866   6.974  0.4910  0.1332  0.7421
   6823SM   O12 8800   4.148   2.093   6.977 -0.1364  0.1277  0.6498
   6823SM   C1S 8801   4.143   1.795   6.890 -0.2817 -0.0719 -0.0023
   6823SM   H1S 8802   4.043   1.806   6.936  0.8206  4.2695  1.9375
   6823SM   H1T 8803   4.160   1.685   6.893 -0.8245 -0.1406  1.0254
   6823SM    NF 8804   4.026   1.797   6.662 -0.2012  0.1693 -0.4758
   6823SM   HNF 8805   4.054   1.722   6.603  0.3007 -2.1395  2.4180
   6823SM   C2S 8806   4.136   1.855   6.745  0.3577 -0.2348  0.6746
   6823SM   H2S 8807   4.109   1.963   6.753  0.7756 -0.1740  1.3279
   6823SM   C3S 8808   4.279   1.856   6.674 -0.0247  0.3504  0.2296
   6823SM   H3S 8809   4.309   1.749   6.676  0.1695  0.4063  0.3966
   6823SM    O3 8810   4.384   1.923   6.744 -0.2103 -0.0037 -0.2620
   6823SM   HO3 8811   4.346   1.958   6.826 -0.2158  1.1717 -0.7375
   6823SM   C4S 8812   4.282   1.903   6.533 -0.4664  0.3078 -0.3821
   6823SM   H4S 8813   4.283   1.819   6.461 -0.8882  1.9757 -2.4500
   6823SM   C5S 8814   4.304   2.028   6.499  0.4877  0.1691 -0.6205
   6823SM   H5S 8815   4.332   2.094   6.582  1.2432  0.7458 -1.3158
   6823SM   C6S 8816   4.327   2.090   6.366  0.1230 -0.3701  0.1097
   6823SM   H6S 8817   4.430   2.129   6.360  1.3522 -3.0822  1.7192
   6823SM   H6T 8818   4.260   2.178   6.349  0.2811 -0.5040 -1.2585
   6823SM   C7S 8819   4.304   1.995   6.253 -0.2446  1.1763  0.6959
   6823SM   H7S 8820   4.198   1.962   6.257  0.4963 -1.4270  1.0311
   6823SM   H7T 8821   4.355   1.898   6.272 -3.3994 -1.0383 -1.1710
   6823SM   C8S 8822   4.354   2.054   6.121 -0.8608  0.4551 -0.3383
   6823SM   H8S 8823   4.464   2.044   6.107 -0.3549  3.3205  0.9611
   6823SM   H8T 8824   4.341   2.164   6.119 -4.3101  0.1311 -1.3046
   6823SM   C9S 8825   4.266   2.008   6.007  1.0789  0.3889  0.3280
   6823SM   H9S 8826   4.310   2.051   5.914 -0.4820 -1.5429 -1.4083
   6823SM   H9T 8827   4.160   2.043   6.007  0.4844 -1.3121  1.1065
   6823SM  C10S 8828   4.256   1.856   6.005  0.0774 -0.4090  0.6299
   6823SM  H10S 8829   4.206   1.807   6.091 -0.4138 -2.1087 -0.5736
   6823SM  H10T 8830   4.357   1.812   6.020 -0.8182 -1.8332  3.1385
   6823SM  C11S 8831   4.207   1.809   5.867 -0.4107 -0.5328  0.1592
   6823SM  H11S 8832   4.228   1.700   5.863 -0.8947 -0.6112 -0.6489
   6823SM  H11T 8833   4.266   1.850   5.782  0.6343  0.7842  1.4687
   6823SM  C12S 8834   4.053   1.815   5.857 -0.0426  0.1512 -0.4773
   6823SM  H12S 8835   4.007   1.915   5.871  1.7767  1.0547 -0.7209
   6823SM  H12T 8836   4.019   1.757   5.946  2.4049  0.7880  0.9665
   6823SM  C13S 8837   3.985   1.741   5.734  0.3116  0.1394 -0.2287
   6823SM  H13S 8838   3.896   1.692   5.779  0.2753 -0.7164 -1.2163
   6823SM  H13T 8839   4.053   1.657   5.707 -1.1998 -2.0046  2.1914
   6823SM  C14S 8840   3.959   1.835   5.617 -0.8935  0.6443 -0.4711
   6823SM  H14S 8841   4.047   1.846   5.551 -1.0811 -0.1400 -0.8671
   6823SM  H14T 8842   3.935   1.940   5.647  2.4826  2.0544 -2.1683
   6823SM  C15S 8843   3.849   1.791   5.522  0.5533 -0.7120  0.3459
   6823SM  H15S 8844   3.748   1.805   5.566 -0.0065 -0.1071 -1.0355
   6823SM  H15T 8845   3.863   1.685   5.494  0.8952 -0.5668 -0.0367
   6823SM  C16S 8846   3.868   1.864   5.389  0.1709 -0.6476  0.1107
   6823SM  H16S 8847   3.959   1.833   5.334  1.4145  2.0628  0.4915
   6823SM  H16T 8848   3.896   1.968   5.415 -1.0085 -0.0003 -1.0829
   6823SM  C17S 8849   3.738   1.864   5.307  0.0033  0.7645  0.6267
   6823SM  H17S 8850   3.648   1.898   5.364 -1.9078 -0.8853 -1.2321
   6823SM  H17T 8851   3.718   1.759   5.279 -1.5653  0.0008  4.0715
   6823SM  C18S 8852   3.744   1.952   5.180 -0.1896  0.4980  0.4160
   6823SM  H18S 8853   3.793   2.051   5.187  0.2416  0.5078 -2.0626
   6823SM  H18T 8854   3.640   1.977   5.150 -0.9450 -1.5703  1.1220
   6823SM  H18U 8855   3.810   1.906   5.104 -0.6342 -0.1419  0.4018
   6823SM   C1F 8856   3.898   1.817   6.688  0.2668 -0.7365 -0.0999
   6823SM    OF 8857   3.859   1.886   6.784  0.3026  0.0418 -0.4170
   6823SM   C2F 8858   3.809   1.784   6.578  0.2968  0.7118 -0.2283
   6823SM   H2F 8859   3.768   1.681   6.586  0.5359  0.4817 -1.6320
   6823SM   H2G 8860   3.870   1.789   6.485  0.1065  1.6895 -0.3125
   6823SM   C3F 8861   3.685   1.877   6.579  0.3334  0.2054 -0.2745
   6823SM   H3F 8862   3.724   1.978   6.552  1.7696  0.3381  2.0471
   6823SM   H3G 8863   3.637   1.873   6.679  1.4497  0.0223  0.2697
   6823SM   C4F 8864   3.588   1.840   6.459 -0.1259  0.2056  0.6669
   6823SM   H4F 8865   3.581   1.730   6.449  0.4125  0.1646  0.7457
   6823SM   H4G 8866   3.632   1.893   6.371 -0.5292  0.4325  0.5964
   6823SM   C5F 8867   3.442   1.872   6.482 -0.4198 -0.1670 -0.3180
   6823SM   H5F 8868   3.428   1.982   6.479 -1.2530 -0.2131  0.9764
   6823SM   H5G 8869   3.405   1.851   6.585 -3.8835 -1.9814 -1.7959
   6823SM   C6F 8870   3.357   1.791   6.388  0.2193  0.0253  0.1182
   6823SM   H6F 8871   3.250   1.817   6.403 -0.5115 -1.1698 -2.4001
   6823SM   H6G 8872   3.380   1.682   6.393 -0.6902 -0.4615 -3.5224
   6823SM   C7F 8873   3.383   1.816   6.238 -0.7959 -0.2137  0.1404
   6823SM   H7F 8874   3.489   1.792   6.215 -1.0006 -0.5263 -0.5076
   6823SM   H7G 8875   3.379   1.926   6.221  0.7527 -0.1076  0.3438
   6823SM   C8F 8876   3.278   1.747   6.155 -0.1909  0.1135  0.2207
   6823SM   H8F 8877   3.272   1.784   6.050  1.3383 -1.2354 -0.3935
   6823SM   H8G 8878   3.179   1.779   6.192 -1.9150 -0.9859 -3.0250
   6823SM   C9F 8879   3.287   1.595   6.151 -0.0455  0.2591 -0.6589
   6823SM   H9F 8880   3.287   1.557   6.255 -2.8477  1.0663 -0.2911
   6823SM   H9G 8881   3.389   1.569   6.114  0.3107  0.6440  0.0273
   6823SM  C10F 8882   3.179   1.525   6.073 -0.4201  0.0004 -0.0775
   6823SM  H10F 8883   3.184   1.572   5.973 -2.0460  2.6021  0.9521
   6823SM  H10G 8884   3.079   1.554   6.111 -0.9921 -0.2513 -1.3295
   6823SM  C11F 8885   3.194   1.373   6.087  0.2556  0.0704 -0.2277
   6823SM  H11F 8886   3.163   1.349   6.191 -0.6016  1.0460 -0.2501
   6823SM  H11G 8887   3.296   1.331   6.074 -0.1656 -1.9683  2.2383
   6823SM  C12F 8888   3.100   1.304   5.991  0.2120 -0.1663  0.1185
   6823SM  H12F 8889   3.007   1.365   5.984  0.0769 -0.3047  0.6505
   6823SM  H12G 8890   3.078   1.205   6.036  0.7139  0.1102  0.9990
   6823SM  C13F 8891   3.147   1.285   5.844 -0.3226  0.0958 -0.3795
   6823SM  H13F 8892   3.217   1.200   5.852  1.5883  1.6420  0.0724
   6823SM  H13G 8893   3.212   1.372   5.821 -1.6507  0.9957 -0.8660
   6823SM  C14F 8894   3.027   1.251   5.751 -0.3075  0.1148 -0.9446
   6823SM  H14F 8895   2.962   1.341   5.755 -1.1067 -0.4996  0.2303
   6823SM  H14G 8896   2.972   1.163   5.791 -0.8799  1.0219  0.3177
   6823SM  C15F 8897   3.072   1.223   5.606  0.8648  0.9505 -0.4113
   6823SM  H15F 8898   3.127   1.126   5.601 -0.8464 -0.4326  3.4673
   6823SM  H15G 8899   3.147   1.295   5.568  0.9776  0.3524 -1.3802
   6823SM  C16F 8900   2.950   1.213   5.517  0.0092  1.1458 -0.1826
   6823SM  H16F 8901   2.870   1.154   5.566 -0.8842  3.1824  0.9315
   6823SM  H16G 8902   2.987   1.157   5.428 -1.5360  0.4802 -0.4344
   6823SM  C17F 8903   2.886   1.336   5.448 -0.1782 -0.2953 -0.5170
   6823SM  H17F 8904   2.975   1.398   5.422  0.1050 -0.0635  0.9476
   6823SM  H17G 8905   2.830   1.397   5.522  0.0234 -1.0850  0.2998
   6823SM  C18F 8906   2.800   1.294   5.324 -0.9124  0.0457 -0.1899
   6823SM  H18F 8907   2.723   1.224   5.361 -0.8154  1.0786  2.1654
   6823SM  H18G 8908   2.862   1.240   5.250  0.2743 -3.1178  2.8451
   6823SM  C19F 8909   2.725   1.414   5.249  0.1138 -0.2052 -1.1685
   6823SM  H19F 8910   2.805   1.490   5.231 -0.1453  0.7201  1.2963
   6823SM  H19G 8911   2.662   1.475   5.317 -1.4556  2.5748 -4.7329
   6823SM  C20F 8912   2.644   1.372   5.133  0.2210  0.1629 -1.2395
   6823SM  H20F 8913   2.568   1.298   5.169  1.2175 -0.4545 -0.3490
   6823SM  H20G 8914   2.708   1.323   5.056  1.2553  1.6433 -1.3484
   6823SM  C21F 8915   2.587   1.496   5.068  0.1824 -0.5837 -0.3503
   6823SM  H21F 8916   2.674   1.559   5.038 -0.0407  0.2545  0.7180
   6823SM  H21G 8917   2.518   1.551   5.135 -0.1981 -1.4974  0.0228
   6823SM  C22F 8918   2.511   1.469   4.936 -0.4999  0.2688 -0.2012
   6823SM  H22F 8919   2.418   1.416   4.966 -0.5210  0.5158  0.1736
   6823SM  H22G 8920   2.575   1.407   4.870 -0.9671  1.5640 -1.9679
   6823SM  C23F 8921   2.477   1.599   4.854  0.2641  0.2309 -0.4167
   6823SM  H23F 8922   2.574   1.644   4.824  0.1026  0.5759 -0.4277
   6823SM  H23G 8923   2.399   1.667   4.896 -2.7461 -1.2427 -3.2374
   6823SM  H23H 8924   2.421   1.574   4.762  1.8059  1.4860 -1.7636
   6923SM     N 8925   5.815   3.695   6.869  0.4408  0.1146  0.2596
   6923SM   C15 8926   5.821   3.801   6.763  0.7607  0.2663  0.9446
   6923SM  H15A 8927   5.758   3.889   6.766  1.3082  0.7779 -1.1044
   6923SM  H15B 8928   5.785   3.747   6.678 -0.4259  0.3589  1.3668
   6923SM  H15C 8929   5.919   3.844   6.747  1.1026 -0.9144 -0.3141
   6923SM   C14 8930   5.915   3.585   6.830 -0.0696 -0.0896 -0.1735
   6923SM  H14A 8931   5.911   3.503   6.900  1.1750 -0.6271 -0.7088
   6923SM  H14B 8932   6.011   3.634   6.839 -0.1422  0.0036  0.1127
   6923SM  H14C 8933   5.889   3.537   6.737  1.0215  0.2471 -0.6695
   6923SM   C13 8934   5.878   3.773   6.987  0.1630 -0.7796  0.2744
   6923SM  H13A 8935   5.812   3.845   7.034  0.6114  0.0502 -0.3448
   6923SM  H13B 8936   5.965   3.828   6.957  0.3224 -1.4360 -0.5076
   6923SM  H13C 8937   5.926   3.711   7.062  3.0391  0.9598 -0.0213
   6923SM   C12 8938   5.672   3.637   6.898 -0.4704  0.8658  0.6118
   6923SM  H12A 8939   5.630   3.606   6.803  0.3949 -1.3973  0.9088
   6923SM  H12B 8940   5.604   3.707   6.944 -0.8157 -0.2651  1.9188
   6923SM   C11 8941   5.669   3.515   6.991  0.0950 -0.1559  1.0819
   6923SM  H11A 8942   5.564   3.512   7.028  0.0061  0.6707  0.9363
   6923SM  H11B 8943   5.737   3.533   7.076  1.0246  1.4814  0.0581
   6923SM     P 8944   5.757   3.262   6.987  0.1368  0.0014  0.0240
   6923SM   O13 8945   5.904   3.264   6.978  0.0356 -0.6972  0.8441
   6923SM   O14 8946   5.711   3.221   7.117 -0.3973 -0.9961  0.5390
   6923SM   O11 8947   5.703   3.158   6.880 -0.5234 -0.0741  0.6789
   6923SM   O12 8948   5.693   3.396   6.930  0.3020  0.4518  0.3419
   6923SM   C1S 8949   5.565   3.151   6.841 -0.6680  0.1415  0.0522
   6923SM   H1S 8950   5.509   3.243   6.868  2.0204  1.8901  0.1224
   6923SM   H1T 8951   5.524   3.066   6.899 -1.0097  0.1143 -0.2299
   6923SM    NF 8952   5.395   3.152   6.662 -0.6089  0.6377 -0.2221
   6923SM   HNF 8953   5.344   3.067   6.670 -0.3623  0.2583 -2.1047
   6923SM   C2S 8954   5.535   3.127   6.690 -0.1250  1.0806  0.4329
   6923SM   H2S 8955   5.595   3.196   6.626 -1.2155 -0.8651 -2.9909
   6923SM   C3S 8956   5.591   2.987   6.643  0.1219 -0.6960  0.2355
   6923SM   H3S 8957   5.538   2.907   6.699  1.7929 -1.5288  0.7217
   6923SM    O3 8958   5.725   2.962   6.692  0.1296  0.3763  0.1126
   6923SM   HO3 8959   5.742   3.039   6.747 -0.2493  0.4338  0.1561
   6923SM   C4S 8960   5.578   2.970   6.491 -0.0730 -0.5385 -1.4424
   6923SM   H4S 8961   5.627   3.045   6.428 -0.0047  0.0985 -0.6523
   6923SM   C5S 8962   5.539   2.862   6.423  0.1665  0.0676 -0.0290
   6923SM   H5S 8963   5.504   2.770   6.470  2.2885 -0.3469  0.8332
   6923SM   C6S 8964   5.557   2.856   6.271  0.2755  0.2124  0.0834
   6923SM   H6S 8965   5.599   2.953   6.238 -2.2196  1.2851 -0.1458
   6923SM   H6T 8966   5.464   2.846   6.211 -0.1948 -0.9803  0.9582
   6923SM   C7S 8967   5.648   2.738   6.230  0.0610 -0.5611 -0.7702
   6923SM   H7S 8968   5.595   2.647   6.264  0.3283  0.3654  2.4024
   6923SM   H7T 8969   5.745   2.746   6.283  0.4969 -2.3183 -1.2330
   6923SM   C8S 8970   5.669   2.724   6.082 -0.3734 -0.1213  0.2701
   6923SM   H8S 8971   5.579   2.761   6.030 -0.1913  0.9269  0.6725
   6923SM   H8T 8972   5.694   2.620   6.050  2.3392  0.1032  1.3660
   6923SM   C9S 8973   5.795   2.805   6.037  0.2633 -0.3871 -0.3559
   6923SM   H9S 8974   5.878   2.786   6.109 -1.1342 -0.4213  1.3165
   6923SM   H9T 8975   5.760   2.910   6.048  0.7175 -0.4257  2.1585
   6923SM  C10S 8976   5.833   2.772   5.893 -0.0832 -0.1186  0.2182
   6923SM  H10S 8977   5.914   2.837   5.854 -1.1095  1.4990  0.7121
   6923SM  H10T 8978   5.742   2.784   5.830  0.0620 -3.4273 -0.8592
   6923SM  C11S 8979   5.884   2.633   5.866  0.2741  0.4451  0.0421
   6923SM  H11S 8980   5.814   2.547   5.858  3.1682 -2.0352 -0.8773
   6923SM  H11T 8981   5.957   2.610   5.947  0.5518 -0.7430 -0.5273
   6923SM  C12S 8982   5.965   2.623   5.730 -0.2629 -0.1319 -0.0485
   6923SM  H12S 8983   6.048   2.697   5.737  0.7710 -1.1648 -0.9414
   6923SM  H12T 8984   5.897   2.659   5.650  1.7809  0.5756 -1.5673
   6923SM  C13S 8985   6.023   2.491   5.689 -0.2013  0.4374  0.4078
   6923SM  H13S 8986   6.054   2.487   5.582 -1.5616 -0.3235  0.0079
   6923SM  H13T 8987   5.955   2.403   5.687  1.1049 -0.6048 -0.6713
   6923SM  C14S 8988   6.151   2.434   5.772 -0.4565  0.0722 -0.6942
   6923SM  H14S 8989   6.103   2.427   5.871  0.0766  2.0019 -0.2657
   6923SM  H14T 8990   6.225   2.517   5.776  0.4921 -0.7313 -1.0687
   6923SM  C15S 8991   6.198   2.302   5.709 -0.7569 -0.5799  1.0374
   6923SM  H15S 8992   6.112   2.236   5.688 -1.0392  0.4430 -1.4280
   6923SM  H15T 8993   6.271   2.253   5.776 -0.6938 -0.7868  0.8214
   6923SM  C16S 8994   6.279   2.330   5.581 -0.0454 -0.5580 -0.2387
   6923SM  H16S 8995   6.353   2.412   5.598 -0.4489 -0.3754  0.7515
   6923SM  H16T 8996   6.212   2.356   5.497 -0.8514 -1.0282  0.2498
   6923SM  C17S 8997   6.372   2.213   5.536 -0.2266  0.2583  0.1411
   6923SM  H17S 8998   6.444   2.192   5.618  0.2231 -0.1511 -0.3594
   6923SM  H17T 8999   6.429   2.254   5.450  0.7196  1.5921  1.3558
   6923SM  C18S 9000   6.299   2.083   5.505 -0.8136 -0.5015  0.6660
   6923SM  H18S 9001   6.254   2.087   5.404 -1.0990 -0.0224  0.8106
   6923SM  H18T 9002   6.220   2.071   5.582 -0.3639  1.2473  1.4477
   6923SM  H18U 9003   6.382   2.009   5.510  1.9686  2.4027  1.1966
   6923SM   C1F 9004   5.346   3.275   6.667 -0.1684 -0.7710 -1.2991
   6923SM    OF 9005   5.412   3.379   6.657 -0.2835  0.0473 -0.4411
   6923SM   C2F 9006   5.195   3.275   6.681  0.2541 -0.0843 -0.6161
   6923SM   H2F 9007   5.176   3.317   6.782 -0.3319 -2.0484  0.1527
   6923SM   H2G 9008   5.151   3.173   6.682  0.5217 -0.2055 -0.9360
   6923SM   C3F 9009   5.127   3.359   6.574 -0.2849 -0.2657  0.2898
   6923SM   H3F 9010   5.180   3.447   6.532 -0.2787 -0.9576 -1.2341
   6923SM   H3G 9011   5.025   3.397   6.598 -0.9950  1.5196 -4.3347
   6923SM   C4F 9012   5.084   3.262   6.460 -0.1082  0.0144 -0.4311
   6923SM   H4F 9013   5.002   3.195   6.494  0.9911 -0.6421  1.0499
   6923SM   H4G 9014   5.166   3.194   6.429 -0.5206 -0.5742 -0.2534
   6923SM   C5F 9015   5.043   3.345   6.336  0.1823 -0.3049  0.0925
   6923SM   H5F 9016   5.134   3.404   6.312  0.2953 -1.6405 -3.2710
   6923SM   H5G 9017   4.954   3.410   6.349  0.2700 -0.0991 -0.3158
   6923SM   C6F 9018   5.006   3.248   6.225  0.5336 -0.0641 -0.5080
   6923SM   H6F 9019   4.926   3.176   6.253 -0.0509  0.8295  0.1839
   6923SM   H6G 9020   5.099   3.192   6.200  1.1865  1.5549 -2.0150
   6923SM   C7F 9021   4.951   3.324   6.095 -0.0684 -0.4953  0.1153
   6923SM   H7F 9022   5.034   3.337   6.022  0.0727 -1.1145  0.1550
   6923SM   H7G 9023   4.921   3.427   6.121  2.3748  0.7238 -1.4770
   6923SM   C8F 9024   4.836   3.258   6.027  0.0196  0.6769  0.2366
   6923SM   H8F 9025   4.752   3.244   6.098  0.7538  1.1631  1.2214
   6923SM   H8G 9026   4.869   3.158   5.990  0.1620  0.4731  0.9109
   6923SM   C9F 9027   4.780   3.348   5.912  0.3840  0.4306  0.1914
   6923SM   H9F 9028   4.855   3.364   5.832 -0.7573 -0.7081 -1.1508
   6923SM   H9G 9029   4.747   3.444   5.959 -0.5984  0.5462 -0.7156
   6923SM  C10F 9030   4.661   3.271   5.846  0.0295  0.4757 -1.1654
   6923SM  H10F 9031   4.573   3.253   5.912 -0.3019 -1.7792 -2.1456
   6923SM  H10G 9032   4.700   3.175   5.807  1.1727  1.0644 -1.4908
   6923SM  C11F 9033   4.627   3.348   5.715  0.1133 -0.3391 -0.3256
   6923SM  H11F 9034   4.723   3.376   5.667  0.0037  2.8061  1.0004
   6923SM  H11G 9035   4.593   3.450   5.745  2.0738 -0.3370  2.1983
   6923SM  C12F 9036   4.523   3.271   5.637  0.4954  0.4821  0.5395
   6923SM  H12F 9037   4.507   3.331   5.545  1.3678  2.2632  1.4980
   6923SM  H12G 9038   4.422   3.272   5.683  0.1508 -1.1647 -0.1205
   6923SM  C13F 9039   4.556   3.127   5.589 -0.5453 -0.5076  0.0668
   6923SM  H13F 9040   4.523   3.060   5.671 -1.8742 -0.6021 -0.5322
   6923SM  H13G 9041   4.664   3.131   5.565 -1.2034 -0.2648 -3.2332
   6923SM  C14F 9042   4.478   3.102   5.462  0.5334  0.2074  0.6348
   6923SM  H14F 9043   4.495   3.176   5.380  0.6909  0.2980  0.7496
   6923SM  H14G 9044   4.370   3.112   5.484  0.4945  3.6076 -0.4491
   6923SM  C15F 9045   4.497   2.960   5.397  0.2322  0.1443  0.5688
   6923SM  H15F 9046   4.423   2.953   5.314  3.1691  1.4094 -2.3683
   6923SM  H15G 9047   4.481   2.882   5.475  1.3337 -2.6862 -1.8079
   6923SM  C16F 9048   4.634   2.946   5.338  0.2201 -0.2156 -0.5991
   6923SM  H16F 9049   4.659   2.838   5.333 -1.6288 -0.7148 -0.0626
   6923SM  H16G 9050   4.715   2.996   5.396  1.3286 -0.2435 -2.0737
   6923SM  C17F 9051   4.646   3.008   5.196 -0.5627  0.5056 -0.3788
   6923SM  H17F 9052   4.637   3.119   5.191 -0.0656  0.6498  1.3073
   6923SM  H17G 9053   4.564   2.955   5.143 -2.1440  1.2502  1.2485
   6923SM  C18F 9054   4.783   2.974   5.136  0.6805 -0.6248 -0.3174
   6923SM  H18F 9055   4.863   3.026   5.191  0.1864  0.7744 -0.8762
   6923SM  H18G 9056   4.783   3.019   5.034  0.5129  1.0473  0.3984
   6923SM  C19F 9057   4.819   2.824   5.117  0.3156 -0.1841 -0.0638
   6923SM  H19F 9058   4.848   2.784   5.217 -1.3291  1.7817  1.3117
   6923SM  H19G 9059   4.904   2.822   5.047  0.3493  0.1583 -0.0326
   6923SM  C20F 9060   4.718   2.726   5.053 -0.0836  0.1611  0.4424
   6923SM  H20F 9061   4.674   2.776   4.964  1.0263  0.2414 -0.0733
   6923SM  H20G 9062   4.632   2.722   5.124 -0.1620 -0.2486  0.3286
   6923SM  C21F 9063   4.786   2.588   5.033 -0.1191 -0.1299 -0.0433
   6923SM  H21F 9064   4.783   2.545   5.135  0.6098 -4.5230 -1.6722
   6923SM  H21G 9065   4.889   2.584   4.993 -0.1528 -0.3765 -0.1090
   6923SM  C22F 9066   4.706   2.502   4.928  0.1575 -0.7849 -0.8990
   6923SM  H22F 9067   4.597   2.523   4.938  0.0999 -0.7998 -1.4861
   6923SM  H22G 9068   4.719   2.394   4.954  2.7161 -0.4719 -0.6166
   6923SM  C23F 9069   4.740   2.534   4.786 -0.7040 -0.2755  0.6355
   6923SM  H23F 9070   4.844   2.505   4.763 -0.9973 -0.0250 -1.2431
   6923SM  H23G 9071   4.733   2.641   4.757 -1.4690 -0.7854 -1.2376
   6923SM  H23H 9072   4.676   2.473   4.718  1.0271 -0.3150 -1.0435
   7023SM     N 9073   5.574   2.052   6.917  0.4603  0.7131 -0.4536
   7023SM   C15 9074   5.597   2.006   6.781 -0.2333  0.3867  0.1476
   7023SM  H15A 9075   5.692   2.044   6.745 -0.1426 -0.7391 -0.8501
   7023SM  H15B 9076   5.511   2.019   6.717  0.1106  1.5346 -0.1047
   7023SM  H15C 9077   5.618   1.900   6.778  1.2452  0.6647 -2.5183
   7023SM   C14 9078   5.474   1.956   6.987  0.6226 -0.7707  0.8675
   7023SM  H14A 9079   5.397   1.940   6.914  3.1477 -1.4281 -1.8155
   7023SM  H14B 9080   5.435   2.004   7.076 -0.9640  1.2048 -0.7771
   7023SM  H14C 9081   5.519   1.860   7.008  1.4289 -0.4340  0.7154
   7023SM   C13 9082   5.701   2.045   6.989  0.0804  0.6001 -0.4822
   7023SM  H13A 9083   5.776   2.104   6.938  1.6270 -0.9287 -0.0602
   7023SM  H13B 9084   5.736   1.944   7.002  0.1810  0.5187 -1.3181
   7023SM  H13C 9085   5.687   2.081   7.090 -0.5051  2.3099 -1.1334
   7023SM   C12 9086   5.522   2.192   6.909 -0.2565 -0.1080  0.1115
   7023SM  H12A 9087   5.424   2.198   6.864 -0.9458 -0.5074  1.4817
   7023SM  H12B 9088   5.589   2.249   6.846  0.5651 -0.7627  0.3676
   7023SM   C11 9089   5.503   2.263   7.052 -0.7289 -0.6556  0.4543
   7023SM  H11A 9090   5.483   2.370   7.030  0.5457  0.2078  3.0732
   7023SM  H11B 9091   5.603   2.264   7.099  0.0030  2.0428 -0.9421
   7023SM     P 9092   5.259   2.237   7.108  0.3938  0.3200  0.1784
   7023SM   O13 9093   5.174   2.135   7.168  0.0566 -0.1589  0.4456
   7023SM   O14 9094   5.240   2.381   7.138  0.4964  0.0776 -0.4316
   7023SM   O11 9095   5.253   2.220   6.954 -0.8506 -0.0215  0.4311
   7023SM   O12 9096   5.405   2.204   7.134  0.0935  0.2785 -0.5470
   7023SM   C1S 9097   5.180   2.322   6.878  0.4880  0.9260 -0.7099
   7023SM   H1S 9098   5.244   2.412   6.863  1.7811  0.1131 -0.2946
   7023SM   H1T 9099   5.086   2.361   6.921 -1.0206 -0.7368 -2.3545
   7023SM    NF 9100   5.111   2.372   6.645  0.5120  0.6067 -0.1279
   7023SM   HNF 9101   5.025   2.421   6.658 -0.0990 -1.2102  4.4256
   7023SM   C2S 9102   5.134   2.264   6.743 -0.2103  0.7578  0.1934
   7023SM   H2S 9103   5.215   2.197   6.709 -1.8216 -0.3343 -1.7030
   7023SM   C3S 9104   5.012   2.172   6.765 -0.0645 -0.0736  0.5954
   7023SM   H3S 9105   4.928   2.231   6.807 -1.3311 -0.9038 -0.6606
   7023SM    O3 9106   5.011   2.071   6.868  0.3272 -0.4534 -0.9166
   7023SM   HO3 9107   5.101   2.074   6.900 -0.0470 -0.3341  0.1436
   7023SM   C4S 9108   4.961   2.117   6.633  0.0283 -0.4422 -0.0256
   7023SM   H4S 9109   4.908   2.190   6.571 -0.9265 -0.7080  0.4660
   7023SM   C5S 9110   4.992   1.999   6.567 -0.6242 -0.2018 -0.2766
   7023SM   H5S 9111   5.059   1.937   6.628 -0.8561  0.3338  0.5365
   7023SM   C6S 9112   4.961   1.962   6.421 -0.3193 -0.3841 -0.2483
   7023SM   H6S 9113   4.855   1.994   6.413 -0.0382  0.4318 -0.7966
   7023SM   H6T 9114   4.972   1.852   6.410 -2.4455 -0.6478 -0.1980
   7023SM   C7S 9115   5.037   2.043   6.313 -0.8119  0.0036 -0.5223
   7023SM   H7S 9116   5.029   2.150   6.340  1.4995 -0.2367  1.5337
   7023SM   H7T 9117   4.995   2.032   6.211 -2.2705  0.7275 -0.0281
   7023SM   C8S 9118   5.186   1.999   6.302  0.2343  0.0605 -0.7035
   7023SM   H8S 9119   5.193   1.888   6.297  1.6745 -0.2536  3.7292
   7023SM   H8T 9120   5.235   2.041   6.393 -1.5545  0.0568  0.3037
   7023SM   C9S 9121   5.256   2.065   6.177 -0.6078 -0.2592  0.5680
   7023SM   H9S 9122   5.365   2.051   6.191 -0.8116 -0.8235  1.6769
   7023SM   H9T 9123   5.233   2.174   6.176  1.0891  0.1887 -2.5826
   7023SM  C10S 9124   5.219   2.008   6.043 -0.3484  0.3053  0.8460
   7023SM  H10S 9125   5.246   2.087   5.969 -2.6145  0.2260 -0.1328
   7023SM  H10T 9126   5.110   1.990   6.042 -0.3501 -0.0730  3.0402
   7023SM  C11S 9127   5.309   1.876   6.007  0.0895  0.2459 -0.0973
   7023SM  H11S 9128   5.325   1.824   6.104 -2.5085  0.9297  0.7644
   7023SM  H11T 9129   5.411   1.909   5.977  2.2922 -3.3820  2.6018
   7023SM  C12S 9130   5.254   1.790   5.896 -0.1893 -0.2918  0.0870
   7023SM  H12S 9131   5.146   1.779   5.922 -0.0798 -0.2422  0.5797
   7023SM  H12T 9132   5.295   1.687   5.892 -0.9865 -0.6621  0.9458
   7023SM  C13S 9133   5.267   1.864   5.763 -0.4006  0.0625 -0.2722
   7023SM  H13S 9134   5.375   1.870   5.738 -0.8499  1.1378 -2.2133
   7023SM  H13T 9135   5.235   1.969   5.775 -0.3043  0.0672 -0.0630
   7023SM  C14S 9136   5.191   1.789   5.650  0.4036 -0.3443  0.5745
   7023SM  H14S 9137   5.091   1.761   5.691  0.0520  0.8357  0.5605
   7023SM  H14T 9138   5.258   1.714   5.604  2.3262  1.6270 -0.0075
   7023SM  C15S 9139   5.147   1.867   5.527 -0.6116 -0.2012 -0.2289
   7023SM  H15S 9140   5.235   1.881   5.460 -0.1876  1.4327  0.6249
   7023SM  H15T 9141   5.099   1.965   5.550  0.2307  0.0701  0.4230
   7023SM  C16S 9142   5.043   1.795   5.443 -0.0509  0.6606  0.5942
   7023SM  H16S 9143   4.943   1.784   5.490 -1.1621 -0.8672 -1.9624
   7023SM  H16T 9144   5.075   1.690   5.427  2.5262  1.3873  0.3810
   7023SM  C17S 9145   5.033   1.856   5.304  0.6524  0.4777  0.3673
   7023SM  H17S 9146   4.971   1.948   5.311 -0.5431 -0.1010 -1.7013
   7023SM  H17T 9147   4.974   1.784   5.243 -0.9546  1.2604  0.9334
   7023SM  C18S 9148   5.161   1.891   5.228 -0.5208  0.5467  0.4930
   7023SM  H18S 9149   5.237   1.811   5.246 -0.7690  0.2903  0.4073
   7023SM  H18T 9150   5.212   1.979   5.272 -2.3052  0.3297  3.2727
   7023SM  H18U 9151   5.137   1.900   5.120  0.2523 -0.7028  0.1978
   7023SM   C1F 9152   5.221   2.432   6.595  0.4524  0.4731  0.3169
   7023SM    OF 9153   5.335   2.389   6.604  0.3419  0.0741 -0.0818
   7023SM   C2F 9154   5.197   2.564   6.539  0.2092  0.6379 -0.0047
   7023SM   H2F 9155   5.197   2.638   6.622 -0.1633  1.7072 -0.9280
   7023SM   H2G 9156   5.093   2.569   6.499 -0.8299 -0.2583  2.4095
   7023SM   C3F 9157   5.297   2.592   6.425  0.8592  0.3597  0.3436
   7023SM   H3F 9158   5.398   2.573   6.467  1.1931 -0.1757 -0.6609
   7023SM   H3G 9159   5.290   2.701   6.401  2.0011  0.0284 -1.7227
   7023SM   C4F 9160   5.284   2.516   6.293  1.0795 -0.6105  0.4780
   7023SM   H4F 9161   5.304   2.407   6.305 -3.1210 -1.6028  0.1276
   7023SM   H4G 9162   5.360   2.561   6.225  3.5842 -0.5348  3.1663
   7023SM   C5F 9163   5.136   2.521   6.235  0.2904  0.1071 -0.5250
   7023SM   H5F 9164   5.067   2.456   6.293  0.2095 -0.7540 -1.5612
   7023SM   H5G 9165   5.146   2.474   6.135 -0.3226  1.3573 -1.2057
   7023SM   C6F 9166   5.073   2.660   6.213  0.5622 -0.2100 -0.0376
   7023SM   H6F 9167   5.091   2.716   6.307 -0.4911 -0.5029  0.3561
   7023SM   H6G 9168   4.962   2.651   6.206  0.5247  0.2956 -0.1158
   7023SM   C7F 9169   5.132   2.733   6.093  0.3603  0.3121 -0.3603
   7023SM   H7F 9170   5.243   2.735   6.091  0.3786  2.7644 -0.1261
   7023SM   H7G 9171   5.099   2.840   6.092  0.0334  0.3322  2.5737
   7023SM   C8F 9172   5.088   2.676   5.950 -0.2052 -0.0812  0.2279
   7023SM   H8F 9173   4.985   2.709   5.924 -1.4272 -2.1868  2.0717
   7023SM   H8G 9174   5.079   2.565   5.952  3.6606 -0.5298  0.1983
   7023SM   C9F 9175   5.191   2.708   5.841 -0.0036  0.8042 -0.2788
   7023SM   H9F 9176   5.166   2.662   5.743  4.8654 -1.8673 -0.5812
   7023SM   H9G 9177   5.292   2.675   5.872 -1.2979 -2.1647  1.1495
   7023SM  C10F 9178   5.198   2.859   5.819 -0.1383 -0.4378 -0.2898
   7023SM  H10F 9179   5.258   2.879   5.727 -0.9347  3.1031 -0.1790
   7023SM  H10G 9180   5.246   2.906   5.907 -2.3336  0.2019  0.6445
   7023SM  C11F 9181   5.066   2.937   5.804 -0.8914 -0.0669  0.3509
   7023SM  H11F 9182   5.091   3.045   5.815  0.5767 -0.5560  2.3056
   7023SM  H11G 9183   4.999   2.912   5.889 -0.3992 -0.3975  0.6496
   7023SM  C12F 9184   4.994   2.911   5.671 -0.8535 -0.5199  0.1952
   7023SM  H12F 9185   4.896   2.959   5.654 -0.2253 -0.1137 -2.9368
   7023SM  H12G 9186   4.967   2.804   5.660  0.1976 -0.5794 -2.7440
   7023SM  C13F 9187   5.076   2.941   5.539  1.0215 -1.1321  0.2563
   7023SM  H13F 9188   5.180   2.964   5.569  0.8049  0.0473  0.1806
   7023SM  H13G 9189   5.028   3.031   5.494  0.0391 -1.2118  1.1079
   7023SM  C14F 9190   5.071   2.841   5.427  0.0236 -0.0499  0.2243
   7023SM  H14F 9191   4.974   2.850   5.374 -0.4122 -0.6328  0.9133
   7023SM  H14G 9192   5.069   2.741   5.475  2.1710  0.5339  1.6643
   7023SM  C15F 9193   5.175   2.852   5.318 -0.2523 -0.4031 -0.3558
   7023SM  H15F 9194   5.149   2.774   5.243  2.0938 -1.4252 -0.1744
   7023SM  H15G 9195   5.271   2.813   5.358 -0.5385  0.3595  1.1524
   7023SM  C16F 9196   5.200   2.989   5.260 -0.7844 -0.3959  0.0380
   7023SM  H16F 9197   5.211   3.073   5.332  1.4372  0.3795 -1.1150
   7023SM  H16G 9198   5.111   3.022   5.202 -0.0273  0.6249 -0.5812
   7023SM  C17F 9199   5.316   3.004   5.161  0.4908  0.5701  0.6056
   7023SM  H17F 9200   5.293   2.935   5.078  1.6473  0.5794  0.2578
   7023SM  H17G 9201   5.414   2.972   5.202  0.5847 -1.2036 -0.8772
   7023SM  C18F 9202   5.347   3.151   5.115  0.2964  0.1784  0.0788
   7023SM  H18F 9203   5.429   3.149   5.040 -1.8706 -2.2385 -2.4617
   7023SM  H18G 9204   5.391   3.206   5.200 -1.0143  1.7524 -0.2164
   7023SM  C19F 9205   5.234   3.238   5.056 -0.2147 -0.4453  0.0132
   7023SM  H19F 9206   5.260   3.340   5.022 -0.3404 -1.0074 -1.8879
   7023SM  H19G 9207   5.159   3.257   5.135 -0.4015 -0.3764 -0.1811
   7023SM  C20F 9208   5.167   3.162   4.938  0.0610 -0.0622 -0.6536
   7023SM  H20F 9209   5.121   3.064   4.965 -0.3428 -0.6621 -3.2826
   7023SM  H20G 9210   5.246   3.134   4.865  1.1162 -1.5559  0.9586
   7023SM  C21F 9211   5.065   3.252   4.870 -0.3535 -0.0221 -0.4380
   7023SM  H21F 9212   5.000   3.311   4.939  0.3234  0.0742  0.1289
   7023SM  H21G 9213   4.999   3.191   4.805  1.4556  0.2095 -2.5823
   7023SM  C22F 9214   5.117   3.363   4.768  0.4388  0.1558  0.4284
   7023SM  H22F 9215   5.163   3.306   4.684  0.4324 -0.4749  0.8436
   7023SM  H22G 9216   5.189   3.428   4.821 -0.5953  2.4126 -0.7723
   7023SM  C23F 9217   4.998   3.448   4.713  0.7163 -0.5931  0.3336
   7023SM  H23F 9218   4.910   3.388   4.681 -0.7437  2.4382 -1.9085
   7023SM  H23G 9219   5.030   3.504   4.622  2.0262 -2.1985 -0.2301
   7023SM  H23H 9220   4.947   3.520   4.780  1.0581 -0.4196  0.4104
   7123SM     N 9221   6.202   0.104   7.044 -0.2264  0.3436 -0.2473
   7123SM   C15 9222   6.329   0.155   7.109  0.0303 -0.4907  0.6973
   7123SM  H15A 9223   6.370   0.235   7.050  0.6200 -0.7106  0.7999
   7123SM  H15B 9224   6.404   0.078   7.101  1.0540  0.5903 -0.3822
   7123SM  H15C 9225   6.306   0.188   7.209 -2.5913  3.0981 -0.8474
   7123SM   C14 9226   6.163  -0.020   7.120  0.2271  0.2073 -0.5928
   7123SM  H14A 9227   6.233  -0.099   7.098  1.2670  0.8705  0.1953
   7123SM  H14B 9228   6.064  -0.045   7.086  0.1874  0.9031 -1.0043
   7123SM  H14C 9229   6.160   0.006   7.225 -0.1970 -1.3329 -0.2092
   7123SM   C13 9230   6.101   0.211   7.079  0.0768 -0.4273 -0.3472
   7123SM  H13A 9231   6.001   0.171   7.089 -0.2297  0.7914  2.0360
   7123SM  H13B 9232   6.100   0.296   7.012  4.0704 -1.2153 -1.6873
   7123SM  H13C 9233   6.118   0.255   7.176  1.8274  0.0202 -0.8095
   7123SM   C12 9234   6.212   0.082   6.898 -0.0734 -0.3676  0.5529
   7123SM  H12A 9235   6.241   0.173   6.847  1.1025 -1.0186 -0.0034
   7123SM  H12B 9236   6.115   0.060   6.858  0.4698 -0.1766 -0.9486
   7123SM   C11 9237   6.324  -0.006   6.842 -0.5658  0.5063 -0.0565
   7123SM  H11A 9238   6.291  -0.026   6.737 -1.2648 -2.8764  0.6781
   7123SM  H11B 9239   6.334  -0.106   6.890  1.8628  0.1469 -1.1736
   7123SM     P 9240   6.580   0.007   6.882 -0.0753 -0.2379 -0.1425
   7123SM   O13 9241   6.681   0.115   6.869  0.5170  0.3212 -0.0651
   7123SM   O14 9242   6.576  -0.061   7.014  0.1971  0.0680  0.4319
   7123SM   O11 9243   6.633  -0.088   6.771 -0.5195  0.3164  0.0691
   7123SM   O12 9244   6.445   0.069   6.837 -0.1735 -0.2083 -0.1025
   7123SM   C1S 9245   6.608  -0.075   6.632 -0.5808 -0.7423 -0.3888
   7123SM   H1S 9246   6.539   0.009   6.609 -0.8119 -1.0318 -0.7763
   7123SM   H1T 9247   6.567  -0.169   6.590 -3.1047 -0.6445  1.6057
   7123SM    NF 9248   6.695  -0.005   6.414 -0.2233  0.5460 -0.4935
   7123SM   HNF 9249   6.677  -0.075   6.345  0.4112 -1.3000  1.0951
   7123SM   C2S 9250   6.739  -0.039   6.549 -0.2430 -0.1190 -0.4732
   7123SM   H2S 9251   6.780   0.046   6.607 -3.0944  0.0221  1.5610
   7123SM   C3S 9252   6.843  -0.158   6.564  0.2981  0.1554  0.7286
   7123SM   H3S 9253   6.796  -0.254   6.534  2.5277 -1.0434  0.8423
   7123SM    O3 9254   6.873  -0.188   6.702  0.1327  0.0763  0.4031
   7123SM   HO3 9255   6.796  -0.152   6.748 -1.3867 -1.3955 -0.8628
   7123SM   C4S 9256   6.959  -0.131   6.473  0.3032  0.0137  0.6019
   7123SM   H4S 9257   6.922  -0.138   6.370 -3.7900  1.6718  1.7422
   7123SM   C5S 9258   7.082  -0.081   6.495  0.4012  0.6477 -0.7056
   7123SM   H5S 9259   7.112  -0.056   6.598  2.2198 -0.0454 -1.0319
   7123SM   C6S 9260   7.182  -0.052   6.396 -0.2780  0.9953  0.2493
   7123SM   H6S 9261   7.134  -0.023   6.300 -0.1299  0.6139  0.0602
   7123SM   H6T 9262   7.252  -0.137   6.387 -0.2635  0.7310  2.3782
   7123SM   C7S 9263   7.263   0.066   6.440  0.4498  0.2680  0.5416
   7123SM   H7S 9264   7.293   0.051   6.546  0.9863  4.2757  1.1149
   7123SM   H7T 9265   7.207   0.162   6.432  0.6857  0.4914  1.4728
   7123SM   C8S 9266   7.388   0.073   6.362  0.3079 -0.2310  0.9919
   7123SM   H8S 9267   7.456  -0.013   6.380  2.5091  1.4144  0.9648
   7123SM   H8T 9268   7.427   0.172   6.396 -2.1304  0.9026  0.7299
   7123SM   C9S 9269   7.358   0.093   6.203  0.7875  0.2725 -0.2708
   7123SM   H9S 9270   7.279   0.171   6.195 -0.6006 -1.1774 -1.2708
   7123SM   H9T 9271   7.315  -0.006   6.178 -0.6841  0.2821  1.8845
   7123SM  C10S 9272   7.474   0.134   6.117 -0.5881 -0.0594  0.0261
   7123SM  H10S 9273   7.570   0.090   6.150  0.0105  0.9635 -0.3196
   7123SM  H10T 9274   7.487   0.243   6.134 -1.0314 -0.3070  2.1689
   7123SM  C11S 9275   7.445   0.120   5.967 -0.0754 -0.0274  0.3766
   7123SM  H11S 9276   7.349   0.171   5.946 -1.1541 -1.8046  0.8935
   7123SM  H11T 9277   7.418   0.015   5.946 -0.3111  0.1829 -0.4268
   7123SM  C12S 9278   7.559   0.187   5.887  0.7216  0.5651 -0.6210
   7123SM  H12S 9279   7.593   0.286   5.923  1.6629 -0.1103  0.4528
   7123SM  H12T 9280   7.509   0.192   5.788 -0.8204  0.0868  0.1000
   7123SM  C13S 9281   7.683   0.101   5.868  0.7389  0.0426  0.2989
   7123SM  H13S 9282   7.662  -0.006   5.851  2.6380 -0.3463  0.1584
   7123SM  H13T 9283   7.732   0.117   5.967 -1.7852  2.0072  1.3405
   7123SM  C14S 9284   7.769   0.148   5.746  0.1441  0.5402  0.8879
   7123SM  H14S 9285   7.823   0.242   5.770  1.7086  0.1697 -0.9034
   7123SM  H14T 9286   7.698   0.176   5.665 -1.0733 -2.3809  0.8430
   7123SM  C15S 9287   7.874   0.050   5.693  0.5986 -0.1774 -0.6912
   7123SM  H15S 9288   7.839  -0.050   5.660  1.2263 -1.1520  1.4469
   7123SM  H15T 9289   7.947   0.031   5.775 -0.4966 -1.6264 -0.0031
   7123SM  C16S 9290   7.965   0.109   5.586  0.6299  0.6428 -0.2849
   7123SM  H16S 9291   8.034   0.183   5.631  0.1628  1.9403 -1.6379
   7123SM  H16T 9292   7.913   0.160   5.502  0.6720  1.8022  0.3763
   7123SM  C17S 9293   8.039  -0.004   5.515  0.2125 -0.2892  0.7907
   7123SM  H17S 9294   8.112   0.043   5.447 -0.6576 -0.1977 -0.1060
   7123SM  H17T 9295   7.970  -0.058   5.446 -0.1938  1.0912  0.0805
   7123SM  C18S 9296   8.106  -0.110   5.595  0.3274  0.1315 -0.2270
   7123SM  H18S 9297   8.178  -0.052   5.657  0.6134  0.0415 -0.4692
   7123SM  H18T 9298   8.172  -0.178   5.536  0.6920  1.0308 -0.8936
   7123SM  H18U 9299   8.041  -0.175   5.657 -0.1584  0.2959 -0.5629
   7123SM   C1F 9300   6.642   0.112   6.377 -0.3537  0.4764  0.5371
   7123SM    OF 9301   6.649   0.202   6.453  0.4853  0.1764  0.0060
   7123SM   C2F 9302   6.584   0.116   6.244 -0.6624 -0.1974 -0.0341
   7123SM   H2F 9303   6.499   0.047   6.229 -0.3651 -0.3130 -1.2710
   7123SM   H2G 9304   6.669   0.079   6.183  0.2049  1.7339 -0.0891
   7123SM   C3F 9305   6.553   0.263   6.197  0.4397  0.2136 -0.5478
   7123SM   H3F 9306   6.642   0.330   6.195  1.7728 -1.4166  0.6618
   7123SM   H3G 9307   6.483   0.304   6.272  2.2816  1.2641  0.6868
   7123SM   C4F 9308   6.492   0.266   6.054 -0.1566  0.3398  0.0401
   7123SM   H4F 9309   6.417   0.347   6.067  1.3649  1.7436  0.2782
   7123SM   H4G 9310   6.441   0.170   6.031  1.0282 -0.5197  0.8608
   7123SM   C5F 9311   6.592   0.297   5.946 -0.3623  0.5874  0.1709
   7123SM   H5F 9312   6.666   0.215   5.946  2.3044  2.8320  1.5745
   7123SM   H5G 9313   6.650   0.388   5.972 -1.0053  0.2964  2.9368
   7123SM   C6F 9314   6.544   0.300   5.799  0.1829 -0.0087 -0.6779
   7123SM   H6F 9315   6.499   0.399   5.779 -1.8046 -0.0076  2.9826
   7123SM   H6G 9316   6.477   0.212   5.788  1.1625 -0.7847 -0.6001
   7123SM   C7F 9317   6.652   0.274   5.698  1.2349  0.0808 -0.2659
   7123SM   H7F 9318   6.717   0.187   5.722  2.4689  0.6423 -1.4304
   7123SM   H7G 9319   6.719   0.362   5.704 -1.3807  2.0534  2.3102
   7123SM   C8F 9320   6.606   0.263   5.554 -0.6204 -0.3757 -0.5741
   7123SM   H8F 9321   6.563   0.362   5.528 -0.5327  0.4752  2.1434
   7123SM   H8G 9322   6.534   0.180   5.539 -1.3102  0.1206 -0.0913
   7123SM   C9F 9323   6.719   0.217   5.466  0.3621  0.4279  0.2277
   7123SM   H9F 9324   6.743   0.110   5.484  1.0380  0.5224 -0.0932
   7123SM   H9G 9325   6.811   0.275   5.486  0.5985  0.4954 -0.9602
   7123SM  C10F 9326   6.694   0.226   5.323 -0.1636 -0.1976 -0.1903
   7123SM  H10F 9327   6.786   0.195   5.269  0.6750 -0.6269  1.4156
   7123SM  H10G 9328   6.661   0.328   5.297 -1.3241  0.1944  2.4912
   7123SM  C11F 9329   6.586   0.135   5.279  0.1997 -0.2840  0.4494
   7123SM  H11F 9330   6.488   0.160   5.327  1.1724  2.0985  1.3484
   7123SM  H11G 9331   6.621   0.033   5.303  1.9351  0.5728  1.7371
   7123SM  C12F 9332   6.560   0.146   5.123  0.6263 -0.2292 -0.2841
   7123SM  H12F 9333   6.660   0.124   5.080  0.4630 -0.1847 -0.6922
   7123SM  H12G 9334   6.540   0.248   5.083 -0.1130 -0.2002  0.1371
   7123SM  C13F 9335   6.458   0.052   5.070  1.0129  0.3811 -0.3117
   7123SM  H13F 9336   6.354   0.075   5.101  0.7944  0.7039 -1.2589
   7123SM  H13G 9337   6.469  -0.054   5.100 -1.8833  0.1318  0.1255
   7123SM  C14F 9338   6.469   0.042   4.922  0.2377 -0.4936  0.6581
   7123SM  H14F 9339   6.399  -0.034   4.881 -0.9355  0.7357  0.2861
   7123SM  H14G 9340   6.574   0.017   4.894  0.5699 -0.8723  2.1654
   7123SM  C15F 9341   6.429   0.178   4.844  0.0478  0.8177  0.3100
   7123SM  H15F 9342   6.515   0.244   4.867  0.2909  0.1154  1.5459
   7123SM  H15G 9343   6.330   0.219   4.871  1.5350  3.7337  1.7708
   7123SM  C16F 9344   6.426   0.161   4.685 -0.0546 -0.5681 -0.1113
   7123SM  H16F 9345   6.392   0.255   4.638 -1.6499 -1.6354 -1.1759
   7123SM  H16G 9346   6.363   0.080   4.644  1.0436 -0.9170 -1.1879
   7123SM  C17F 9347   6.570   0.154   4.638 -0.7086  0.4826  0.4092
   7123SM  H17F 9348   6.624   0.062   4.670  0.2834  0.4512 -1.2328
   7123SM  H17G 9349   6.626   0.243   4.674  1.3512 -0.3361 -0.6080
   7123SM  C18F 9350   6.564   0.139   4.481 -0.0593  0.8401  0.1519
   7123SM  H18F 9351   6.499   0.222   4.448 -0.1521  0.8874  0.4511
   7123SM  H18G 9352   6.511   0.043   4.461  2.0291 -0.7385  1.6986
   7123SM  C19F 9353   6.701   0.135   4.404 -0.0981 -0.3740 -0.8759
   7123SM  H19F 9354   6.753   0.046   4.444 -0.9795  0.2664  1.9008
   7123SM  H19G 9355   6.764   0.220   4.438 -1.6157  0.4183  0.0864
   7123SM  C20F 9356   6.682   0.128   4.252  0.1590 -0.5590 -0.3266
   7123SM  H20F 9357   6.598   0.196   4.224  1.1104  0.1665 -1.4906
   7123SM  H20G 9358   6.656   0.022   4.230  0.6273 -1.1098  1.6042
   7123SM  C21F 9359   6.802   0.172   4.160  0.2136  0.1783 -0.5786
   7123SM  H21F 9360   6.893   0.116   4.192  0.3791  1.9478  2.3667
   7123SM  H21G 9361   6.830   0.278   4.177 -1.4317  0.3821  1.1332
   7123SM  C22F 9362   6.772   0.143   4.012  0.2006 -0.1639  0.2962
   7123SM  H22F 9363   6.695   0.219   3.986  0.2480  0.0390  0.7412
   7123SM  H22G 9364   6.721   0.045   3.999 -0.7285  0.4470 -0.8254
   7123SM  C23F 9365   6.884   0.153   3.912  0.4228  0.4563 -0.0747
   7123SM  H23F 9366   6.961   0.214   3.964  0.3309  0.5812 -0.0861
   7123SM  H23G 9367   6.844   0.202   3.821 -1.6212 -0.4261  0.2988
   7123SM  H23H 9368   6.940   0.062   3.882  3.2725  1.2875  2.2564
   7223SM     N 9369   7.014   4.007   7.427 -0.1528 -0.5196  0.5337
   7223SM   C15 9370   6.946   4.097   7.532 -0.3827 -0.7816 -0.9822
   7223SM  H15A 9371   6.980   4.067   7.630 -0.3176  0.2805 -0.6627
   7223SM  H15B 9372   6.839   4.087   7.535 -0.3957 -0.3202  0.9631
   7223SM  H15C 9373   6.954   4.205   7.530 -4.1045 -0.3020  1.0893
   7223SM   C14 9374   7.163   4.039   7.418 -0.6552 -0.2015  0.0739
   7223SM  H14A 9375   7.218   4.018   7.508  2.3863  1.5086 -1.2514
   7223SM  H14B 9376   7.171   4.146   7.408 -1.8765  0.1332  2.0847
   7223SM  H14C 9377   7.218   3.992   7.338 -1.7816  0.8215 -1.3614
   7223SM   C13 9378   6.994   3.865   7.459  0.4355  0.6069 -0.3177
   7223SM  H13A 9379   7.049   3.828   7.545 -0.6377 -0.5175 -0.0850
   7223SM  H13B 9380   7.029   3.793   7.387  0.0828 -1.8473  1.8032
   7223SM  H13C 9381   6.889   3.840   7.467  0.4256  0.9296  0.7330
   7223SM   C12 9382   6.955   4.049   7.292  0.2094 -0.7214 -0.3506
   7223SM  H12A 9383   6.955   4.157   7.285 -0.2026 -0.7947 -1.5769
   7223SM  H12B 9384   6.850   4.026   7.300 -0.4232  0.9800 -2.7246
   7223SM   C11 9385   7.011   3.993   7.153 -0.2201 -0.5301 -0.3306
   7223SM  H11A 9386   7.117   4.027   7.150  0.1850 -1.4886  1.7000
   7223SM  H11B 9387   6.954   4.037   7.068 -1.3856 -0.9176  0.2355
   7223SM     P 9388   6.881   3.772   7.123 -0.3758 -0.1164 -0.2848
   7223SM   O13 9389   6.901   3.640   7.187 -0.3085 -0.4552  0.3210
   7223SM   O14 9390   6.765   3.844   7.175  0.4421 -0.0243 -0.2626
   7223SM   O11 9391   6.871   3.753   6.960 -0.4734  0.1010 -0.0752
   7223SM   O12 9392   7.015   3.850   7.145  0.1808 -1.0349  0.1222
   7223SM   C1S 9393   6.987   3.693   6.891  0.7438  0.1182  0.6904
   7223SM   H1S 9394   6.999   3.585   6.917  3.1641  0.2602  0.4285
   7223SM   H1T 9395   7.081   3.735   6.933  1.3379 -1.1751  0.7086
   7223SM    NF 9396   7.083   3.631   6.680  0.4753 -0.1381  0.3592
   7223SM   HNF 9397   7.176   3.667   6.675  0.6881 -0.7203  0.1176
   7223SM   C2S 9398   6.978   3.725   6.743 -1.1360  1.0823  0.2691
   7223SM   H2S 9399   6.875   3.706   6.704 -0.7802  0.1879 -0.2877
   7223SM   C3S 9400   7.007   3.878   6.737  0.4963 -0.4428  0.5816
   7223SM   H3S 9401   7.082   3.909   6.813  0.6153  0.5642  0.0636
   7223SM    O3 9402   6.892   3.953   6.761 -0.2280  0.2727  0.5902
   7223SM   HO3 9403   6.846   3.892   6.820 -1.6348  1.8668  1.2376
   7223SM   C4S 9404   7.078   3.911   6.610 -0.0586 -0.1294  0.2517
   7223SM   H4S 9405   7.187   3.924   6.609 -0.3116  2.6249 -0.2139
   7223SM   C5S 9406   7.017   3.933   6.485  0.1542 -1.0090 -0.8946
   7223SM   H5S 9407   6.907   3.926   6.474  0.1728 -3.5753 -0.0091
   7223SM   C6S 9408   7.091   3.968   6.364 -0.5659 -0.2470 -0.5193
   7223SM   H6S 9409   7.189   4.009   6.395 -1.9603  1.6997  1.6826
   7223SM   H6T 9410   7.041   4.047   6.305 -0.6102  1.3795  1.5568
   7223SM   C7S 9411   7.093   3.848   6.270 -0.6683 -0.2395  0.5167
   7223SM   H7S 9412   6.993   3.833   6.224  0.2626  0.8482 -2.0432
   7223SM   H7T 9413   7.123   3.762   6.334 -1.4514 -1.5050 -0.7694
   7223SM   C8S 9414   7.194   3.870   6.154  0.9003 -0.5223  0.5754
   7223SM   H8S 9415   7.263   3.788   6.126  0.7963  0.0878 -1.6823
   7223SM   H8T 9416   7.260   3.940   6.210  0.7641 -0.3342  0.5015
   7223SM   C9S 9417   7.135   3.909   6.018 -0.1535 -0.0621 -0.1279
   7223SM   H9S 9418   7.101   4.015   6.017  0.0952  0.0549  1.3860
   7223SM   H9T 9419   7.051   3.839   5.999 -0.1254 -0.1357  0.0219
   7223SM  C10S 9420   7.226   3.896   5.897  0.1276  0.4013  0.2584
   7223SM  H10S 9421   7.271   3.795   5.906  0.2822  0.5863  1.6696
   7223SM  H10T 9422   7.315   3.962   5.899  1.1095 -0.8641 -0.1824
   7223SM  C11S 9423   7.157   3.912   5.766 -0.5556  0.3059  0.2058
   7223SM  H11S 9424   7.054   3.873   5.785 -0.5584  0.2629  0.0993
   7223SM  H11T 9425   7.197   3.857   5.679 -0.7475  0.8190 -0.2134
   7223SM  C12S 9426   7.132   4.055   5.725 -0.1879 -0.3487 -0.4863
   7223SM  H12S 9427   7.231   4.104   5.713 -0.1404 -0.2460  0.2980
   7223SM  H12T 9428   7.083   4.101   5.813  1.2914 -0.5361  0.4641
   7223SM  C13S 9429   7.040   4.083   5.603  0.3692  0.6530 -0.3565
   7223SM  H13S 9430   6.941   4.043   5.631  0.0400  1.4728 -0.3145
   7223SM  H13T 9431   7.073   4.014   5.522 -1.2188  1.2297 -1.5515
   7223SM  C14S 9432   7.020   4.229   5.553 -0.3500  1.0926 -0.6412
   7223SM  H14S 9433   7.120   4.276   5.544  0.9078 -1.5533 -1.5691
   7223SM  H14T 9434   6.964   4.276   5.636 -1.8538 -1.3713 -0.1534
   7223SM  C15S 9435   6.937   4.234   5.424  0.4460  0.0414  0.2506
   7223SM  H15S 9436   6.838   4.187   5.437  0.6194 -0.2236  0.6617
   7223SM  H15T 9437   6.994   4.181   5.345  0.7653 -0.3763  0.7556
   7223SM  C16S 9438   6.937   4.381   5.384  0.2693  0.0179  0.2273
   7223SM  H16S 9439   6.922   4.398   5.275 -0.7175 -4.0076 -0.4247
   7223SM  H16T 9440   7.034   4.424   5.418  0.3706 -0.9678  1.2572
   7223SM  C17S 9441   6.838   4.474   5.458  0.5689 -0.2656  0.2143
   7223SM  H17S 9442   6.841   4.463   5.569 -2.4995  2.2310  0.6857
   7223SM  H17T 9443   6.739   4.446   5.415  1.9011 -2.7478 -1.4581
   7223SM  C18S 9444   6.871   4.621   5.433  0.1630 -0.3670 -0.0165
   7223SM  H18S 9445   6.808   4.681   5.501 -1.5313 -1.5680 -0.4584
   7223SM  H18T 9446   6.841   4.653   5.331 -1.5107  0.3629  0.6743
   7223SM  H18U 9447   6.979   4.639   5.448 -0.0409  1.0214 -0.0791
   7223SM   C1F 9448   7.049   3.501   6.675  0.1692 -0.4132  0.1055
   7223SM    OF 9449   6.933   3.479   6.698  0.4085  0.7701 -0.0177
   7223SM   C2F 9450   7.151   3.400   6.654  0.6430 -0.2078 -0.0003
   7223SM   H2F 9451   7.106   3.299   6.640 -1.6119  1.0005 -2.0449
   7223SM   H2G 9452   7.206   3.402   6.751  1.0332  0.8067 -0.2305
   7223SM   C3F 9453   7.232   3.423   6.530 -0.2489 -0.6403 -0.3433
   7223SM   H3F 9454   7.327   3.366   6.526  0.9586  1.0594  1.9116
   7223SM   H3G 9455   7.277   3.523   6.547  0.7568 -1.1970  0.3321
   7223SM   C4F 9456   7.167   3.411   6.397  0.4596  0.4452  0.8615
   7223SM   H4F 9457   7.075   3.471   6.378  0.2688 -0.9072 -3.5203
   7223SM   H4G 9458   7.150   3.304   6.372  0.6691  0.6124 -0.0251
   7223SM   C5F 9459   7.265   3.451   6.285  0.1715 -0.5074  0.1693
   7223SM   H5F 9460   7.369   3.417   6.308  0.3800  0.4502  0.6712
   7223SM   H5G 9461   7.268   3.561   6.293  1.6362 -0.6425  2.5247
   7223SM   C6F 9462   7.212   3.408   6.149  0.2438  0.2147  0.0394
   7223SM   H6F 9463   7.103   3.431   6.149  0.1704 -0.0404 -1.4551
   7223SM   H6G 9464   7.220   3.297   6.144 -0.5776  0.0239  1.8593
   7223SM   C7F 9465   7.269   3.483   6.023 -0.1754  0.1953 -0.1489
   7223SM   H7F 9466   7.376   3.514   6.032  0.2273 -1.2727  0.3876
   7223SM   H7G 9467   7.211   3.578   6.018 -1.4785 -0.5780 -0.1950
   7223SM   C8F 9468   7.231   3.405   5.889  0.4779 -0.5675 -0.4551
   7223SM   H8F 9469   7.120   3.390   5.884  0.4215 -0.1716 -0.3753
   7223SM   H8G 9470   7.270   3.301   5.893  2.4505  0.1717  0.6619
   7223SM   C9F 9471   7.282   3.468   5.758 -0.5752 -0.7723  0.0917
   7223SM   H9F 9472   7.213   3.553   5.742  0.0073 -0.6104 -1.7719
   7223SM   H9G 9473   7.274   3.387   5.682 -2.9267 -0.4412 -0.0714
   7223SM  C10F 9474   7.431   3.520   5.757  0.1435 -0.5900  0.3425
   7223SM  H10F 9475   7.502   3.434   5.762  1.6347  0.5225 -0.5755
   7223SM  H10G 9476   7.448   3.597   5.835  1.5180  1.3046 -1.6857
   7223SM  C11F 9477   7.467   3.608   5.634  0.2350  0.0550 -0.6703
   7223SM  H11F 9478   7.573   3.642   5.639  0.1478  0.3185 -0.6072
   7223SM  H11G 9479   7.401   3.697   5.645 -0.0552 -0.3680  1.3985
   7223SM  C12F 9480   7.454   3.544   5.502 -0.1646 -0.9100  0.8497
   7223SM  H12F 9481   7.353   3.502   5.484 -0.8367  0.6349  0.8931
   7223SM  H12G 9482   7.522   3.456   5.505  3.9506  1.9029 -0.6500
   7223SM  C13F 9483   7.486   3.624   5.373 -0.3092 -0.3285 -0.9794
   7223SM  H13F 9484   7.478   3.547   5.292 -1.3261 -0.0769 -1.1246
   7223SM  H13G 9485   7.594   3.644   5.390 -0.6679 -0.2356  1.4867
   7223SM  C14F 9486   7.403   3.748   5.359 -0.5454  0.1960 -0.8839
   7223SM  H14F 9487   7.427   3.822   5.438  0.8439 -1.0798 -0.0846
   7223SM  H14G 9488   7.299   3.712   5.371  0.0836 -1.7128 -0.9211
   7223SM  C15F 9489   7.410   3.816   5.217  0.1224 -0.4106  0.4051
   7223SM  H15F 9490   7.399   3.726   5.154  0.3156 -0.4665  0.4478
   7223SM  H15G 9491   7.515   3.845   5.196  0.1388 -1.1953 -0.6679
   7223SM  C16F 9492   7.316   3.934   5.183  0.2702 -0.1897  0.6538
   7223SM  H16F 9493   7.215   3.912   5.223 -0.4617  2.4386  0.4474
   7223SM  H16G 9494   7.310   3.921   5.073  0.8313  1.1452  0.4433
   7223SM  C17F 9495   7.374   4.069   5.232  0.6252 -1.0240 -0.6594
   7223SM  H17F 9496   7.478   4.067   5.193  0.1902 -0.4952 -1.9183
   7223SM  H17G 9497   7.383   4.075   5.342  0.1329 -1.1329 -0.6127
   7223SM  C18F 9498   7.301   4.191   5.167  0.0241  0.1378 -0.1687
   7223SM  H18F 9499   7.198   4.186   5.209  0.4472 -0.3336  0.8327
   7223SM  H18G 9500   7.303   4.166   5.059  0.9022 -3.0165  0.4860
   7223SM  C19F 9501   7.369   4.323   5.190 -0.5323 -0.0886 -0.0591
   7223SM  H19F 9502   7.473   4.296   5.161 -1.8152 -2.5058 -3.0081
   7223SM  H19G 9503   7.362   4.351   5.297 -0.2120  0.5526 -0.1997
   7223SM  C20F 9504   7.318   4.435   5.103  1.1173 -0.4311 -0.1221
   7223SM  H20F 9505   7.305   4.405   4.996  1.7231 -0.2257 -0.2571
   7223SM  H20G 9506   7.386   4.522   5.100  0.3963  0.1698 -3.5935
   7223SM  C21F 9507   7.183   4.502   5.152 -0.5407  0.1531 -0.3028
   7223SM  H21F 9508   7.187   4.535   5.258  1.9551 -0.8160 -0.0098
   7223SM  H21G 9509   7.106   4.422   5.143 -0.5432  0.1466 -0.2233
   7223SM  C22F 9510   7.137   4.619   5.067  0.2946  0.1577 -0.4445
   7223SM  H22F 9511   7.034   4.638   5.105  0.1637 -1.7810  0.2877
   7223SM  H22G 9512   7.122   4.593   4.960 -1.9388  1.4254 -0.4928
   7223SM  C23F 9513   7.226   4.745   5.086  0.0703  0.1802 -0.1256
   7223SM  H23F 9514   7.270   4.743   5.188 -0.6023 -2.7005  0.2068
   7223SM  H23G 9515   7.182   4.843   5.059  1.8220  1.3843  1.1965
   7223SM  H23H 9516   7.318   4.731   5.027  0.5088  0.0872  0.5636
   7323SM     N 9517   5.779   1.516   7.429 -0.2653 -0.2552  0.3106
   7323SM   C15 9518   5.924   1.531   7.456  0.2133  0.0149 -0.7079
   7323SM  H15A 9519   5.983   1.441   7.449 -1.7226 -1.3809  0.0944
   7323SM  H15B 9520   5.937   1.577   7.554 -1.3698 -0.8240 -0.0675
   7323SM  H15C 9521   5.971   1.594   7.382  2.5343  0.6918  1.1861
   7323SM   C14 9522   5.709   1.451   7.546 -0.4290  0.2250  0.2650
   7323SM  H14A 9523   5.765   1.371   7.592 -2.5077 -0.2106  2.2213
   7323SM  H14B 9524   5.612   1.410   7.522  0.0308 -0.5008 -0.4248
   7323SM  H14C 9525   5.694   1.530   7.617 -0.5976 -1.0522  1.7170
   7323SM   C13 9526   5.707   1.641   7.398 -0.1373 -0.4702 -0.3170
   7323SM  H13A 9527   5.743   1.690   7.308 -0.2660  0.6933  0.2504
   7323SM  H13B 9528   5.722   1.710   7.480  1.1322 -0.3704 -0.6031
   7323SM  H13C 9529   5.603   1.629   7.373 -0.1178  0.3343 -0.8431
   7323SM   C12 9530   5.778   1.421   7.311 -0.3739  0.5117  0.4927
   7323SM  H12A 9531   5.677   1.391   7.287  0.1778  0.7956 -2.6833
   7323SM  H12B 9532   5.817   1.323   7.335 -0.9638  0.0914 -0.2245
   7323SM   C11 9533   5.836   1.459   7.169  0.0212  0.1654  0.3415
   7323SM  H11A 9534   5.848   1.374   7.098  1.1684  0.5008  0.1017
   7323SM  H11B 9535   5.939   1.493   7.192  0.0148 -1.2689  2.8047
   7323SM     P 9536   5.619   1.542   7.049 -0.0021 -0.3810  0.0301
   7323SM   O13 9537   5.575   1.404   7.076  0.4488 -0.0151 -0.2479
   7323SM   O14 9538   5.523   1.648   7.094  0.1094  0.2973 -0.5184
   7323SM   O11 9539   5.651   1.558   6.900 -0.0719  0.0907  0.0555
   7323SM   O12 9540   5.758   1.564   7.114 -0.4638  0.3628  0.1472
   7323SM   C1S 9541   5.725   1.457   6.827  0.4805  0.0312 -0.4494
   7323SM   H1S 9542   5.705   1.352   6.859 -1.0802  0.3261 -0.3892
   7323SM   H1T 9543   5.835   1.469   6.834  0.5419 -1.0492  0.9131
   7323SM    NF 9544   5.735   1.348   6.603 -0.5782  0.6299 -0.8020
   7323SM   HNF 9545   5.784   1.368   6.518 -0.9673  2.5173 -0.6324
   7323SM   C2S 9546   5.707   1.470   6.677  0.2966 -0.5767 -0.4353
   7323SM   H2S 9547   5.596   1.474   6.675  0.3049  0.3661  0.3390
   7323SM   C3S 9548   5.771   1.601   6.629  0.5758  0.2716  0.1732
   7323SM   H3S 9549   5.879   1.575   6.635 -0.1336 -3.1208  0.1674
   7323SM    O3 9550   5.751   1.718   6.709 -0.2014  0.0473 -0.2981
   7323SM   HO3 9551   5.714   1.673   6.785 -0.0178  1.6186  0.7583
   7323SM   C4S 9552   5.734   1.629   6.489  0.8051 -0.6533  0.6637
   7323SM   H4S 9553   5.793   1.570   6.417  0.2392 -0.1939 -0.1888
   7323SM   C5S 9554   5.640   1.715   6.438 -0.3927 -0.1340 -0.1838
   7323SM   H5S 9555   5.595   1.782   6.513 -0.8451 -1.5650  0.8547
   7323SM   C6S 9556   5.601   1.730   6.288  0.8667  0.2638 -0.7413
   7323SM   H6S 9557   5.628   1.830   6.247 -2.0090  1.5914  0.3148
   7323SM   H6T 9558   5.491   1.731   6.271  0.5857  0.8742  0.8838
   7323SM   C7S 9559   5.656   1.630   6.183 -0.5105  0.4311  0.3475
   7323SM   H7S 9560   5.766   1.614   6.183 -0.6379 -0.7690 -1.2523
   7323SM   H7T 9561   5.633   1.659   6.078  1.8261  0.7199 -0.1406
   7323SM   C8S 9562   5.585   1.493   6.191 -0.2161  0.6420 -0.8002
   7323SM   H8S 9563   5.567   1.481   6.300 -0.2518 -1.7803 -1.0033
   7323SM   H8T 9564   5.667   1.420   6.171  0.6086  1.6218 -1.0337
   7323SM   C9S 9565   5.464   1.469   6.106  0.3061  0.0291  0.1692
   7323SM   H9S 9566   5.501   1.475   6.001  0.1673 -2.2506 -0.0602
   7323SM   H9T 9567   5.390   1.550   6.124 -0.8041 -1.0003  0.3755
   7323SM  C10S 9568   5.384   1.338   6.124 -0.2095  0.6389  0.8781
   7323SM  H10S 9569   5.352   1.333   6.230 -2.7349  0.0480  0.1676
   7323SM  H10T 9570   5.459   1.257   6.111  0.7416  1.5314  0.6983
   7323SM  C11S 9571   5.264   1.319   6.035  0.0991 -0.1237  0.0124
   7323SM  H11S 9572   5.187   1.380   6.086 -0.5576 -1.3842  0.5767
   7323SM  H11T 9573   5.231   1.212   6.039 -1.8776  0.3256 -1.8450
   7323SM  C12S 9574   5.291   1.358   5.886 -0.2387  0.4119  0.4161
   7323SM  H12S 9575   5.383   1.303   5.858 -0.1751  1.2371 -1.1007
   7323SM  H12T 9576   5.319   1.465   5.878  0.9930 -0.0137 -1.8928
   7323SM  C13S 9577   5.179   1.311   5.797  0.3922  0.6386  0.2218
   7323SM  H13S 9578   5.077   1.335   5.834  0.3170  2.9271 -1.3033
   7323SM  H13T 9579   5.182   1.200   5.793 -4.1797  0.3151  0.7466
   7323SM  C14S 9580   5.202   1.371   5.659  0.2856  0.2733 -0.6121
   7323SM  H14S 9581   5.309   1.359   5.631  0.3738  0.2100 -0.2520
   7323SM  H14T 9582   5.182   1.480   5.660 -2.6359 -0.1697 -1.4964
   7323SM  C15S 9583   5.117   1.319   5.542 -0.3347  0.5708  0.0276
   7323SM  H15S 9584   5.104   1.209   5.545  2.3909  0.1421 -1.0009
   7323SM  H15T 9585   5.165   1.341   5.445 -1.2712  0.7648 -0.3930
   7323SM  C16S 9586   4.978   1.373   5.555  0.2273 -0.4776 -0.6475
   7323SM  H16S 9587   4.982   1.481   5.579 -3.0922 -0.4558  0.2630
   7323SM  H16T 9588   4.935   1.327   5.647  0.6088  0.4400 -0.0003
   7323SM  C17S 9589   4.878   1.361   5.440 -0.4784 -0.2458 -0.0350
   7323SM  H17S 9590   4.771   1.369   5.469 -0.4134  2.0204 -0.2312
   7323SM  H17T 9591   4.892   1.264   5.386  2.2813  0.6155 -1.0697
   7323SM  C18S 9592   4.897   1.463   5.333  0.0832 -0.1445  0.5146
   7323SM  H18S 9593   4.876   1.566   5.370  2.0204  0.4015  0.2133
   7323SM  H18T 9594   4.830   1.445   5.246 -0.3844  0.0045  0.8375
   7323SM  H18U 9595   4.998   1.474   5.288  0.5671  3.0891  2.0545
   7323SM   C1F 9596   5.661   1.234   6.603 -0.3601  0.0567 -0.4910
   7323SM    OF 9597   5.562   1.220   6.674 -0.6524  0.0929 -0.0109
   7323SM   C2F 9598   5.721   1.120   6.533  0.5240 -0.1200 -0.4873
   7323SM   H2F 9599   5.731   1.051   6.620 -1.1791 -0.3082 -0.4211
   7323SM   H2G 9600   5.814   1.156   6.483  2.4457  0.8264  3.3616
   7323SM   C3F 9601   5.631   1.048   6.432 -0.3077  0.0534 -0.5844
   7323SM   H3F 9602   5.529   1.026   6.470 -0.5928  1.6839 -0.3420
   7323SM   H3G 9603   5.675   0.948   6.411  1.6044  0.7127  0.0481
   7323SM   C4F 9604   5.621   1.127   6.295 -0.1930  0.7719  0.4281
   7323SM   H4F 9605   5.560   1.219   6.310 -1.4974 -0.3173  2.1796
   7323SM   H4G 9606   5.557   1.070   6.224 -0.2063  0.5446  0.6208
   7323SM   C5F 9607   5.761   1.138   6.236  0.0391  0.0069  0.3817
   7323SM   H5F 9608   5.819   1.044   6.247  1.4850  1.0461  2.2948
   7323SM   H5G 9609   5.822   1.221   6.278 -1.6095  1.1713  0.5540
   7323SM   C6F 9610   5.752   1.159   6.080  0.5737 -0.1476  0.3479
   7323SM   H6F 9611   5.699   1.251   6.046  1.8094 -0.1389 -1.6670
   7323SM   H6G 9612   5.690   1.076   6.041 -1.1672  0.8926  0.7561
   7323SM   C7F 9613   5.886   1.149   6.011  0.0400  0.1297  0.1529
   7323SM   H7F 9614   5.947   1.058   6.028 -1.6760 -1.1170 -0.0716
   7323SM   H7G 9615   5.950   1.229   6.053 -1.9769  0.8605  2.0336
   7323SM   C8F 9616   5.864   1.155   5.859 -0.1295 -0.3987  0.1317
   7323SM   H8F 9617   5.810   1.248   5.830  0.2744 -0.3002 -0.3153
   7323SM   H8G 9618   5.800   1.068   5.833 -0.2038 -0.2553 -0.1715
   7323SM   C9F 9619   5.994   1.158   5.781  0.3623  0.7034  0.1125
   7323SM   H9F 9620   6.066   1.086   5.826  1.5247  1.4292 -0.5536
   7323SM   H9G 9621   6.039   1.258   5.798  2.8991 -0.5788  1.5892
   7323SM  C10F 9622   5.963   1.123   5.633 -0.2128  0.4586  0.5151
   7323SM  H10F 9623   5.923   1.213   5.583 -1.0937  0.6458  1.5097
   7323SM  H10G 9624   5.881   1.048   5.630  1.0869 -1.0624  1.1962
   7323SM  C11F 9625   6.084   1.055   5.571 -0.4728  0.3082  0.7876
   7323SM  H11F 9626   6.086   0.953   5.615 -1.5514 -0.5148 -0.9496
   7323SM  H11G 9627   6.168   1.122   5.600  1.2742 -1.0928 -0.7129
   7323SM  C12F 9628   6.076   1.040   5.421  0.7675 -0.9793  0.5961
   7323SM  H12F 9629   6.105   1.140   5.383 -2.8851 -0.0785 -0.2222
   7323SM  H12G 9630   5.971   1.032   5.385  1.5965 -1.5598 -1.8255
   7323SM  C13F 9631   6.172   0.935   5.363 -0.2457 -0.8671 -0.3726
   7323SM  H13F 9632   6.141   0.838   5.409 -4.9866  0.6776  0.2827
   7323SM  H13G 9633   6.277   0.961   5.387 -0.6594  0.1783  0.3438
   7323SM  C14F 9634   6.147   0.916   5.210 -0.5219  0.1875  0.1641
   7323SM  H14F 9635   6.037   0.906   5.213 -0.6213  1.3621  2.7266
   7323SM  H14G 9636   6.202   0.826   5.176  1.0433  1.4096 -0.6730
   7323SM  C15F 9637   6.199   1.038   5.126 -0.4677  0.2837  0.2604
   7323SM  H15F 9638   6.302   1.062   5.159  0.7931  0.7523 -3.4740
   7323SM  H15G 9639   6.136   1.128   5.141  0.8193  1.0316  1.3858
   7323SM  C16F 9640   6.214   1.010   4.978 -0.3941 -0.4891 -0.2818
   7323SM  H16F 9641   6.253   1.107   4.939 -0.2161 -0.1336  0.7588
   7323SM  H16G 9642   6.115   0.998   4.929 -1.4827  2.1940  1.0516
   7323SM  C17F 9643   6.319   0.890   4.951 -0.0081 -0.2032  0.6510
   7323SM  H17F 9644   6.272   0.790   4.962 -0.3829 -0.1280 -0.2044
   7323SM  H17G 9645   6.409   0.898   5.016  0.3075 -0.7459  0.2846
   7323SM  C18F 9646   6.381   0.890   4.811  0.8338  0.4742 -0.0594
   7323SM  H18F 9647   6.440   0.983   4.796  1.9530  0.4458  3.2911
   7323SM  H18G 9648   6.296   0.896   4.740  0.0416  1.1731  0.9230
   7323SM  C19F 9649   6.460   0.762   4.778  0.2885  0.5288  0.3589
   7323SM  H19F 9650   6.385   0.681   4.770  0.0499  0.7344  0.4984
   7323SM  H19G 9651   6.530   0.734   4.859  0.0263  0.6331  0.6222
   7323SM  C20F 9652   6.527   0.772   4.635 -0.4126  0.0636  0.1733
   7323SM  H20F 9653   6.589   0.864   4.622 -0.2674 -0.2929 -2.0339
   7323SM  H20G 9654   6.448   0.785   4.558 -1.1858 -2.7975  0.3666
   7323SM  C21F 9655   6.609   0.644   4.611  0.8047 -0.2362  0.1373
   7323SM  H21F 9656   6.547   0.557   4.641 -1.9940  1.3803 -0.6925
   7323SM  H21G 9657   6.697   0.644   4.679 -0.4090 -0.2978  1.7723
   7323SM  C22F 9658   6.652   0.635   4.469  0.0103  0.1518  0.1148
   7323SM  H22F 9659   6.714   0.722   4.440 -0.1130 -0.0134 -0.6475
   7323SM  H22G 9660   6.558   0.646   4.410 -0.6597  1.6206  1.3566
   7323SM  C23F 9661   6.741   0.509   4.436  0.5613  0.7000 -0.4212
   7323SM  H23F 9662   6.675   0.421   4.455 -2.9603  3.1344 -0.2751
   7323SM  H23G 9663   6.825   0.500   4.508 -0.9136 -0.4165  1.2545
   7323SM  H23H 9664   6.777   0.519   4.332 -2.0692  0.0276 -1.4759
   7423SM     N 9665   1.161   4.155   6.760 -0.1224  0.7209 -0.0223
   7423SM   C15 9666   1.073   4.033   6.764  0.0582 -0.4699 -0.2546
   7423SM  H15A 9667   1.127   3.949   6.806 -1.6402 -1.7046 -0.4459
   7423SM  H15B 9668   1.041   4.016   6.662  1.4884  1.8715 -1.1927
   7423SM  H15C 9669   0.992   4.060   6.829  1.1336  0.2003  0.8556
   7423SM   C14 9670   1.229   4.162   6.897  0.2433 -0.1740 -0.5743
   7423SM  H14A 9671   1.277   4.258   6.913  0.8055 -0.8735  2.3090
   7423SM  H14B 9672   1.297   4.078   6.903 -2.1140 -2.0749  1.2307
   7423SM  H14C 9673   1.156   4.144   6.973 -0.1785 -1.2605 -1.2148
   7423SM   C13 9674   1.263   4.142   6.650  0.8856  0.2195  0.7341
   7423SM  H13A 9675   1.320   4.051   6.667  0.6697 -0.4455 -1.7170
   7423SM  H13B 9676   1.326   4.226   6.623  2.6735 -1.5950 -1.1280
   7423SM  H13C 9677   1.213   4.118   6.557 -0.8721 -0.3460  1.7739
   7423SM   C12 9678   1.070   4.275   6.751  0.2119 -0.3270  0.1614
   7423SM  H12A 9679   1.014   4.281   6.843  1.0779  1.0128  0.6331
   7423SM  H12B 9680   0.996   4.262   6.675 -3.3076 -0.9027  3.3911
   7423SM   C11 9681   1.127   4.421   6.736 -0.5200 -0.4129  0.9455
   7423SM  H11A 9682   1.047   4.498   6.729  1.5200  1.8358  1.4696
   7423SM  H11B 9683   1.175   4.422   6.635 -1.5464 -1.7800  0.4024
   7423SM     P 9684   1.171   4.499   6.983  0.6682 -0.0892 -0.3277
   7423SM   O13 9685   1.030   4.458   7.009  0.3143 -0.4305  0.1995
   7423SM   O14 9686   1.278   4.463   7.075  0.7298 -0.2673 -1.1246
   7423SM   O11 9687   1.174   4.655   6.958  0.5437  0.0621 -0.1392
   7423SM   O12 9688   1.215   4.455   6.838 -0.2095 -0.0660  0.4662
   7423SM   C1S 9689   1.295   4.714   6.921 -0.1269  0.0790 -0.7095
   7423SM   H1S 9690   1.381   4.650   6.951 -0.5823 -1.9010 -3.2595
   7423SM   H1T 9691   1.311   4.812   6.970  2.6846  0.6072 -2.4391
   7423SM    NF 9692   1.433   4.793   6.729 -0.4503  0.8234 -0.3968
   7423SM   HNF 9693   1.426   4.880   6.680 -2.1204  1.0461  0.1932
   7423SM   C2S 9694   1.307   4.736   6.762  0.0044 -0.2176 -0.8916
   7423SM   H2S 9695   1.296   4.633   6.723 -0.9594 -1.2808  1.9396
   7423SM   C3S 9696   1.185   4.814   6.713  0.3931 -0.7159  0.0077
   7423SM   H3S 9697   1.199   4.917   6.753  2.5496 -1.0677  0.2677
   7423SM    O3 9698   1.060   4.779   6.764  0.3512 -0.0604 -0.8136
   7423SM   HO3 9699   1.081   4.725   6.840  1.4347 -0.8208 -1.6137
   7423SM   C4S 9700   1.179   4.824   6.564 -0.8961 -0.3612 -0.3137
   7423SM   H4S 9701   1.200   4.928   6.535  1.4975 -0.7765 -0.2108
   7423SM   C5S 9702   1.151   4.731   6.473  0.5080  0.5741 -0.1210
   7423SM   H5S 9703   1.139   4.626   6.504  0.9856  0.1708 -1.2600
   7423SM   C6S 9704   1.140   4.758   6.326  0.1612  0.2693 -0.3999
   7423SM   H6S 9705   1.228   4.732   6.264  2.1661  0.6388  2.1063
   7423SM   H6T 9706   1.117   4.865   6.305 -2.7732 -0.2502 -0.2658
   7423SM   C7S 9707   1.009   4.686   6.272  0.0267 -0.2567  0.6949
   7423SM   H7S 9708   0.913   4.724   6.313 -0.2979 -0.9066  0.5446
   7423SM   H7T 9709   1.003   4.578   6.298 -2.7497 -0.4455 -0.3594
   7423SM   C8S 9710   0.996   4.704   6.114  0.2961  0.2934 -0.2197
   7423SM   H8S 9711   1.079   4.640   6.078  2.3179  1.4555  2.1313
   7423SM   H8T 9712   1.035   4.804   6.084  0.6691  0.3084  0.3081
   7423SM   C9S 9713   0.858   4.658   6.070  0.5667  0.1123  0.3854
   7423SM   H9S 9714   0.779   4.732   6.097  0.4938  1.5397 -3.1653
   7423SM   H9T 9715   0.825   4.561   6.113  0.9412 -0.1779  0.0247
   7423SM  C10S 9716   0.856   4.633   5.919  0.2873 -0.8046 -0.3370
   7423SM  H10S 9717   0.922   4.544   5.909  0.7180 -0.6337  0.8623
   7423SM  H10T 9718   0.899   4.722   5.869 -0.6315 -0.7014 -0.9783
   7423SM  C11S 9719   0.714   4.606   5.860 -0.1391 -0.0564 -0.4979
   7423SM  H11S 9720   0.644   4.692   5.864  0.5129  0.6134 -2.3749
   7423SM  H11T 9721   0.672   4.523   5.920 -1.1201 -0.0791 -1.1955
   7423SM  C12S 9722   0.692   4.551   5.715  0.1549 -0.1045 -0.0208
   7423SM  H12S 9723   0.718   4.629   5.640  2.3090 -1.3955 -0.6901
   7423SM  H12T 9724   0.583   4.528   5.711 -0.2178  1.5560 -0.3952
   7423SM  C13S 9725   0.790   4.440   5.682 -0.1637 -0.0072 -0.6336
   7423SM  H13S 9726   0.788   4.389   5.781  0.2472  0.4487 -0.3822
   7423SM  H13T 9727   0.892   4.471   5.650 -0.0363  0.4071  0.1516
   7423SM  C14S 9728   0.731   4.333   5.591  0.7030  0.4910 -0.4621
   7423SM  H14S 9729   0.697   4.389   5.501 -0.5846  0.8133  0.2043
   7423SM  H14T 9730   0.643   4.294   5.647 -1.0739 -0.0222 -3.3955
   7423SM  C15S 9731   0.834   4.231   5.553  0.0434  0.3473  0.5437
   7423SM  H15S 9732   0.874   4.182   5.644 -1.0623  0.6405  1.1999
   7423SM  H15T 9733   0.916   4.291   5.507  0.2625  0.2616  0.8127
   7423SM  C16S 9734   0.780   4.140   5.444 -0.2244  0.1547  0.4550
   7423SM  H16S 9735   0.763   4.200   5.352 -3.4837  0.4152  1.1084
   7423SM  H16T 9736   0.680   4.100   5.473 -1.5275  1.6437 -1.7307
   7423SM  C17S 9737   0.884   4.029   5.408  0.6887  0.0453  0.4125
   7423SM  H17S 9738   0.888   3.968   5.501 -0.2307 -0.2214  0.2854
   7423SM  H17T 9739   0.988   4.065   5.390  1.2819 -1.1216  1.3456
   7423SM  C18S 9740   0.853   3.926   5.294 -0.1070  0.4800  0.1654
   7423SM  H18S 9741   0.851   3.969   5.192  1.2259 -0.9837 -0.5236
   7423SM  H18T 9742   0.751   3.886   5.315 -0.1505  0.4327 -0.1286
   7423SM  H18U 9743   0.914   3.833   5.289 -2.1028 -0.8702 -0.7578
   7423SM   C1F 9744   1.541   4.716   6.737  0.6924  0.0911 -0.3372
   7423SM    OF 9745   1.535   4.596   6.760  0.0301 -0.4161 -0.6884
   7423SM   C2F 9746   1.671   4.771   6.711 -0.8987  0.3723  0.0535
   7423SM   H2F 9747   1.747   4.690   6.707 -0.5643  0.6659  0.3876
   7423SM   H2G 9748   1.710   4.835   6.793  0.7240  0.9869 -1.1305
   7423SM   C3F 9749   1.693   4.840   6.572  0.4549  0.4617 -0.1670
   7423SM   H3F 9750   1.792   4.890   6.559  0.8695 -0.5854 -1.1616
   7423SM   H3G 9751   1.606   4.910   6.573 -1.4655 -1.7456  2.2614
   7423SM   C4F 9752   1.681   4.743   6.456  0.3349 -0.5079  0.8238
   7423SM   H4F 9753   1.616   4.657   6.485  2.2768 -1.9406  1.0871
   7423SM   H4G 9754   1.783   4.702   6.444  1.3494  1.7760  1.1843
   7423SM   C5F 9755   1.637   4.810   6.325  0.9543  0.0281 -0.5727
   7423SM   H5F 9756   1.715   4.883   6.295  0.7691 -0.0074 -1.1610
   7423SM   H5G 9757   1.541   4.863   6.340  0.0811 -0.9032 -2.5443
   7423SM   C6F 9758   1.603   4.700   6.214 -0.6166 -0.2100  0.1551
   7423SM   H6F 9759   1.502   4.660   6.237 -0.8193  0.0565 -0.2602
   7423SM   H6G 9760   1.673   4.615   6.231  0.3074  0.4807 -0.0757
   7423SM   C7F 9761   1.615   4.763   6.074 -0.6120 -0.2440 -0.2776
   7423SM   H7F 9762   1.723   4.785   6.064  0.0110 -2.0920  1.6052
   7423SM   H7G 9763   1.561   4.860   6.065  0.1073  0.0991 -1.0843
   7423SM   C8F 9764   1.566   4.663   5.970  0.0107  0.9575  0.4784
   7423SM   H8F 9765   1.587   4.556   5.987 -1.2318  0.6626  0.2422
   7423SM   H8G 9766   1.609   4.686   5.870 -2.7195  2.2522 -0.5192
   7423SM   C9F 9767   1.415   4.662   5.938  0.0656  0.4633 -1.0021
   7423SM   H9F 9768   1.384   4.739   6.011 -0.3820 -0.9936  0.3956
   7423SM   H9G 9769   1.374   4.562   5.962  0.7727  0.3270 -0.3247
   7423SM  C10F 9770   1.385   4.716   5.795 -0.2594  0.5333  0.0716
   7423SM  H10F 9771   1.427   4.640   5.726 -1.5042 -0.3078  0.2057
   7423SM  H10G 9772   1.441   4.811   5.780 -0.5558  0.6863 -0.0783
   7423SM  C11F 9773   1.235   4.714   5.764  0.4381 -0.1476  0.4153
   7423SM  H11F 9774   1.188   4.785   5.836  0.7033  1.2305 -0.7212
   7423SM  H11G 9775   1.213   4.608   5.786  0.3769 -0.1885  0.1628
   7423SM  C12F 9776   1.214   4.749   5.614 -0.0101  0.3276 -0.3534
   7423SM  H12F 9777   1.280   4.696   5.542 -0.6511 -1.9036  0.6140
   7423SM  H12G 9778   1.230   4.859   5.613 -0.0459  0.3297 -0.9380
   7423SM  C13F 9779   1.067   4.713   5.580 -0.0561  0.0020  0.6890
   7423SM  H13F 9780   0.996   4.782   5.631 -0.9536 -0.2814 -0.1546
   7423SM  H13G 9781   1.043   4.609   5.610  0.0936  0.3543  2.0867
   7423SM  C14F 9782   1.042   4.729   5.426  0.4391 -0.4541  0.0782
   7423SM  H14F 9783   1.111   4.659   5.374  1.0330 -0.0829  0.3570
   7423SM  H14G 9784   1.068   4.834   5.400 -0.7503  0.0231  0.7089
   7423SM  C15F 9785   0.903   4.700   5.380  0.3826  0.4212  0.0986
   7423SM  H15F 9786   0.842   4.771   5.439  2.1170  2.3310 -0.2732
   7423SM  H15G 9787   0.880   4.597   5.414  1.8582  0.2600  0.6608
   7423SM  C16F 9788   0.876   4.728   5.237 -0.6605 -0.5374 -0.0622
   7423SM  H16F 9789   0.934   4.670   5.163 -2.6262 -0.1552 -1.9778
   7423SM  H16G 9790   0.900   4.834   5.212  1.5248 -1.2086 -0.9887
   7423SM  C17F 9791   0.730   4.725   5.213 -0.2865 -0.0367 -0.6215
   7423SM  H17F 9792   0.670   4.789   5.282 -1.1343 -0.4547 -0.9454
   7423SM  H17G 9793   0.687   4.623   5.221  1.3310 -0.7316 -0.5331
   7423SM  C18F 9794   0.694   4.772   5.068  0.0598 -0.4293 -0.0790
   7423SM  H18F 9795   0.761   4.739   4.985  0.8221  1.3646 -0.2226
   7423SM  H18G 9796   0.709   4.882   5.068  3.0247 -0.7193 -1.5081
   7423SM  C19F 9797   0.549   4.736   5.025 -0.1269  0.0356 -0.3268
   7423SM  H19F 9798   0.494   4.793   5.104 -0.0201  3.0451 -2.2702
   7423SM  H19G 9799   0.538   4.626   5.027 -0.8612  0.1122  0.5062
   7423SM  C20F 9800   0.509   4.785   4.890 -0.0515 -1.7204  0.0033
   7423SM  H20F 9801   0.555   4.886   4.881 -1.1485 -1.1423  0.5989
   7423SM  H20G 9802   0.399   4.803   4.888  0.2386  0.1818 -1.0324
   7423SM  C21F 9803   0.563   4.706   4.774  0.3731  0.1012  0.4157
   7423SM  H21F 9804   0.671   4.690   4.791  0.6197  1.0971 -0.1581
   7423SM  H21G 9805   0.545   4.773   4.688 -2.5285  0.9605  1.5726
   7423SM  C22F 9806   0.475   4.581   4.755  0.4753 -0.2348 -0.0451
   7423SM  H22F 9807   0.369   4.614   4.743  0.5690  0.8323  1.7574
   7423SM  H22G 9808   0.478   4.513   4.842  1.9169  0.0997  0.1836
   7423SM  C23F 9809   0.522   4.497   4.634  0.5912 -0.1551  0.3437
   7423SM  H23F 9810   0.620   4.450   4.657  0.1921 -1.0045  0.3473
   7423SM  H23G 9811   0.524   4.538   4.531  0.5063 -4.5361 -1.6263
   7423SM  H23H 9812   0.442   4.424   4.611 -1.1640  0.6937  3.3008
   7523SM     N 9813   0.095   5.258   7.134  0.4226 -0.0041 -1.1185
   7523SM   C15 9814   0.001   5.237   7.022  0.1892  0.2970  0.8432
   7523SM  H15A 9815   0.017   5.312   6.946  0.0732 -1.1204 -0.6551
   7523SM  H15B 9816  -0.102   5.241   7.053 -0.1898  1.7272 -0.4881
   7523SM  H15C 9817   0.022   5.144   6.971 -1.0409  0.8018 -0.6542
   7523SM   C14 9818   0.053   5.381   7.210 -0.0610 -0.1025  0.7143
   7523SM  H14A 9819   0.074   5.457   7.136 -1.2521 -0.0352  0.4375
   7523SM  H14B 9820   0.103   5.391   7.305  0.5558 -2.2210  0.6751
   7523SM  H14C 9821  -0.052   5.381   7.232 -0.0377 -1.8212  0.9635
   7523SM   C13 9822   0.078   5.146   7.235 -0.2321  0.4487  0.7660
   7523SM  H13A 9823   0.129   5.163   7.329  1.7584 -1.8660  0.2125
   7523SM  H13B 9824   0.099   5.047   7.198  1.1257  0.4507  1.4752
   7523SM  H13C 9825  -0.027   5.141   7.260 -0.7959  3.8337 -0.3080
   7523SM   C12 9826   0.242   5.263   7.091  0.3149 -0.0202  0.0364
   7523SM  H12A 9827   0.279   5.169   7.055  1.8057 -0.0636  1.5624
   7523SM  H12B 9828   0.299   5.293   7.177  0.2102 -0.2096  0.1718
   7523SM   C11 9829   0.277   5.361   6.975 -0.6144 -0.0082  0.0883
   7523SM  H11A 9830   0.201   5.346   6.895  0.3917  1.2821 -1.1706
   7523SM  H11B 9831   0.369   5.327   6.923 -1.5887 -1.4700 -0.7687
   7523SM     P 9832   0.280   5.616   6.931  0.3868  0.4642  0.2441
   7523SM   O13 9833   0.177   5.593   6.823  0.1350 -0.2135  0.2671
   7523SM   O14 9834   0.268   5.735   7.016  0.4912 -0.5308  0.1847
   7523SM   O11 9835   0.420   5.621   6.865 -0.6965 -0.2762  0.3092
   7523SM   O12 9836   0.287   5.489   7.030 -0.3388  0.1203 -0.3375
   7523SM   C1S 9837   0.471   5.552   6.749  0.4118  0.4347 -0.0563
   7523SM   H1S 9838   0.407   5.463   6.734 -0.6712  0.5373  3.2506
   7523SM   H1T 9839   0.574   5.514   6.769  0.6733  0.9401 -0.4157
   7523SM    NF 9840   0.516   5.585   6.507  0.6242  0.5474  0.2343
   7523SM   HNF 9841   0.610   5.598   6.476  0.5896  2.5464  0.8088
   7523SM   C2S 9842   0.478   5.651   6.631 -0.7513  0.3818  0.0122
   7523SM   H2S 9843   0.382   5.700   6.605  0.0804  2.1856  0.2029
   7523SM   C3S 9844   0.578   5.768   6.668  0.1104 -0.1810 -0.4595
   7523SM   H3S 9845   0.684   5.733   6.672  0.4039  0.8576  2.3609
   7523SM    O3 9846   0.547   5.835   6.794 -0.2615 -0.0137  0.0265
   7523SM   HO3 9847   0.490   5.772   6.839 -1.0142  0.9431  0.4477
   7523SM   C4S 9848   0.583   5.874   6.561 -1.2510  1.1082  0.9010
   7523SM   H4S 9849   0.504   5.950   6.560  1.0639  3.7218 -1.5212
   7523SM   C5S 9850   0.670   5.890   6.455 -0.4209 -0.1069  0.1753
   7523SM   H5S 9851   0.751   5.818   6.437 -0.5797 -0.1038 -0.6065
   7523SM   C6S 9852   0.641   6.008   6.367  0.0645 -0.2684 -0.3875
   7523SM   H6S 9853   0.734   6.041   6.316  0.9808 -0.4723  1.1046
   7523SM   H6T 9854   0.606   6.096   6.424  0.4572 -1.3491  1.6060
   7523SM   C7S 9855   0.552   5.982   6.244 -0.4143 -0.9958 -0.4812
   7523SM   H7S 9856   0.456   5.952   6.291 -1.1449  0.1719 -1.1945
   7523SM   H7T 9857   0.593   5.901   6.180 -2.1541 -2.6816  0.4556
   7523SM   C8S 9858   0.532   6.109   6.169  0.1669 -0.3159 -0.0524
   7523SM   H8S 9859   0.634   6.142   6.139 -0.2378 -0.0511 -1.2116
   7523SM   H8T 9860   0.490   6.186   6.237  2.8257  0.7872  0.4472
   7523SM   C9S 9861   0.439   6.077   6.056  0.1296  0.1670  0.6304
   7523SM   H9S 9862   0.484   6.005   5.984 -0.2999  0.5908 -0.0725
   7523SM   H9T 9863   0.430   6.170   5.996  2.6616  0.0563 -0.0678
   7523SM  C10S 9864   0.302   6.019   6.084 -0.2566 -0.2012  0.1657
   7523SM  H10S 9865   0.244   6.101   6.131  0.5581  1.3129 -1.3301
   7523SM  H10T 9866   0.304   5.929   6.148  4.2132 -1.0284 -0.7489
   7523SM  C11S 9867   0.212   6.007   5.958 -0.6326 -0.5441  0.3324
   7523SM  H11S 9868   0.251   5.917   5.906  0.6638  0.2078 -0.0548
   7523SM  H11T 9869   0.233   6.097   5.896  2.7586  0.3993  2.5395
   7523SM  C12S 9870   0.067   5.991   5.993  0.3896  0.0086 -0.1206
   7523SM  H12S 9871   0.033   6.086   6.040  0.2707  0.9219 -1.9814
   7523SM  H12T 9872   0.043   5.912   6.068 -1.3339  1.2993  0.7653
   7523SM  C13S 9873  -0.018   5.960   5.873 -0.7446 -0.0047 -0.0562
   7523SM  H13S 9874  -0.123   5.925   5.880 -0.9354 -0.3095 -3.0165
   7523SM  H13T 9875   0.037   5.881   5.817 -0.8624 -2.2990  2.8660
   7523SM  C14S 9876  -0.031   6.087   5.788  0.2507 -0.1208 -0.2242
   7523SM  H14S 9877   0.070   6.118   5.753  0.2723  0.4436  0.3046
   7523SM  H14T 9878  -0.068   6.177   5.843  3.1710  0.9036  0.2466
   7523SM  C15S 9879  -0.121   6.067   5.666  0.4373 -0.1131 -0.8138
   7523SM  H15S 9880  -0.222   6.030   5.693  0.1173  0.2449 -1.4923
   7523SM  H15T 9881  -0.076   5.986   5.605  0.8335 -1.1493  0.7817
   7523SM  C16S 9882  -0.132   6.193   5.585  0.3035 -0.3547 -0.0837
   7523SM  H16S 9883  -0.033   6.214   5.538 -0.0417  1.7747  0.0436
   7523SM  H16T 9884  -0.164   6.273   5.654 -1.7352 -1.7999  0.7349
   7523SM  C17S 9885  -0.235   6.175   5.464  0.2300 -0.4614  0.6506
   7523SM  H17S 9886  -0.336   6.154   5.507 -0.3445  0.0864 -0.3901
   7523SM  H17T 9887  -0.206   6.095   5.393 -3.1424  0.4806 -2.0876
   7523SM  C18S 9888  -0.253   6.302   5.379 -0.3569 -0.7448 -0.3561
   7523SM  H18S 9889  -0.306   6.282   5.283  0.2703  0.3722 -0.9635
   7523SM  H18T 9890  -0.157   6.356   5.364 -0.3473 -0.4535  0.6748
   7523SM  H18U 9891  -0.322   6.370   5.433 -0.4128 -1.3149  0.2977
   7523SM   C1F 9892   0.442   5.511   6.426 -0.8764  0.2010 -0.0418
   7523SM    OF 9893   0.327   5.497   6.459 -0.1567  0.4203 -0.5541
   7523SM   C2F 9894   0.506   5.453   6.304  0.2758  0.7782  0.8063
   7523SM   H2F 9895   0.438   5.374   6.266  0.4965 -0.0841  2.1299
   7523SM   H2G 9896   0.599   5.396   6.326 -1.0699 -2.0137 -0.2690
   7523SM   C3F 9897   0.529   5.566   6.197 -0.3363  0.3871 -0.1365
   7523SM   H3F 9898   0.593   5.642   6.246 -0.2703  0.9850 -1.1455
   7523SM   H3G 9899   0.424   5.602   6.187 -0.4274 -0.4196 -2.8515
   7523SM   C4F 9900   0.589   5.525   6.064 -0.3058  0.7902  0.3097
   7523SM   H4F 9901   0.515   5.457   6.017  1.9322 -1.5057 -0.1388
   7523SM   H4G 9902   0.678   5.462   6.086 -0.8218  0.1365  0.5345
   7523SM   C5F 9903   0.633   5.640   5.971 -0.3921  0.4736  0.2803
   7523SM   H5F 9904   0.723   5.685   6.017 -1.6112  1.7697  1.4876
   7523SM   H5G 9905   0.557   5.721   5.972 -0.3979  0.4623  1.2347
   7523SM   C6F 9906   0.632   5.581   5.832 -0.2182 -0.2733  0.0966
   7523SM   H6F 9907   0.560   5.499   5.811  0.5087 -0.8776 -0.0770
   7523SM   H6G 9908   0.724   5.518   5.836  1.1987  1.7432  0.6367
   7523SM   C7F 9909   0.659   5.679   5.715  0.6411 -0.6035 -0.4435
   7523SM   H7F 9910   0.700   5.773   5.757  0.2229 -1.3545  1.7481
   7523SM   H7G 9911   0.556   5.706   5.683  0.5739 -1.2915 -0.8234
   7523SM   C8F 9912   0.738   5.638   5.586 -0.5150 -0.1785  0.1644
   7523SM   H8F 9913   0.669   5.626   5.500 -1.6330 -2.3865  1.2770
   7523SM   H8G 9914   0.770   5.533   5.606 -1.0141 -0.1796  1.0356
   7523SM   C9F 9915   0.861   5.719   5.554 -0.2032 -0.2647  0.5930
   7523SM   H9F 9916   0.927   5.727   5.643  0.3799 -3.1298  0.5102
   7523SM   H9G 9917   0.819   5.821   5.538  0.8705 -0.0749 -1.3710
   7523SM  C10F 9918   0.919   5.681   5.422 -1.0511  1.0489 -0.3292
   7523SM  H10F 9919   0.857   5.671   5.330  1.6645 -0.4281 -2.1388
   7523SM  H10G 9920   0.958   5.577   5.430 -1.4153  0.9891  0.8909
   7523SM  C11F 9921   1.040   5.768   5.391 -0.3068 -0.3074  0.0461
   7523SM  H11F 9922   1.117   5.734   5.464 -1.7888 -1.7819  0.9999
   7523SM  H11G 9923   1.010   5.872   5.418  1.5533  0.1795  0.3814
   7523SM  C12F 9924   1.086   5.763   5.248  1.3160 -0.3685  0.1261
   7523SM  H12F 9925   1.014   5.817   5.182  0.4329 -3.2223 -1.4115
   7523SM  H12G 9926   1.086   5.659   5.210 -2.8859  0.0101 -1.4937
   7523SM  C13F 9927   1.230   5.821   5.224 -0.3696  0.2566 -0.2611
   7523SM  H13F 9928   1.299   5.773   5.297 -1.3266  1.1233  1.2709
   7523SM  H13G 9929   1.221   5.929   5.248  2.3779  0.3406  0.7620
   7523SM  C14F 9930   1.281   5.804   5.078 -0.0902  0.0553 -0.0805
   7523SM  H14F 9931   1.375   5.861   5.062  0.4123 -0.8623 -0.4295
   7523SM  H14G 9932   1.202   5.853   5.017  0.7508  0.9301 -0.5093
   7523SM  C15F 9933   1.317   5.669   5.030  0.1185  0.3155  0.0398
   7523SM  H15F 9934   1.358   5.680   4.927 -1.3331  0.6464 -0.5241
   7523SM  H15G 9935   1.223   5.609   5.030  0.6721 -0.6299  2.1464
   7523SM  C16F 9936   1.431   5.602   5.109 -0.5622  0.6215 -0.7318
   7523SM  H16F 9937   1.386   5.581   5.209  2.7794 -0.2196  0.7647
   7523SM  H16G 9938   1.518   5.670   5.125 -1.2476  0.8615  2.7478
   7523SM  C17F 9939   1.478   5.475   5.038 -0.6258 -0.0413 -0.5052
   7523SM  H17F 9940   1.530   5.509   4.946 -1.4269 -0.3124 -1.0626
   7523SM  H17G 9941   1.398   5.406   5.006  0.9616 -1.3085 -1.8989
   7523SM  C18F 9942   1.566   5.383   5.125  0.0344  0.5095  0.6425
   7523SM  H18F 9943   1.506   5.342   5.209 -0.7843 -2.1067 -1.0965
   7523SM  H18G 9944   1.648   5.446   5.165 -0.1366  0.1771  1.5299
   7523SM  C19F 9945   1.617   5.254   5.053  0.3198 -0.1724  0.0968
   7523SM  H19F 9946   1.615   5.280   4.945 -1.4837  1.2350  0.4231
   7523SM  H19G 9947   1.536   5.179   5.066 -0.7679  0.8215 -0.7847
   7523SM  C20F 9948   1.762   5.222   5.060 -0.4031  0.5622 -0.1137
   7523SM  H20F 9949   1.784   5.185   5.162  0.1398  0.2644 -0.3323
   7523SM  H20G 9950   1.831   5.308   5.051 -1.8857  1.9084  0.8542
   7523SM  C21F 9951   1.788   5.104   4.965  0.3911 -0.0736  0.0890
   7523SM  H21F 9952   1.752   5.131   4.864 -0.8720  0.1151  0.5719
   7523SM  H21G 9953   1.727   5.023   5.010 -1.0083 -0.1734 -1.8585
   7523SM  C22F 9954   1.936   5.063   4.972  0.2675 -0.8042  0.4176
   7523SM  H22F 9955   1.946   4.969   4.913  0.2131 -0.8711  0.5159
   7523SM  H22G 9956   1.953   5.045   5.080 -2.1416 -0.5475  0.9078
   7523SM  C23F 9957   2.028   5.157   4.899 -0.1274 -0.6855 -0.0809
   7523SM  H23F 9958   2.132   5.120   4.893 -0.5559 -2.3506  1.6705
   7523SM  H23G 9959   2.027   5.256   4.950 -1.9754 -0.0438 -1.2505
   7523SM  H23H 9960   1.988   5.171   4.797  1.0429  2.7331 -0.1832
   7623SM     N 9961   1.262   5.843   7.706  0.2112  0.6755  0.5438
   7623SM   C15 9962   1.322   5.872   7.841 -0.6025  0.5379  0.8379
   7623SM  H15A 9963   1.419   5.826   7.849 -1.6658 -1.6337  2.1594
   7623SM  H15B 9964   1.258   5.817   7.909 -2.7207 -1.0033 -2.1124
   7623SM  H15C 9965   1.319   5.976   7.869 -0.1987  1.0945 -1.0400
   7623SM   C14 9966   1.271   5.697   7.663  0.1494 -0.0543 -0.9722
   7623SM  H14A 9967   1.228   5.635   7.741  1.1700 -0.0762 -0.4133
   7623SM  H14B 9968   1.372   5.659   7.656 -0.4292 -2.3394  1.3627
   7623SM  H14C 9969   1.216   5.675   7.572  1.3975 -1.0771 -1.5120
   7623SM   C13 9970   1.117   5.882   7.712  0.5245 -0.0169  0.0305
   7623SM  H13A 9971   1.065   5.810   7.774  0.6185 -0.8226 -0.8018
   7623SM  H13B 9972   1.076   5.872   7.613 -1.3690  0.3189  0.7551
   7623SM  H13C 9973   1.095   5.980   7.751 -1.6544 -0.6449  0.5239
   7623SM   C12 9974   1.339   5.919   7.600 -0.0572 -0.8504  0.2448
   7623SM  H12A 9975   1.443   5.887   7.603 -0.3281 -1.7175  0.7404
   7623SM  H12B 9976   1.328   6.022   7.632 -0.2866 -0.2611 -1.6335
   7623SM   C11 9977   1.284   5.926   7.454 -0.3548 -0.3153  0.0561
   7623SM  H11A 9978   1.268   5.823   7.417  1.3385 -0.5887  0.0185
   7623SM  H11B 9979   1.365   5.966   7.389  1.2437 -1.8623  1.0449
   7623SM     P 9980   1.155   6.152   7.421 -0.2026 -0.0159 -0.0781
   7623SM   O13 9981   1.013   6.188   7.403 -0.1710  0.3477 -0.0179
   7623SM   O14 9982   1.225   6.223   7.533 -0.1410  0.9174  0.1093
   7623SM   O11 9983   1.234   6.169   7.286 -0.0489 -0.1686 -0.3211
   7623SM   O12 9984   1.160   5.996   7.445  0.0237  0.6968 -0.1014
   7623SM   C1S 9985   1.176   6.120   7.162 -0.3939  0.2681  0.2838
   7623SM   H1S 9986   1.078   6.165   7.136  0.5882  0.7823 -2.9216
   7623SM   H1T 9987   1.166   6.010   7.161  1.2635  0.0708 -2.3204
   7623SM    NF 9988   1.218   6.086   6.916  0.1167  0.0840 -0.0230
   7623SM   HNF 9989   1.258   5.999   6.890  1.0101 -0.0121  1.5784
   7623SM   C2S 9990   1.266   6.153   7.039 -1.3229  0.4383  0.3998
   7623SM   H2S 9991   1.259   6.261   7.014  2.7225  0.3223 -2.1059
   7623SM   C3S 9992   1.414   6.124   7.069  0.0132  0.0592  0.4595
   7623SM   H3S 9993   1.420   6.013   7.069 -1.0557 -0.0517 -2.0423
   7623SM    O3 9994   1.477   6.161   7.194 -0.1510  0.2632 -0.0749
   7623SM   HO3 9995   1.403   6.185   7.251  1.0811  0.7670  1.3975
   7623SM   C4S 9996   1.494   6.163   6.949  0.1886 -0.9408 -0.9018
   7623SM   H4S 9997   1.511   6.085   6.873 -1.9710 -1.8744 -0.4944
   7623SM   C5S 9998   1.548   6.284   6.934 -0.4089  0.2723 -0.1838
   7623SM   H5S 9999   1.527   6.369   6.999 -0.2495 -1.7286  2.6429
   7623SM   C6S10000   1.633   6.313   6.815  0.0947  0.1752 -0.1795
   7623SM   H6S10001   1.739   6.333   6.841 -0.1880  1.5276 -0.0159
   7623SM   H6T10002   1.588   6.410   6.785  0.7439  1.2438  2.0743
   7623SM   C7S10003   1.618   6.213   6.696  0.1801 -0.0687 -0.2472
   7623SM   H7S10004   1.509   6.200   6.681  0.0179 -3.5411  2.4849
   7623SM   H7T10005   1.667   6.115   6.717  0.2087  0.3640  1.9406
   7623SM   C8S10006   1.675   6.268   6.570  0.4897 -0.7970  0.1688
   7623SM   H8S10007   1.784   6.290   6.577 -0.0611  1.8166  2.0551
   7623SM   H8T10008   1.630   6.361   6.528 -0.2427 -1.1321  0.2006
   7623SM   C9S10009   1.676   6.156   6.468 -0.5530 -0.3672 -0.1917
   7623SM   H9S10010   1.573   6.114   6.462 -0.8438  0.1221  1.1205
   7623SM   H9T10011   1.731   6.071   6.512  0.7172 -0.3810 -1.7215
   7623SM  C10S10012   1.726   6.179   6.325 -0.1043  0.3435 -0.7793
   7623SM  H10S10013   1.702   6.081   6.279 -1.8234 -0.3477  1.4079
   7623SM  H10T10014   1.831   6.211   6.312 -0.9278  3.1038 -1.3365
   7623SM  C11S10015   1.637   6.286   6.259 -0.3632 -0.2378 -0.2877
   7623SM  H11S10016   1.659   6.392   6.286 -0.1711 -0.2299 -0.4634
   7623SM  H11T10017   1.534   6.282   6.299  0.0576  0.0047  0.8435
   7623SM  C12S10018   1.622   6.256   6.106  0.1182  0.4544 -0.3680
   7623SM  H12S10019   1.584   6.152   6.099 -2.0786  1.2342 -1.0287
   7623SM  H12T10020   1.718   6.261   6.051 -0.3843  0.4248 -1.2696
   7623SM  C13S10021   1.531   6.359   6.034  0.0238  0.3568  0.5842
   7623SM  H13S10022   1.574   6.460   6.050  2.1518 -0.7133  2.1913
   7623SM  H13T10023   1.433   6.346   6.085  0.3391  0.3822  1.2170
   7623SM  C14S10024   1.517   6.340   5.877  0.0032  0.4598 -0.2233
   7623SM  H14S10025   1.449   6.414   5.830  0.1855  0.9055  0.2150
   7623SM  H14T10026   1.491   6.234   5.853  0.5544  0.2572  0.0619
   7623SM  C15S10027   1.643   6.375   5.799  0.3369 -0.3495 -0.4396
   7623SM  H15S10028   1.732   6.323   5.840  0.6670 -0.2357 -0.9964
   7623SM  H15T10029   1.662   6.483   5.816 -1.1222 -0.3720  1.5827
   7623SM  C16S10030   1.632   6.361   5.648 -0.0604  0.5893 -0.6301
   7623SM  H16S10031   1.543   6.414   5.607 -1.2341 -2.6565 -2.6023
   7623SM  H16T10032   1.613   6.254   5.628  2.6991  0.1704 -1.4297
   7623SM  C17S10033   1.758   6.405   5.575 -0.9763 -0.6611  0.1638
   7623SM  H17S10034   1.779   6.328   5.498  3.2740 -0.2688  0.6695
   7623SM  H17T10035   1.847   6.393   5.641 -1.4260 -4.2194  0.2905
   7623SM  C18S10036   1.753   6.542   5.503 -0.5935 -0.0971 -0.3028
   7623SM  H18S10037   1.820   6.542   5.414  0.8051 -1.5124  0.6902
   7623SM  H18T10038   1.796   6.615   5.576 -0.9383  0.7704 -0.9481
   7623SM  H18U10039   1.651   6.571   5.472 -2.0353 -3.3544  0.9324
   7623SM   C1F10040   1.112   6.132   6.850  0.0140 -0.3427  0.5082
   7623SM    OF10041   1.035   6.213   6.899 -0.3770  0.2401  0.2956
   7623SM   C2F10042   1.097   6.081   6.712  0.3807  0.8339 -0.2414
   7623SM   H2F10043   1.068   5.975   6.728  1.2037  1.0065  2.8817
   7623SM   H2G10044   1.198   6.086   6.664  0.8224 -0.8419  0.4200
   7623SM   C3F10045   0.988   6.147   6.628  0.0170 -0.6746 -0.2928
   7623SM   H3F10046   1.014   6.255   6.639 -0.6681 -0.3061 -2.0807
   7623SM   H3G10047   0.889   6.147   6.679 -0.7203  3.5380 -1.2982
   7623SM   C4F10048   0.972   6.101   6.483  0.0030 -0.0192  0.2000
   7623SM   H4F10049   0.874   6.141   6.449  0.1799  1.7424  1.6143
   7623SM   H4G10050   0.934   5.996   6.488 -1.5973  0.5435  0.5660
   7623SM   C5F10051   1.072   6.135   6.377 -0.0285  0.2162  0.5503
   7623SM   H5F10052   1.177   6.122   6.411  0.6685  0.3952 -1.4078
   7623SM   H5G10053   1.065   6.241   6.348  0.6780 -0.0141 -0.4992
   7623SM   C6F10054   1.053   6.064   6.246  0.5254  0.2877  0.3026
   7623SM   H6F10055   1.144   6.080   6.184 -0.3167  1.1744 -0.7524
   7623SM   H6G10056   0.964   6.103   6.191  1.9828 -0.7442 -3.0107
   7623SM   C7F10057   1.038   5.908   6.249  0.1410  0.6679 -0.4486
   7623SM   H7F10058   0.945   5.882   6.305 -0.6479 -0.1683 -2.0505
   7623SM   H7G10059   1.127   5.868   6.302 -0.3468 -0.1024 -0.1777
   7623SM   C8F10060   1.027   5.833   6.112  0.1466  0.5546  0.0359
   7623SM   H8F10061   1.116   5.870   6.057  0.0634  2.0890  0.8790
   7623SM   H8G10062   0.942   5.879   6.057  0.4946  1.9167  0.5901
   7623SM   C9F10063   1.026   5.678   6.117 -0.6317  0.6202  0.1195
   7623SM   H9F10064   0.922   5.638   6.121  0.3331 -2.2701 -0.6900
   7623SM   H9G10065   1.068   5.645   6.215 -0.5572 -0.3416 -0.2221
   7623SM  C10F10066   1.110   5.595   6.013 -0.3624  0.5142 -0.1452
   7623SM  H10F10067   1.098   5.485   6.017  0.1251  0.4269 -0.8609
   7623SM  H10G10068   1.218   5.618   6.024 -0.5345  2.4553 -1.8786
   7623SM  C11F10069   1.072   5.621   5.873 -0.0568 -0.6387  0.0981
   7623SM  H11F10070   1.085   5.729   5.851  0.4543 -0.9714 -1.4014
   7623SM  H11G10071   0.962   5.612   5.887 -0.0098 -0.6991  0.4438
   7623SM  C12F10072   1.133   5.525   5.765  0.2446 -0.2834 -0.1770
   7623SM  H12F10073   1.094   5.559   5.666 -0.6604 -1.6016 -0.3104
   7623SM  H12G10074   1.109   5.417   5.780  0.6791 -0.3942 -0.2705
   7623SM  C13F10075   1.289   5.514   5.759 -0.2846 -0.0542 -0.2744
   7623SM  H13F10076   1.311   5.427   5.824  0.7727  0.1181 -0.3860
   7623SM  H13G10077   1.334   5.604   5.807 -0.0619  0.1136 -0.7828
   7623SM  C14F10078   1.349   5.492   5.617 -0.3921 -0.0868  0.0257
   7623SM  H14F10079   1.311   5.565   5.542 -0.6423  0.8831  1.0852
   7623SM  H14G10080   1.307   5.392   5.592  1.4701 -0.9119  0.0007
   7623SM  C15F10081   1.500   5.489   5.643  0.2609 -0.2858  0.5140
   7623SM  H15F10082   1.523   5.411   5.718  2.1320 -1.7741 -1.4906
   7623SM  H15G10083   1.533   5.584   5.690 -0.3951  0.7096 -0.9522
   7623SM  C16F10084   1.577   5.451   5.517  0.0394  0.4290 -0.4239
   7623SM  H16F10085   1.537   5.516   5.436  0.1561 -0.3664 -1.1270
   7623SM  H16G10086   1.556   5.348   5.480 -0.2644 -0.5523  2.2419
   7623SM  C17F10087   1.721   5.472   5.534 -0.3748  0.0460 -0.7724
   7623SM  H17F10088   1.762   5.410   5.616  1.0536  0.7192 -0.9449
   7623SM  H17G10089   1.732   5.579   5.559  2.6629 -0.0883 -1.2035
   7623SM  C18F10090   1.798   5.444   5.407 -0.2413  0.3040  0.3975
   7623SM  H18F10091   1.768   5.518   5.330  0.1668 -1.1969 -1.2553
   7623SM  H18G10092   1.771   5.343   5.369  0.8083  0.3218 -0.4175
   7623SM  C19F10093   1.950   5.442   5.426 -0.1548 -0.2843 -0.1143
   7623SM  H19F10094   1.966   5.365   5.504  0.1412 -0.9886 -0.8591
   7623SM  H19G10095   1.992   5.538   5.462  0.5701 -0.5881 -0.1247
   7623SM  C20F10096   2.034   5.386   5.307  0.3848 -0.4106  0.2908
   7623SM  H20F10097   1.977   5.420   5.217 -3.6479 -0.2819  2.6304
   7623SM  H20G10098   2.009   5.278   5.297 -2.7593  0.2919 -0.7144
   7623SM  C21F10099   2.184   5.409   5.312  0.7574 -0.2685  0.0683
   7623SM  H21F10100   2.228   5.308   5.328  1.8943  0.2193  0.1370
   7623SM  H21G10101   2.218   5.459   5.405 -0.2284 -2.9652  2.0053
   7623SM  C22F10102   2.251   5.472   5.192 -0.0493  0.2059  0.8091
   7623SM  H22F10103   2.358   5.475   5.219  0.2820  0.8521 -0.5113
   7623SM  H22G10104   2.224   5.580   5.189 -0.4741  0.2021  2.7787
   7623SM  C23F10105   2.246   5.395   5.048  0.4662 -0.0796 -0.1395
   7623SM  H23F10106   2.327   5.426   4.979  0.4034 -2.0049 -1.1369
   7623SM  H23G10107   2.150   5.426   5.000  0.8756  0.1019 -0.8584
   7623SM  H23H10108   2.251   5.285   5.057 -1.0205 -0.2411 -0.9032
   7723SM     N10109   0.973   3.615   7.068 -0.4729  0.0795  0.5511
   7723SM   C1510110   0.933   3.716   6.953  0.3253 -0.2063 -1.4137
   7723SM  H15A10111   0.886   3.806   6.990 -0.8480 -0.6279 -1.8125
   7723SM  H15B10112   0.864   3.673   6.882  0.3365 -0.5296 -1.2308
   7723SM  H15C10113   1.021   3.742   6.896  0.8136  2.6233  0.4292
   7723SM   C1410114   1.039   3.500   7.001 -0.3628  0.2066  0.0302
   7723SM  H14A10115   1.094   3.526   6.912  0.2989 -1.9210 -0.2296
   7723SM  H14B10116   0.961   3.442   6.954 -0.3138 -0.3413  0.6057
   7723SM  H14C10117   1.105   3.442   7.064  0.8273 -1.1850 -2.3633
   7723SM   C1310118   1.071   3.691   7.151  0.6601  0.3565  0.5038
   7723SM  H13A10119   1.123   3.622   7.215 -0.5630  0.5576  1.7633
   7723SM  H13B10120   1.011   3.757   7.213 -0.8570 -1.4948  1.1204
   7723SM  H13C10121   1.135   3.736   7.077  0.1208 -0.7530 -0.6778
   7723SM   C1210122   0.854   3.571   7.154  0.4570 -0.1738  0.9278
   7723SM  H12A10123   0.803   3.656   7.196 -0.1965 -0.1182  0.0466
   7723SM  H12B10124   0.888   3.513   7.239 -1.3911 -0.4899  1.4897
   7723SM   C1110125   0.738   3.491   7.083 -0.0549 -0.5375 -0.3282
   7723SM  H11A10126   0.706   3.555   6.998  1.5836  1.4104  0.4304
   7723SM  H11B10127   0.662   3.473   7.162 -1.2391 -0.3497 -1.3882
   7723SM     P10128   0.780   3.242   7.138  0.1574 -0.1163 -0.1133
   7723SM   O1310129   0.878   3.262   7.249  0.6452  0.6750  0.4417
   7723SM   O1410130   0.637   3.222   7.171  0.3440 -0.8995  0.2464
   7723SM   O1110131   0.837   3.118   7.066  0.4789 -0.3689 -0.0037
   7723SM   O1210132   0.788   3.363   7.038 -0.2426  0.2353 -0.3832
   7723SM   C1S10133   0.777   3.080   6.939  0.1907 -0.2371 -0.6036
   7723SM   H1S10134   0.726   3.162   6.884 -0.3859 -0.7135 -0.7829
   7723SM   H1T10135   0.694   3.011   6.964 -0.1500  0.5789  0.6297
   7723SM    NF10136   0.832   2.990   6.709  0.0580 -0.0194 -0.0964
   7723SM   HNF10137   0.789   2.908   6.674 -0.4456  0.1243  0.1747
   7723SM   C2S10138   0.867   2.990   6.849  0.0602 -0.0673  0.2222
   7723SM   H2S10139   0.963   3.047   6.852 -1.0579  1.9063  0.9420
   7723SM   C3S10140   0.882   2.848   6.921 -0.1804 -0.8192  0.2430
   7723SM   H3S10141   0.786   2.794   6.929 -0.1355 -0.7649  1.3890
   7723SM    O310142   0.945   2.855   7.044  0.2539  0.1454  0.1419
   7723SM   HO310143   0.913   2.939   7.079 -1.5851 -0.1860 -0.6201
   7723SM   C4S10144   0.977   2.762   6.836 -0.3461  0.2441  0.2448
   7723SM   H4S10145   1.064   2.813   6.793 -2.0993  1.0639 -2.5950
   7723SM   C5S10146   0.951   2.632   6.807  0.1426 -1.1892 -0.5121
   7723SM   H5S10147   0.866   2.582   6.856  0.5978  1.3743  3.3467
   7723SM   C6S10148   1.028   2.529   6.731 -0.1020 -0.6961  0.2195
   7723SM   H6S10149   0.974   2.495   6.639 -0.4467  2.2064 -0.7566
   7723SM   H6T10150   1.047   2.439   6.793 -1.7892 -1.6700 -0.5769
   7723SM   C7S10151   1.163   2.587   6.681 -0.8479 -0.4886  0.2653
   7723SM   H7S10152   1.220   2.622   6.769 -1.7168 -0.4567  0.8279
   7723SM   H7T10153   1.156   2.673   6.611 -0.0563  0.1162  0.9101
   7723SM   C8S10154   1.243   2.470   6.612  0.4530  0.4134  0.5301
   7723SM   H8S10155   1.194   2.421   6.525 -1.1570  1.7273  0.6452
   7723SM   H8T10156   1.250   2.386   6.684 -0.5037 -0.5340 -0.4413
   7723SM   C9S10157   1.385   2.501   6.568 -0.2559  0.2690  0.2470
   7723SM   H9S10158   1.437   2.532   6.662 -1.6400  0.2291  1.0535
   7723SM   H9T10159   1.391   2.585   6.495  0.3840  1.4875  1.6193
   7723SM  C10S10160   1.447   2.373   6.512  0.3630  0.1088  0.3193
   7723SM  H10S10161   1.378   2.292   6.542 -3.0361  2.0428 -1.5893
   7723SM  H10T10162   1.553   2.362   6.543  1.2648 -0.9744 -2.8134
   7723SM  C11S10163   1.462   2.367   6.355  0.6390 -0.3431 -0.2179
   7723SM  H11S10164   1.516   2.272   6.337  0.4751 -0.5629  0.4322
   7723SM  H11T10165   1.522   2.455   6.322 -0.3894  0.4395 -0.0375
   7723SM  C12S10166   1.331   2.370   6.267  0.3565 -0.2469  0.7483
   7723SM  H12S10167   1.297   2.471   6.236  0.7999  0.2722  1.9030
   7723SM  H12T10168   1.251   2.315   6.321  1.4688 -0.8795  1.8050
   7723SM  C13S10169   1.356   2.296   6.133 -0.2725  0.0181 -0.0271
   7723SM  H13S10170   1.441   2.226   6.143 -0.3064  0.1351  1.1924
   7723SM  H13T10171   1.382   2.371   6.054  1.5204  3.0977  3.1908
   7723SM  C14S10172   1.232   2.214   6.095  0.6613  0.3616  0.7054
   7723SM  H14S10173   1.195   2.154   6.181  3.1854 -1.2653  0.7354
   7723SM  H14T10174   1.262   2.132   6.027 -0.4765 -0.4136  1.0940
   7723SM  C15S10175   1.110   2.286   6.027 -0.2786 -0.1790 -0.6058
   7723SM  H15S10176   1.140   2.340   5.935 -0.2240  0.9318  0.0468
   7723SM  H15T10177   1.060   2.355   6.099  2.7581 -1.7111  3.4043
   7723SM  C16S10178   1.010   2.179   5.984  0.1874  0.1948 -0.1077
   7723SM  H16S10179   0.980   2.123   6.076 -0.4312  1.5769  0.5569
   7723SM  H16T10180   1.047   2.112   5.903 -2.3795 -1.2015 -0.2487
   7723SM  C17S10181   0.881   2.247   5.923  0.0692  0.1381  0.7553
   7723SM  H17S10182   0.911   2.321   5.846  1.7698 -0.1589  1.0925
   7723SM  H17T10183   0.836   2.298   6.010 -0.8242  0.2738  0.2214
   7723SM  C18S10184   0.781   2.146   5.870  0.1955  0.6708  0.0464
   7723SM  H18S10185   0.788   2.125   5.762  1.2125 -4.2981  0.8569
   7723SM  H18T10186   0.677   2.178   5.896 -0.1690 -0.4967  0.0539
   7723SM  H18U10187   0.789   2.048   5.922 -0.4556  0.6387  0.0932
   7723SM   C1F10188   0.831   3.102   6.642  0.3758 -0.1376  0.8187
   7723SM    OF10189   0.888   3.200   6.691  0.2440  0.7272 -0.1761
   7723SM   C2F10190   0.743   3.108   6.516  0.4176  0.5870  0.2547
   7723SM   H2F10191   0.680   3.200   6.514 -1.7666 -0.8098  1.4834
   7723SM   H2G10192   0.665   3.030   6.516 -0.7852  1.6810 -2.0856
   7723SM   C3F10193   0.821   3.096   6.386 -0.2316 -0.0079  0.2057
   7723SM   H3F10194   0.752   3.071   6.303  1.3270  0.7567 -1.3747
   7723SM   H3G10195   0.894   3.014   6.401  2.7829  2.7723  2.1628
   7723SM   C4F10196   0.881   3.228   6.346  0.2474 -0.0464 -0.4114
   7723SM   H4F10197   0.960   3.261   6.417 -1.6482  1.1205  1.2549
   7723SM   H4G10198   0.811   3.313   6.342 -0.0721 -0.2573  0.6372
   7723SM   C5F10199   0.947   3.236   6.199 -0.0650  0.7801  0.2525
   7723SM   H5F10200   0.999   3.141   6.177  0.8301  0.4586  3.2265
   7723SM   H5G10201   1.012   3.324   6.179  1.0779 -0.0079  0.3904
   7723SM   C6F10202   0.840   3.236   6.092  0.0086 -0.0124  0.1835
   7723SM   H6F10203   0.768   3.320   6.103  0.1979  0.5460 -2.3889
   7723SM   H6G10204   0.782   3.141   6.094 -0.8550  0.4646 -1.3171
   7723SM   C7F10205   0.903   3.254   5.953  0.4943  0.8589  0.3783
   7723SM   H7F10206   0.824   3.222   5.882  1.1039 -3.0534  1.2439
   7723SM   H7G10207   0.979   3.173   5.946  0.4582  0.8517  0.0303
   7723SM   C8F10208   0.942   3.394   5.909  0.1477 -0.2141 -0.6798
   7723SM   H8F10209   1.040   3.421   5.954  0.8091  0.4994 -2.4335
   7723SM   H8G10210   0.863   3.463   5.946  1.0428 -0.0406  0.9995
   7723SM   C9F10211   0.949   3.413   5.757 -0.6043  0.0577 -0.0327
   7723SM   H9F10212   1.026   3.347   5.710  0.1114  1.2199 -0.5454
   7723SM   H9G10213   0.969   3.519   5.731 -1.0978 -0.4089 -2.5689
   7723SM  C10F10214   0.815   3.392   5.680  0.1458  0.0953 -0.3210
   7723SM  H10F10215   0.738   3.458   5.726  0.6395  0.6409 -0.2714
   7723SM  H10G10216   0.784   3.286   5.694 -0.2270  0.5643  3.0558
   7723SM  C11F10217   0.817   3.429   5.538 -0.6626 -0.4870  0.0581
   7723SM  H11F10218   0.883   3.357   5.485  1.3380 -0.0265  1.7892
   7723SM  H11G10219   0.856   3.531   5.519 -0.8337 -0.1061  1.6663
   7723SM  C12F10220   0.678   3.438   5.466  0.1872  0.0198  0.5111
   7723SM  H12F10221   0.605   3.512   5.505  0.1257  0.2275  0.0171
   7723SM  H12G10222   0.631   3.339   5.484  0.5289 -0.0055  1.2829
   7723SM  C13F10223   0.707   3.456   5.313 -0.0696 -0.0237 -0.9714
   7723SM  H13F10224   0.780   3.383   5.271  1.3048  1.0219 -0.4727
   7723SM  H13G10225   0.770   3.547   5.301 -0.6319  0.4178 -0.5497
   7723SM  C14F10226   0.575   3.467   5.223 -0.1819  0.4146  0.1751
   7723SM  H14F10227   0.494   3.448   5.296  0.2559 -1.6238  0.1843
   7723SM  H14G10228   0.564   3.375   5.161  2.8489  1.9556 -2.9794
   7723SM  C15F10229   0.551   3.601   5.142  0.4191 -0.5790 -0.0183
   7723SM  H15F10230   0.647   3.641   5.104 -0.3580  1.7179  0.2376
   7723SM  H15G10231   0.510   3.674   5.216 -0.9524  0.1973 -1.4735
   7723SM  C16F10232   0.462   3.585   5.021 -0.1245  0.5659  0.0068
   7723SM  H16F10233   0.355   3.584   5.053 -0.1688 -0.0970 -0.1400
   7723SM  H16G10234   0.472   3.491   4.963 -0.6799  1.6500 -1.9479
   7723SM  C17F10235   0.474   3.700   4.921  0.6485  0.6925 -0.4145
   7723SM  H17F10236   0.423   3.663   4.829  0.8067 -1.5500  0.3411
   7723SM  H17G10237   0.576   3.724   4.885  0.3060  0.3878 -1.6572
   7723SM  C18F10238   0.393   3.824   4.950  0.0039  0.2228 -0.0065
   7723SM  H18F10239   0.434   3.879   5.038  1.0735 -1.3957  0.5455
   7723SM  H18G10240   0.289   3.795   4.974  0.4734 -0.4999  1.3238
   7723SM  C19F10241   0.379   3.922   4.834  0.2993 -0.5649  0.5006
   7723SM  H19F10242   0.338   4.021   4.865 -2.5314 -0.3332 -3.1859
   7723SM  H19G10243   0.302   3.881   4.765 -0.3121  1.5713 -0.1617
   7723SM  C20F10244   0.502   3.949   4.756  0.0991 -0.2774 -0.2843
   7723SM  H20F10245   0.513   3.867   4.682  0.3086 -1.4826  1.0424
   7723SM  H20G10246   0.592   3.938   4.820 -0.7696  0.2215  1.0799
   7723SM  C21F10247   0.508   4.096   4.704  0.5489 -0.2140 -0.3125
   7723SM  H21F10248   0.598   4.121   4.644  1.2879  1.5959  1.4102
   7723SM  H21G10249   0.500   4.165   4.791  1.2700 -2.0350  1.2670
   7723SM  C22F10250   0.396   4.127   4.604 -0.6291 -0.6904  0.6365
   7723SM  H22F10251   0.425   4.214   4.541 -0.1314 -1.2287  0.1155
   7723SM  H22G10252   0.308   4.171   4.656 -1.3976  1.1536 -2.0079
   7723SM  C23F10253   0.360   4.019   4.500 -0.1478  0.4946  0.0655
   7723SM  H23F10254   0.357   3.922   4.554 -0.1990 -0.8164 -2.1474
   7723SM  H23G10255   0.437   4.005   4.422 -1.4991 -2.3992 -0.8979
   7723SM  H23H10256   0.269   4.050   4.443  0.5816 -0.4011 -1.6558
   7823SM     N10257   2.133   0.326   7.727  0.1006 -0.2642  0.3811
   7823SM   C1510258   2.012   0.320   7.817  0.0773  0.4659  0.1789
   7823SM  H15A10259   1.913   0.322   7.773 -0.7694 -1.3549  1.8678
   7823SM  H15B10260   2.021   0.391   7.898  0.8354 -1.3979  1.8136
   7823SM  H15C10261   2.007   0.227   7.872  0.0639  1.4024  1.8188
   7823SM   C1410262   2.252   0.289   7.800  0.2123 -0.8092  0.2365
   7823SM  H14A10263   2.258   0.347   7.891 -0.2599 -1.8676  0.9549
   7823SM  H14B10264   2.344   0.323   7.754  0.2246  0.4203  1.1156
   7823SM  H14C10265   2.271   0.185   7.818  0.7786 -0.4722  1.7950
   7823SM   C1310266   2.110   0.233   7.613 -0.2578 -0.3961  0.2633
   7823SM  H13A10267   2.181   0.256   7.535 -1.3925  0.2915 -0.5961
   7823SM  H13B10268   2.010   0.257   7.581 -1.3162 -0.0155  3.5101
   7823SM  H13C10269   2.126   0.129   7.636  2.1289 -0.9455 -3.0146
   7823SM   C1210270   2.136   0.470   7.680  0.6091 -0.2114  0.0735
   7823SM  H12A10271   2.121   0.526   7.771  1.4670 -2.2036  1.5255
   7823SM  H12B10272   2.039   0.497   7.640  0.1262  1.1690  2.0517
   7823SM   C1110273   2.254   0.527   7.596 -0.1476 -0.5334  0.4137
   7823SM  H11A10274   2.255   0.638   7.610 -0.1829 -0.4983  0.1294
   7823SM  H11B10275   2.222   0.503   7.493  0.7728  0.4399 -0.1155
   7823SM     P10276   2.477   0.404   7.526 -0.1151  0.1489 -0.4088
   7823SM   O1310277   2.605   0.474   7.521 -0.0722 -0.0198 -0.7509
   7823SM   O1410278   2.486   0.255   7.551  0.7199 -0.3238  0.5926
   7823SM   O1110279   2.400   0.426   7.392 -0.0465 -0.4738 -0.0718
   7823SM   O1210280   2.390   0.481   7.628  0.1448 -0.5300 -0.7714
   7823SM   C1S10281   2.463   0.376   7.276 -1.1987 -0.1028  0.7405
   7823SM   H1S10282   2.455   0.265   7.278  1.1124 -0.3415 -0.4782
   7823SM   H1T10283   2.569   0.408   7.267 -1.0302 -0.5819  0.9985
   7823SM    NF10284   2.419   0.343   7.027  0.0506 -0.1459  0.5334
   7823SM   HNF10285   2.478   0.381   6.956 -2.5208 -0.0964 -1.7382
   7823SM   C2S10286   2.388   0.420   7.147 -0.4392  0.3482  0.0071
   7823SM   H2S10287   2.283   0.392   7.171 -0.1271 -1.4816 -0.5762
   7823SM   C3S10288   2.408   0.578   7.117 -0.2733  0.2630 -0.6063
   7823SM   H3S10289   2.517   0.581   7.098 -0.0255 -1.3692  0.3169
   7823SM    O310290   2.386   0.658   7.236  0.5044  0.0850  0.2626
   7823SM   HO310291   2.400   0.596   7.309  0.0177  0.4969  0.7139
   7823SM   C4S10292   2.351   0.644   6.992 -0.4222 -0.3229  0.1075
   7823SM   H4S10293   2.417   0.634   6.905 -1.0509 -1.9928 -0.2306
   7823SM   C5S10294   2.228   0.695   6.977  1.3575 -0.2718  0.4243
   7823SM   H5S10295   2.159   0.701   7.063 -1.3263 -1.5508 -1.4929
   7823SM   C6S10296   2.170   0.745   6.843  0.2385 -0.1326  0.1465
   7823SM   H6S10297   2.118   0.840   6.867 -1.0940 -0.8723  0.2641
   7823SM   H6T10298   2.081   0.690   6.805 -0.0456  0.1208  0.4390
   7823SM   C7S10299   2.275   0.776   6.734  0.3468  0.6352 -0.5470
   7823SM   H7S10300   2.334   0.687   6.702 -0.1615  0.5367 -1.2189
   7823SM   H7T10301   2.346   0.843   6.789 -0.1496 -1.1104  2.4092
   7823SM   C8S10302   2.220   0.849   6.618  0.0903 -0.4646 -0.0570
   7823SM   H8S10303   2.171   0.940   6.659 -3.6164 -2.4568  0.3164
   7823SM   H8T10304   2.141   0.796   6.561 -1.6825  1.5967  0.3245
   7823SM   C9S10305   2.332   0.889   6.515  0.5317  0.4297 -0.3765
   7823SM   H9S10306   2.381   0.801   6.468  0.2935  0.6781 -1.0984
   7823SM   H9T10307   2.405   0.941   6.580 -0.6102 -1.1823  2.3922
   7823SM  C10S10308   2.267   0.970   6.401 -0.2708  0.7685  0.0003
   7823SM  H10S10309   2.211   1.057   6.442 -0.9706  0.4364 -0.2274
   7823SM  H10T10310   2.199   0.899   6.349  1.2564 -1.1717  0.5323
   7823SM  C11S10311   2.379   1.021   6.307  0.3545  0.4163  0.2807
   7823SM  H11S10312   2.437   0.939   6.261  2.4593  1.3063  1.2208
   7823SM  H11T10313   2.456   1.062   6.375  1.5348 -1.3057  0.0502
   7823SM  C12S10314   2.314   1.123   6.203  0.3423 -0.2321 -0.0762
   7823SM  H12S10315   2.392   1.142   6.126  0.2920 -0.7998 -0.2779
   7823SM  H12T10316   2.303   1.221   6.253  1.5737  0.0128 -0.2617
   7823SM  C13S10317   2.181   1.079   6.133  0.2087 -0.4497 -0.2735
   7823SM  H13S10318   2.160   1.162   6.062 -1.5685  0.6016  1.4150
   7823SM  H13T10319   2.093   1.080   6.200 -0.3738  1.6107 -1.0068
   7823SM  C14S10320   2.188   0.951   6.053 -0.1087 -0.7470 -0.2566
   7823SM  H14S10321   2.230   0.874   6.121  1.8037  1.2359  0.9648
   7823SM  H14T10322   2.257   0.972   5.968 -2.7156 -0.4357 -2.4191
   7823SM  C15S10323   2.056   0.919   5.983 -0.3678  0.3769  0.0998
   7823SM  H15S10324   2.016   0.998   5.916 -0.1258 -0.8747 -1.5806
   7823SM  H15T10325   1.975   0.894   6.055 -1.6304  0.1139 -1.3385
   7823SM  C16S10326   2.071   0.793   5.897 -0.6195 -0.7572  0.0918
   7823SM  H16S10327   2.162   0.798   5.834 -0.8291  2.3290 -0.1024
   7823SM  H16T10328   1.979   0.772   5.838 -1.4783  1.9486  0.3582
   7823SM  C17S10329   2.084   0.668   5.996  0.1718  0.0788  0.2857
   7823SM  H17S10330   1.994   0.667   6.062  0.4560 -1.2667  0.6846
   7823SM  H17T10331   2.174   0.669   6.061 -0.5405 -1.3834  1.3607
   7823SM  C18S10332   2.070   0.538   5.905  0.4402 -0.5148 -0.5962
   7823SM  H18S10333   1.977   0.533   5.845  0.0441  0.4655 -0.0744
   7823SM  H18T10334   2.079   0.450   5.972  0.1491 -0.2965 -0.2704
   7823SM  H18U10335   2.156   0.541   5.835 -0.1409  0.7413 -1.2803
   7823SM   C1F10336   2.406   0.217   7.014  0.3570  0.0930 -0.4179
   7823SM    OF10337   2.346   0.153   7.094 -0.2416  0.6778 -0.0162
   7823SM   C2F10338   2.460   0.165   6.886 -0.1187  0.4241  0.8227
   7823SM   H2F10339   2.569   0.156   6.903  0.2937  1.2360 -1.0910
   7823SM   H2G10340   2.443   0.241   6.807  1.1362  0.6230  0.7290
   7823SM   C3F10341   2.394   0.031   6.833 -0.1006 -0.0859 -0.3045
   7823SM   H3F10342   2.286   0.053   6.825 -0.2753 -1.3436 -1.7717
   7823SM   H3G10343   2.415  -0.045   6.911  0.7218 -0.5106 -0.9240
   7823SM   C4F10344   2.442  -0.004   6.693 -0.5189 -0.2452  0.5006
   7823SM   H4F10345   2.544   0.034   6.671  0.3996 -2.8549 -0.0716
   7823SM   H4G10346   2.378   0.057   6.625  0.5478  0.6546  0.2727
   7823SM   C5F10347   2.435  -0.154   6.669  0.3223  0.6466  0.3496
   7823SM   H5F10348   2.325  -0.166   6.669  0.4625 -0.7807 -0.8317
   7823SM   H5G10349   2.483  -0.211   6.752  1.5066  0.5634 -0.3722
   7823SM   C6F10350   2.498  -0.193   6.534  0.1851 -0.5045  0.6767
   7823SM   H6F10351   2.601  -0.152   6.538  0.8769 -2.0456 -0.2059
   7823SM   H6G10352   2.444  -0.141   6.451 -0.2172  1.6781  2.2389
   7823SM   C7F10353   2.524  -0.336   6.508 -0.8515  0.2501 -0.0551
   7823SM   H7F10354   2.426  -0.388   6.510  0.2452 -2.1029 -2.0057
   7823SM   H7G10355   2.593  -0.380   6.584  0.1139 -0.8542 -1.5183
   7823SM   C8F10356   2.586  -0.352   6.363  0.4434 -0.6066  0.5396
   7823SM   H8F10357   2.593  -0.461   6.344 -1.0935 -0.9876  1.9834
   7823SM   H8G10358   2.686  -0.306   6.349  1.2460 -2.0385  1.3848
   7823SM   C9F10359   2.502  -0.284   6.248 -0.2703 -0.6236 -0.3890
   7823SM   H9F10360   2.492  -0.174   6.256 -0.5965 -0.6885  0.1359
   7823SM   H9G10361   2.400  -0.329   6.241  0.4431 -2.2136 -1.0517
   7823SM  C10F10362   2.568  -0.309   6.113  0.3836 -0.2732  1.0722
   7823SM  H10F10363   2.566  -0.414   6.077  1.4589 -0.2220  0.8397
   7823SM  H10G10364   2.667  -0.261   6.126  0.7307 -1.2709  2.2231
   7823SM  C11F10365   2.474  -0.234   6.001 -0.3147 -0.2347 -0.2344
   7823SM  H11F10366   2.458  -0.128   6.031  1.3720  0.5250 -1.8577
   7823SM  H11G10367   2.377  -0.288   5.996  1.4220 -3.4959 -1.8852
   7823SM  C12F10368   2.529  -0.234   5.856  0.0283 -0.3433  0.4835
   7823SM  H12F10369   2.464  -0.173   5.789 -0.1852 -2.3187 -1.2278
   7823SM  H12G10370   2.535  -0.334   5.809  1.3546 -0.3328  0.5881
   7823SM  C13F10371   2.677  -0.179   5.843  0.5704  0.1387 -0.2129
   7823SM  H13F10372   2.749  -0.248   5.892 -2.2699 -1.2684  2.2689
   7823SM  H13G10373   2.689  -0.081   5.893  3.1337 -0.2827  0.1106
   7823SM  C14F10374   2.722  -0.155   5.696 -0.1310 -0.3152 -0.5476
   7823SM  H14F10375   2.710  -0.050   5.664  0.2596 -0.3739 -0.8998
   7823SM  H14G10376   2.657  -0.217   5.631 -1.3317 -0.0733  0.3818
   7823SM  C15F10377   2.867  -0.187   5.686 -0.4452 -0.8962 -0.0374
   7823SM  H15F10378   2.883  -0.295   5.707 -1.2713 -0.7117  1.7351
   7823SM  H15G10379   2.923  -0.132   5.765 -1.7894 -1.1881  1.1608
   7823SM  C16F10380   2.932  -0.163   5.548 -0.0144  0.1515 -0.5344
   7823SM  H16F10381   3.041  -0.175   5.568 -0.0216 -0.2000 -0.6858
   7823SM  H16G10382   2.920  -0.057   5.516  1.5683  0.7605  0.7803
   7823SM  C17F10383   2.878  -0.256   5.440 -0.2457  0.1302 -0.3109
   7823SM  H17F10384   2.771  -0.230   5.456 -0.2177  0.3874 -0.5265
   7823SM  H17G10385   2.894  -0.364   5.461 -0.0151 -0.1133 -1.6052
   7823SM  C18F10386   2.925  -0.227   5.298  0.2079 -0.0512 -0.5178
   7823SM  H18F10387   3.036  -0.217   5.307  0.3637 -0.2029 -1.9293
   7823SM  H18G10388   2.899  -0.127   5.257  0.6261  0.2540 -0.0574
   7823SM  C19F10389   2.887  -0.338   5.199 -0.2275 -0.1524  0.7715
   7823SM  H19F10390   2.914  -0.436   5.243 -3.7153 -1.8729 -0.4893
   7823SM  H19G10391   2.951  -0.322   5.110 -0.5388 -2.5064  0.0545
   7823SM  C20F10392   2.740  -0.326   5.154  0.3575  0.1364 -0.1868
   7823SM  H20F10393   2.732  -0.216   5.149  1.5334  0.6157  4.2223
   7823SM  H20G10394   2.663  -0.352   5.229  0.7418 -0.7199 -0.0748
   7823SM  C21F10395   2.730  -0.394   5.017  0.0150 -0.6104 -0.7641
   7823SM  H21F10396   2.755  -0.501   5.035 -1.5584 -0.7031  1.1460
   7823SM  H21G10397   2.815  -0.361   4.952 -2.5271  1.7113 -3.1823
   7823SM  C22F10398   2.590  -0.382   4.945 -0.7256 -0.3301  0.4705
   7823SM  H22F10399   2.544  -0.282   4.960  0.9143  0.6439 -0.6334
   7823SM  H22G10400   2.527  -0.460   4.993  2.5799 -1.1841  3.8419
   7823SM  C23F10401   2.612  -0.408   4.793 -0.4629  0.0534 -0.1442
   7823SM  H23F10402   2.625  -0.517   4.773  1.6109  0.2855 -0.2662
   7823SM  H23G10403   2.707  -0.356   4.767 -0.6444  1.3804  1.6617
   7823SM  H23H10404   2.524  -0.368   4.738  0.9447  2.9223 -0.4875
   7923SM     N10405   7.445   0.637   7.522 -0.4742 -0.2865 -0.8223
   7923SM   C1510406   7.338   0.621   7.628  0.1445 -0.6951 -0.3635
   7923SM  H15A10407   7.345   0.525   7.676 -1.8344 -0.9694 -0.5416
   7923SM  H15B10408   7.242   0.640   7.582  0.1222  1.1001  0.3348
   7923SM  H15C10409   7.350   0.692   7.709 -1.2008  0.5308 -1.1941
   7923SM   C1410410   7.454   0.782   7.481  0.4328  0.0953 -0.0142
   7923SM  H14A10411   7.477   0.844   7.566 -3.1561 -0.4229  1.5119
   7923SM  H14B10412   7.355   0.809   7.448  0.7026 -1.5602 -2.3651
   7923SM  H14C10413   7.521   0.796   7.398 -0.1190 -0.3232 -0.5341
   7923SM   C1310414   7.582   0.603   7.580 -0.1647 -0.5154  0.5348
   7923SM  H13A10415   7.661   0.630   7.511 -0.9922 -0.1717 -0.3130
   7923SM  H13B10416   7.585   0.503   7.618 -0.6879 -1.3601 -1.4990
   7923SM  H13C10417   7.597   0.671   7.662 -0.6376  0.0397  0.1749
   7923SM   C1210418   7.405   0.549   7.405  0.8431 -0.4590 -0.0430
   7923SM  H12A10419   7.300   0.570   7.390  0.7080 -0.2003  1.1530
   7923SM  H12B10420   7.426   0.447   7.431 -0.7296 -0.6258  0.7164
   7923SM   C1110421   7.471   0.569   7.266 -0.0584 -0.3132  0.0344
   7923SM  H11A10422   7.442   0.488   7.196  1.3404 -0.4337 -0.4191
   7923SM  H11B10423   7.580   0.558   7.285  0.6191  1.2048 -2.4814
   7923SM     P10424   7.562   0.759   7.122  0.3161  0.2732 -0.4871
   7923SM   O1310425   7.509   0.830   7.004 -0.4519 -0.2864 -0.4066
   7923SM   O1410426   7.637   0.848   7.212  0.1262  0.5426 -0.0528
   7923SM   O1110427   7.656   0.642   7.069 -0.3039 -0.4776 -0.3918
   7923SM   O1210428   7.437   0.693   7.199  0.2177 -0.3834 -0.4959
   7923SM   C1S10429   7.675   0.638   6.927 -0.3934 -0.0311  0.2904
   7923SM   H1S10430   7.707   0.738   6.889  1.2906 -1.4022 -2.1917
   7923SM   H1T10431   7.581   0.612   6.874 -0.8571  1.4303  0.3493
   7923SM    NF10432   7.839   0.561   6.745  0.0181  0.0068 -0.3191
   7923SM   HNF10433   7.802   0.511   6.667 -0.4253  1.5212 -1.1337
   7923SM   C2S10434   7.788   0.538   6.880 -0.7320 -0.2756 -0.0471
   7923SM   H2S10435   7.869   0.555   6.954 -0.4299  0.6184 -0.5736
   7923SM   C3S10436   7.745   0.393   6.912 -0.2291  0.0155 -0.5010
   7923SM   H3S10437   7.647   0.382   6.861  0.7953  0.9893 -2.8078
   7923SM    O310438   7.719   0.357   7.049 -0.3984  0.2587 -0.8265
   7923SM   HO310439   7.699   0.442   7.087 -0.3568  0.2013 -0.6745
   7923SM   C4S10440   7.833   0.280   6.858  0.4347  0.1990 -0.1620
   7923SM   H4S10441   7.941   0.301   6.847 -0.0300  1.9009 -1.8326
   7923SM   C5S10442   7.786   0.179   6.781  0.0777 -0.0561  0.8440
   7923SM   H5S10443   7.679   0.156   6.781  0.2113 -1.0851 -2.0131
   7923SM   C6S10444   7.865   0.093   6.687 -0.3039 -0.1548 -0.6812
   7923SM   H6S10445   7.878  -0.013   6.719 -0.9205  0.1975  0.8055
   7923SM   H6T10446   7.970   0.126   6.675  0.5930 -1.4639  2.4447
   7923SM   C7S10447   7.796   0.082   6.552 -0.2084  1.0408  0.0371
   7923SM   H7S10448   7.772   0.179   6.503 -3.0840 -0.2897 -1.4038
   7923SM   H7T10449   7.706   0.020   6.572  0.2835  1.1493  3.1551
   7923SM   C8S10450   7.885   0.011   6.443  0.6771 -0.5657 -0.2306
   7923SM   H8S10451   7.942  -0.076   6.483  1.9696  0.3582 -0.0177
   7923SM   H8T10452   7.957   0.086   6.404  1.7220 -0.4732  1.7611
   7923SM   C9S10453   7.801  -0.034   6.327 -0.1673 -0.5111 -0.1336
   7923SM   H9S10454   7.740   0.054   6.296  2.1432  1.8376  1.5608
   7923SM   H9T10455   7.732  -0.118   6.350 -0.5350 -0.4537 -0.9790
   7923SM  C10S10456   7.878  -0.084   6.206 -0.4209 -0.1469 -0.7760
   7923SM  H10S10457   7.919   0.013   6.171 -1.5697  1.0488  0.9953
   7923SM  H10T10458   7.812  -0.136   6.133 -1.2609 -0.1863 -0.0080
   7923SM  C11S10459   7.976  -0.192   6.251  0.6990 -0.1803 -0.2415
   7923SM  H11S10460   7.915  -0.258   6.317  0.0628  0.9676  0.3606
   7923SM  H11T10461   8.067  -0.158   6.304  0.3372 -2.0803  1.7618
   7923SM  C12S10462   8.011  -0.282   6.131  1.1196 -0.0471  0.4386
   7923SM  H12S10463   7.919  -0.326   6.087  0.4198 -0.4596  2.2396
   7923SM  H12T10464   8.067  -0.373   6.160 -0.1214 -1.6333 -1.8780
   7923SM  C13S10465   8.084  -0.215   6.012 -0.5224  0.1042  0.5463
   7923SM  H13S10466   8.031  -0.137   5.953 -0.2164 -0.9964 -1.2494
   7923SM  H13T10467   8.096  -0.291   5.932 -1.9343  2.0232 -1.6290
   7923SM  C14S10468   8.218  -0.159   6.042 -0.3967 -0.7352 -0.0833
   7923SM  H14S10469   8.203  -0.067   6.103  2.1460 -0.4827  0.2771
   7923SM  H14T10470   8.270  -0.124   5.950 -0.6988 -1.1127 -0.4017
   7923SM  C15S10471   8.309  -0.268   6.105 -0.4146 -0.2482  0.5936
   7923SM  H15S10472   8.323  -0.349   6.030 -0.2443  0.0097  0.3449
   7923SM  H15T10473   8.272  -0.309   6.201 -0.7638 -0.8275  0.2209
   7923SM  C16S10474   8.449  -0.216   6.124  0.0898 -1.0974  0.0170
   7923SM  H16S10475   8.433  -0.136   6.200  3.2043 -2.1400  1.9537
   7923SM  H16T10476   8.491  -0.179   6.028  2.7727  0.9637  1.8414
   7923SM  C17S10477   8.549  -0.311   6.184  0.5820 -0.7032  0.4510
   7923SM  H17S10478   8.494  -0.377   6.256  2.0968 -2.3897  0.1309
   7923SM  H17T10479   8.633  -0.258   6.232  0.3214  0.9171 -0.8184
   7923SM  C18S10480   8.627  -0.385   6.075  0.2423 -0.3913 -0.6789
   7923SM  H18S10481   8.575  -0.436   5.991 -0.9818  0.2606 -0.3323
   7923SM  H18T10482   8.701  -0.447   6.130  0.3165  1.1827  1.1212
   7923SM  H18U10483   8.694  -0.312   6.024  2.4152 -1.0887  1.0141
   7923SM   C1F10484   7.898   0.677   6.722  0.4014 -0.3997 -0.7692
   7923SM    OF10485   7.949   0.734   6.816 -0.2487 -0.5241 -0.2201
   7923SM   C2F10486   7.893   0.738   6.583  0.2655  0.2149 -0.2595
   7923SM   H2F10487   7.844   0.672   6.508  1.4718  1.6941 -2.4528
   7923SM   H2G10488   7.999   0.747   6.549  0.2821 -0.2815 -0.3472
   7923SM   C3F10489   7.831   0.878   6.571 -0.6092 -0.0623 -0.5279
   7923SM   H3F10490   7.842   0.936   6.666  0.7303 -1.4443  0.2134
   7923SM   H3G10491   7.722   0.868   6.554 -0.9524  0.5076  1.0908
   7923SM   C4F10492   7.882   0.961   6.456 -0.2073 -0.1303  0.0413
   7923SM   H4F10493   7.991   0.961   6.477 -0.0530 -2.7203 -0.4054
   7923SM   H4G10494   7.840   1.062   6.473  0.0524  0.7275 -3.6135
   7923SM   C5F10495   7.845   0.909   6.318  0.3064  0.2607 -0.2225
   7923SM   H5F10496   7.902   0.815   6.302 -0.5634 -0.2835 -0.1908
   7923SM   H5G10497   7.885   0.982   6.245  2.4951 -1.4371 -0.8368
   7923SM   C6F10498   7.694   0.893   6.287 -0.4735 -0.3630 -0.0716
   7923SM   H6F10499   7.649   0.993   6.302 -0.4811 -0.2312 -0.9366
   7923SM   H6G10500   7.658   0.822   6.365 -1.7372  1.5944  1.2083
   7923SM   C7F10501   7.662   0.835   6.148 -0.5339  0.2366 -0.1358
   7923SM   H7F10502   7.711   0.736   6.138 -1.9812 -0.3890 -1.4827
   7923SM   H7G10503   7.698   0.913   6.078 -0.0396  0.5259  0.4350
   7923SM   C8F10504   7.517   0.793   6.122  0.8136  0.4237 -0.3352
   7923SM   H8F10505   7.451   0.875   6.156 -0.7099 -0.6988 -0.5144
   7923SM   H8G10506   7.499   0.706   6.189 -0.1427  1.4380  0.7778
   7923SM   C9F10507   7.487   0.776   5.968 -1.0297  0.2949  0.1691
   7923SM   H9F10508   7.500   0.869   5.909 -1.7105 -1.5244 -3.1012
   7923SM   H9G10509   7.385   0.731   5.967 -0.6678 -0.5572 -1.0290
   7923SM  C10F10510   7.582   0.684   5.882  0.3820  0.1261 -0.3686
   7923SM  H10F10511   7.560   0.579   5.914 -2.4886  0.6646 -0.2938
   7923SM  H10G10512   7.688   0.713   5.897  0.4503 -0.0371 -0.5275
   7923SM  C11F10513   7.554   0.681   5.731  0.2522 -0.3963 -0.0678
   7923SM  H11F10514   7.561   0.784   5.689 -0.1660 -0.0056  0.7799
   7923SM  H11G10515   7.450   0.642   5.719  0.9711 -2.7866  0.9535
   7923SM  C12F10516   7.653   0.595   5.655  0.5465 -0.5798 -0.7805
   7923SM  H12F10517   7.685   0.520   5.731 -2.4216 -0.8456  0.3446
   7923SM  H12G10518   7.736   0.662   5.622 -1.2569  0.7549 -2.8299
   7923SM  C13F10519   7.595   0.532   5.530  0.2932 -0.6402  0.2838
   7923SM  H13F10520   7.564   0.619   5.468 -1.7753 -0.8860  0.8926
   7923SM  H13G10521   7.509   0.465   5.549 -1.4259  0.9722 -1.3963
   7923SM  C14F10522   7.707   0.464   5.460  0.0568  0.2121 -0.0920
   7923SM  H14F10523   7.746   0.390   5.534 -0.4946  0.4237  0.4232
   7923SM  H14G10524   7.787   0.539   5.442 -1.0892  1.2706 -0.8986
   7923SM  C15F10525   7.658   0.400   5.334 -0.7414 -0.3446 -0.3727
   7923SM  H15F10526   7.631   0.483   5.265  0.8164  1.1959  0.7961
   7923SM  H15G10527   7.572   0.335   5.364 -1.7756  0.9283 -0.4984
   7923SM  C16F10528   7.767   0.311   5.266  0.8302 -0.6286  0.1705
   7923SM  H16F10529   7.723   0.283   5.168  1.7419  0.9766 -0.7376
   7923SM  H16G10530   7.765   0.221   5.331 -2.0692 -0.8153 -0.0533
   7923SM  C17F10531   7.912   0.353   5.256  0.3155 -0.3197  0.0803
   7923SM  H17F10532   7.944   0.382   5.359 -0.1295  0.0786  0.1080
   7923SM  H17G10533   7.920   0.453   5.208  0.9842  0.4518  1.7170
   7923SM  C18F10534   8.007   0.257   5.182 -0.8858  0.6820  0.0108
   7923SM  H18F10535   7.999   0.156   5.228 -2.5521  0.9272  0.3179
   7923SM  H18G10536   8.110   0.294   5.200 -0.5798 -0.0846 -0.0858
   7923SM  C19F10537   7.987   0.255   5.028  0.5953 -0.4299 -0.3229
   7923SM  H19F10538   8.007   0.357   4.988  1.7075  0.0771  1.4141
   7923SM  H19G10539   7.883   0.233   4.996 -0.2265  0.3872  1.6586
   7923SM  C20F10540   8.073   0.144   4.959 -0.4720 -0.0050  0.3621
   7923SM  H20F10541   8.028   0.045   4.981 -2.5809  1.3482  2.5645
   7923SM  H20G10542   8.176   0.154   4.998 -0.7116  0.3807  0.9019
   7923SM  C21F10543   8.073   0.176   4.807  0.0564 -0.0514  0.2366
   7923SM  H21F10544   8.129   0.268   4.781 -1.1742  0.3644 -1.0177
   7923SM  H21G10545   7.967   0.189   4.776  0.1210  1.6073  0.6165
   7923SM  C22F10546   8.130   0.055   4.723 -0.0310 -0.1005 -0.0387
   7923SM  H22F10547   8.112   0.055   4.614  0.8770 -0.4648 -0.1972
   7923SM  H22G10548   8.088  -0.040   4.763  1.9469 -1.7959 -1.7333
   7923SM  C23F10549   8.286   0.047   4.724 -0.0131 -0.0662 -0.1073
   7923SM  H23F10550   8.334   0.140   4.686  0.0681 -0.1858 -0.2944
   7923SM  H23G10551   8.327  -0.033   4.659 -1.1092  0.9212 -2.0891
   7923SM  H23H10552   8.312   0.033   4.831 -1.6449 -0.6348  0.2434
   8023SM     N10553   1.593   1.161   7.565 -0.3722 -0.0127  0.0633
   8023SM   C1510554   1.570   1.222   7.703 -0.0439  0.0374  0.4192
   8023SM  H15A10555   1.657   1.282   7.725 -0.2357  0.4935 -0.0476
   8023SM  H15B10556   1.569   1.145   7.779  2.2886 -0.8666 -0.3661
   8023SM  H15C10557   1.480   1.282   7.703  0.5604  0.9613 -0.2989
   8023SM   C1410558   1.736   1.115   7.552 -0.4717 -0.3803  0.5437
   8023SM  H14A10559   1.737   1.062   7.458 -1.6188 -0.0447  0.3235
   8023SM  H14B10560   1.761   1.047   7.632 -0.3801  0.5960  1.3689
   8023SM  H14C10561   1.808   1.196   7.549  0.5604 -1.2863 -1.1981
   8023SM   C1310562   1.503   1.038   7.553 -0.2808 -0.0005  0.3346
   8023SM  H13A10563   1.401   1.071   7.559 -0.0966  0.9436 -1.1459
   8023SM  H13B10564   1.516   0.963   7.629  1.0091  0.2683  0.4090
   8023SM  H13C10565   1.519   0.990   7.457  0.4281  3.5320 -1.4792
   8023SM   C1210566   1.560   1.263   7.456 -0.2622 -0.2656  0.3905
   8023SM  H12A10567   1.625   1.348   7.470 -2.4270  1.3680  1.2888
   8023SM  H12B10568   1.463   1.306   7.479 -0.0621  1.5234 -1.7694
   8023SM   C1110569   1.560   1.211   7.312  0.0372 -0.3646 -0.0023
   8023SM  H11A10570   1.459   1.177   7.283 -0.0572  0.0766 -0.2058
   8023SM  H11B10571   1.623   1.120   7.306  0.9814  0.3415 -1.6358
   8023SM     P10572   1.745   1.333   7.166 -0.4953 -0.0518 -0.4774
   8023SM   O1310573   1.740   1.444   7.072 -0.3229  0.5324 -0.1230
   8023SM   O1410574   1.839   1.348   7.284  0.2157 -0.1521 -0.4291
   8023SM   O1110575   1.770   1.194   7.089  0.0212  0.5125 -0.3338
   8023SM   O1210576   1.600   1.319   7.224 -0.2347 -0.7776  0.2889
   8023SM   C1S10577   1.669   1.149   7.000 -0.0775  0.0723  0.0240
   8023SM   H1S10578   1.564   1.175   7.023  0.2922  1.7520 -0.1072
   8023SM   H1T10579   1.670   1.038   7.012  0.1011  0.1707  0.9666
   8023SM    NF10580   1.597   1.097   6.768 -0.3674 -0.2327  0.6286
   8023SM   HNF10581   1.644   1.017   6.730 -0.0349 -0.0565  0.6628
   8023SM   C2S10582   1.679   1.190   6.844  0.2398  0.1218 -0.8417
   8023SM   H2S10583   1.638   1.292   6.824  0.3338  0.1271 -1.0057
   8023SM   C3S10584   1.830   1.188   6.807  0.0875  0.2904 -0.6705
   8023SM   H3S10585   1.873   1.090   6.838 -1.1904  0.3109  1.3130
   8023SM    O310586   1.914   1.272   6.878 -0.1227 -0.1993  0.1846
   8023SM   HO310587   1.854   1.317   6.938  1.2821  0.9015  0.8048
   8023SM   C4S10588   1.857   1.212   6.665 -0.2367 -0.1080  0.0133
   8023SM   H4S10589   1.813   1.304   6.623  2.2937  1.4966  0.6484
   8023SM   C5S10590   1.930   1.147   6.579  0.4425 -0.3555 -0.0153
   8023SM   H5S10591   1.970   1.049   6.608  0.0792 -0.6893 -0.6268
   8023SM   C6S10592   1.965   1.186   6.438  0.8441  0.2652  0.2757
   8023SM   H6S10593   1.930   1.104   6.371  2.4294 -0.1562 -0.0811
   8023SM   H6T10594   2.076   1.177   6.436  0.7167 -1.8884  0.7701
   8023SM   C7S10595   1.921   1.326   6.383 -0.9354 -0.0325 -0.2440
   8023SM   H7S10596   1.949   1.415   6.443  1.2612 -0.1344 -1.0209
   8023SM   H7T10597   1.810   1.321   6.386 -1.0045  0.7284 -1.0695
   8023SM   C8S10598   1.969   1.360   6.242  0.8376  0.4421 -0.7569
   8023SM   H8S10599   1.932   1.284   6.170 -1.8220 -0.0509  1.0065
   8023SM   H8T10600   2.080   1.365   6.233  0.7625 -1.0642 -3.5244
   8023SM   C9S10601   1.916   1.495   6.204  0.7602 -0.2922 -0.0415
   8023SM   H9S10602   1.977   1.571   6.257 -0.5440  0.4837  0.4105
   8023SM   H9T10603   1.818   1.508   6.255 -0.7316  0.6523 -2.9301
   8023SM  C10S10604   1.919   1.529   6.057 -0.3108 -0.0515  0.4924
   8023SM  H10S10605   2.020   1.506   6.015 -0.3695  1.9938 -0.9320
   8023SM  H10T10606   1.908   1.640   6.058  0.8326  0.1913 -2.6249
   8023SM  C11S10607   1.805   1.463   5.967 -0.6625  0.5025  0.0686
   8023SM  H11S10608   1.712   1.524   5.977 -1.1117 -0.1430 -0.0566
   8023SM  H11T10609   1.770   1.366   6.010 -2.4805  0.6285 -1.0203
   8023SM  C12S10610   1.845   1.446   5.822 -0.7469 -0.6486  0.0422
   8023SM  H12S10611   1.756   1.397   5.777  0.0700 -2.2694  0.0975
   8023SM  H12T10612   1.936   1.382   5.818 -0.2087  0.0566  0.7324
   8023SM  C13S10613   1.873   1.578   5.758  0.1478 -1.1916 -0.6380
   8023SM  H13S10614   1.973   1.619   5.787  0.4459 -1.7297 -0.9001
   8023SM  H13T10615   1.790   1.648   5.780  0.8050 -0.7911  0.7003
   8023SM  C14S10616   1.877   1.561   5.604  0.3365  0.9708  0.4997
   8023SM  H14S10617   1.775   1.526   5.581 -0.5553  1.7800  2.9350
   8023SM  H14T10618   1.946   1.475   5.588  0.9960  1.5116  0.3594
   8023SM  C15S10619   1.921   1.686   5.526  0.9258 -0.0675 -0.1077
   8023SM  H15S10620   2.032   1.694   5.528  0.8446  1.4321 -0.3621
   8023SM  H15T10621   1.884   1.777   5.579  1.0425 -0.4647  0.6798
   8023SM  C16S10622   1.870   1.689   5.388  0.0932  0.5337  0.6729
   8023SM  H16S10623   1.770   1.738   5.385  1.2505  3.0446 -0.6103
   8023SM  H16T10624   1.853   1.585   5.353 -1.6925  0.7993  0.6885
   8023SM  C17S10625   1.971   1.750   5.282  0.6998  0.6429  0.5420
   8023SM  H17S10626   2.075   1.716   5.302  0.7036 -0.4270 -1.0682
   8023SM  H17T10627   1.970   1.861   5.286 -0.0777  0.6572  0.1050
   8023SM  C18S10628   1.934   1.710   5.145 -0.7827 -0.2706  1.2500
   8023SM  H18S10629   1.832   1.744   5.114 -0.0977 -0.3379 -1.3185
   8023SM  H18T10630   1.939   1.600   5.135  1.7475 -0.0571 -1.2820
   8023SM  H18U10631   2.001   1.755   5.069 -3.1107 -0.3841 -1.0061
   8023SM   C1F10632   1.470   1.101   6.762  0.7032  0.3416 -0.2268
   8023SM    OF10633   1.403   1.179   6.826 -0.2036 -0.8650  0.0344
   8023SM   C2F10634   1.417   0.990   6.678  1.2150  0.1680  0.4219
   8023SM   H2F10635   1.322   0.960   6.729  0.0761  2.6318 -0.1007
   8023SM   H2G10636   1.489   0.905   6.675 -0.4290 -1.2901  0.1068
   8023SM   C3F10637   1.374   1.041   6.539  0.2035 -0.2811  0.6237
   8023SM   H3F10638   1.308   1.129   6.552 -0.2389 -0.2899 -1.2670
   8023SM   H3G10639   1.322   0.963   6.479 -0.5758 -0.0116  0.9300
   8023SM   C4F10640   1.494   1.077   6.450 -0.0960 -0.3801 -0.1064
   8023SM   H4F10641   1.576   1.004   6.464  0.2140 -0.0387 -0.1385
   8023SM   H4G10642   1.539   1.176   6.474  2.4071 -1.8550  1.7675
   8023SM   C5F10643   1.460   1.101   6.301  0.0314 -0.1871  0.6433
   8023SM   H5F10644   1.393   1.190   6.311  0.1620 -0.0993  0.7467
   8023SM   H5G10645   1.400   1.015   6.265  0.4448 -0.4546  0.5939
   8023SM   C6F10646   1.591   1.118   6.225 -0.2006  0.3272 -0.5028
   8023SM   H6F10647   1.681   1.059   6.252  0.8996  1.8968 -0.6424
   8023SM   H6G10648   1.629   1.221   6.239  3.5180 -0.9088 -0.3747
   8023SM   C7F10649   1.565   1.108   6.071 -0.1859  0.0927 -0.8201
   8023SM   H7F10650   1.542   1.004   6.041  0.4342 -0.8465  1.7286
   8023SM   H7G10651   1.651   1.148   6.012  0.5518  1.2580  0.9522
   8023SM   C8F10652   1.439   1.186   6.030  0.7118  0.0731  0.7244
   8023SM   H8F10653   1.453   1.288   6.071  0.2645 -0.2040  1.5909
   8023SM   H8G10654   1.342   1.151   6.071  0.9498  0.1819  1.3932
   8023SM   C9F10655   1.432   1.219   5.877 -0.1006  0.2582 -0.5696
   8023SM   H9F10656   1.457   1.129   5.816  1.3256  0.3810 -0.1908
   8023SM   H9G10657   1.506   1.298   5.853  0.1541  0.4510  0.7697
   8023SM  C10F10658   1.291   1.269   5.830 -0.0458  0.1023 -0.3023
   8023SM  H10F10659   1.273   1.372   5.867 -1.1270 -0.3755  0.5481
   8023SM  H10G10660   1.202   1.210   5.861 -0.8973  1.6144  0.2159
   8023SM  C11F10661   1.302   1.275   5.668  0.3931 -0.0096 -0.7986
   8023SM  H11F10662   1.321   1.170   5.638  2.1238 -1.0034  3.2005
   8023SM  H11G10663   1.389   1.338   5.639  1.5091 -1.0584  0.1761
   8023SM  C12F10664   1.166   1.321   5.602 -0.6502 -0.4379  0.3646
   8023SM  H12F10665   1.130   1.409   5.660  0.3543 -0.1672  0.6085
   8023SM  H12G10666   1.075   1.258   5.605 -1.2013  0.2559 -0.8488
   8023SM  C13F10667   1.187   1.372   5.456  0.7288  0.6373 -0.4505
   8023SM  H13F10668   1.237   1.291   5.399  1.3854 -0.6951  1.8792
   8023SM  H13G10669   1.259   1.457   5.459  1.5708 -0.0839  0.5097
   8023SM  C14F10670   1.050   1.400   5.393  0.2319 -0.1463  0.3874
   8023SM  H14F10671   0.995   1.446   5.478  1.6170  0.9669  0.7084
   8023SM  H14G10672   1.001   1.303   5.367  2.5533 -0.9764 -1.2593
   8023SM  C15F10673   1.062   1.489   5.260 -0.2178  0.2620  0.1440
   8023SM  H15F10674   1.156   1.462   5.207 -0.5406 -0.8514  0.0967
   8023SM  H15G10675   1.083   1.590   5.302 -1.6068  1.0038 -0.8932
   8023SM  C16F10676   0.938   1.477   5.171 -0.0257 -0.3287  0.2517
   8023SM  H16F10677   0.842   1.485   5.227  0.1192  0.9582  0.3452
   8023SM  H16G10678   0.946   1.380   5.116  2.0798 -0.8125  1.3260
   8023SM  C17F10679   0.934   1.593   5.065 -0.3219  0.1501 -0.8309
   8023SM  H17F10680   1.032   1.599   5.012  0.0688 -0.5638 -0.2137
   8023SM  H17G10681   0.913   1.693   5.108 -0.2955  0.4113 -1.4181
   8023SM  C18F10682   0.833   1.571   4.955  0.9532  0.3407 -0.0596
   8023SM  H18F10683   0.735   1.554   5.005  1.0239  0.6181  0.1807
   8023SM  H18G10684   0.851   1.472   4.910 -1.5688 -0.0290 -0.4247
   8023SM  C19F10685   0.821   1.676   4.845 -0.1376  0.2525  0.2679
   8023SM  H19F10686   0.921   1.699   4.804 -0.0591 -1.5023 -0.5727
   8023SM  H19G10687   0.789   1.777   4.881  1.0469  0.7719 -0.1065
   8023SM  C20F10688   0.727   1.643   4.728  0.6751  0.0431 -0.1873
   8023SM  H20F10689   0.633   1.594   4.760 -0.7959  0.1754 -3.7874
   8023SM  H20G10690   0.769   1.566   4.659  0.7073  0.9514 -1.2205
   8023SM  C21F10691   0.683   1.770   4.649  0.8234 -0.5201 -0.0537
   8023SM  H21F10692   0.764   1.824   4.596 -1.0212  2.0133 -0.4519
   8023SM  H21G10693   0.634   1.832   4.727 -0.3158 -2.3028  0.7161
   8023SM  C22F10694   0.586   1.738   4.537 -0.0412 -0.1354  0.3722
   8023SM  H22F10695   0.559   1.831   4.482 -3.0065  0.8102  3.1416
   8023SM  H22G10696   0.490   1.700   4.578 -0.5554  1.3333  0.6105
   8023SM  C23F10697   0.632   1.624   4.439 -0.3840 -0.0925 -0.4650
   8023SM  H23F10698   0.644   1.528   4.493  0.9797 -0.9706 -2.2164
   8023SM  H23G10699   0.722   1.648   4.378 -0.1492  0.5309  0.1110
   8023SM  H23H10700   0.547   1.597   4.373 -0.4337 -1.7305  0.2287
   8123SM     N10701   2.566   3.843   2.800 -0.1324 -0.3708 -0.9186
   8123SM   C1510702   2.421   3.850   2.844 -0.1700 -0.6685  0.0413
   8123SM  H15A10703   2.421   3.919   2.927  3.0939  0.6090 -0.9020
   8123SM  H15B10704   2.388   3.760   2.894 -1.1213  0.2529  1.1510
   8123SM  H15C10705   2.353   3.877   2.765 -1.1880  0.0387  1.1052
   8123SM   C1410706   2.645   3.791   2.910 -0.3374  0.0835 -0.9416
   8123SM  H14A10707   2.630   3.852   2.998  1.1979 -1.5859  0.5693
   8123SM  H14B10708   2.752   3.781   2.899 -0.4503 -1.7806 -0.7065
   8123SM  H14C10709   2.613   3.694   2.946  2.4055 -0.3466  0.5849
   8123SM   C1310710   2.567   3.739   2.696  0.1323 -0.1268  0.8687
   8123SM  H13A10711   2.512   3.763   2.606 -0.3543  1.3906  1.5496
   8123SM  H13B10712   2.519   3.651   2.737  2.4212 -1.1747  1.4874
   8123SM  H13C10713   2.669   3.717   2.669  1.2895  3.7009  1.5014
   8123SM   C1210714   2.625   3.978   2.757 -0.4443  0.0369 -0.0546
   8123SM  H12A10715   2.563   4.010   2.675  0.2802 -0.7908 -0.9499
   8123SM  H12B10716   2.714   3.958   2.699 -0.0921  0.7593  0.2315
   8123SM   C1110717   2.655   4.090   2.865 -0.3526  0.0793 -0.2387
   8123SM  H11A10718   2.720   4.171   2.826  1.2442 -0.5312  1.0115
   8123SM  H11B10719   2.705   4.042   2.952 -1.0174 -0.7743 -0.3177
   8123SM     P10720   2.435   4.233   2.820  0.1947  0.0735 -0.3831
   8123SM   O1310721   2.404   4.168   2.688  0.5180 -0.4559 -0.0488
   8123SM   O1410722   2.329   4.269   2.918  0.3312  0.1828  0.2354
   8123SM   O1110723   2.522   4.365   2.786 -0.6390 -0.1373  0.1484
   8123SM   O1210724   2.529   4.135   2.903  0.4382  0.4391 -0.7934
   8123SM   C1S10725   2.539   4.478   2.873  0.1896 -0.4755  0.2182
   8123SM   H1S10726   2.455   4.482   2.944 -0.9157 -1.1402 -1.0093
   8123SM   H1T10727   2.534   4.576   2.819  0.2746  1.0285  2.7848
   8123SM    NF10728   2.698   4.594   3.030 -0.0974  0.0859  0.4580
   8123SM   HNF10729   2.758   4.671   3.012  1.1510 -1.0001 -0.1669
   8123SM   C2S10730   2.679   4.481   2.936  0.4102  0.6525  0.1674
   8123SM   H2S10731   2.693   4.381   2.983 -2.5568  0.0448 -0.1007
   8123SM   C3S10732   2.783   4.497   2.825 -0.0898  0.5045  0.2230
   8123SM   H3S10733   2.770   4.600   2.784  0.5519  0.6206  0.3008
   8123SM    O310734   2.768   4.409   2.714  0.0593  0.5564 -0.3122
   8123SM   HO310735   2.686   4.361   2.725 -0.4579  1.5485  0.3829
   8123SM   C4S10736   2.920   4.482   2.877 -1.0100  0.6466  0.3718
   8123SM   H4S10737   2.942   4.384   2.924 -1.1137  0.6000  0.3216
   8123SM   C5S10738   3.018   4.574   2.887  0.1853  0.5675 -1.2913
   8123SM   H5S10739   2.987   4.677   2.866  0.5886  1.0398  0.3105
   8123SM   C6S10740   3.156   4.552   2.944 -0.2345 -0.3764 -0.5545
   8123SM   H6S10741   3.219   4.643   2.942 -0.8363  0.1140  1.3053
   8123SM   H6T10742   3.198   4.476   2.875 -1.9224 -1.7884 -0.0866
   8123SM   C7S10743   3.164   4.491   3.084 -0.0756 -0.6224 -0.0593
   8123SM   H7S10744   3.261   4.436   3.081 -0.1773 -0.8088  0.0509
   8123SM   H7T10745   3.085   4.414   3.088 -0.0597 -0.6738 -0.5578
   8123SM   C8S10746   3.170   4.594   3.204 -0.0933 -1.0301 -0.8786
   8123SM   H8S10747   3.071   4.645   3.214  0.8781  1.3409 -2.5756
   8123SM   H8T10748   3.247   4.672   3.190 -1.8548  0.5793 -2.2346
   8123SM   C9S10749   3.197   4.523   3.331  0.2254  0.0727 -0.0469
   8123SM   H9S10750   3.295   4.473   3.315 -0.7479 -1.5108 -1.2350
   8123SM   H9T10751   3.117   4.447   3.345  1.1813 -1.2735 -1.6379
   8123SM  C10S10752   3.217   4.609   3.456 -0.1326  0.4361 -0.1270
   8123SM  H10S10753   3.126   4.660   3.494  0.8747  0.9640  1.6790
   8123SM  H10T10754   3.288   4.689   3.428  0.1411  0.5998  0.9877
   8123SM  C11S10755   3.268   4.522   3.571 -0.4831 -0.1753 -0.3736
   8123SM  H11S10756   3.372   4.489   3.549  0.4944  1.9789  0.7508
   8123SM  H11T10757   3.202   4.436   3.598  2.0878 -2.4826 -0.9192
   8123SM  C12S10758   3.285   4.603   3.702 -0.1117  0.1929 -0.4288
   8123SM  H12S10759   3.185   4.632   3.741  0.3331  2.1634 -0.6107
   8123SM  H12T10760   3.337   4.698   3.676  0.0110 -0.3144 -2.1481
   8123SM  C13S10761   3.354   4.517   3.805  0.4757 -0.2382  0.0711
   8123SM  H13S10762   3.456   4.490   3.771  0.0959 -0.2690 -1.0781
   8123SM  H13T10763   3.296   4.422   3.807 -0.6783  0.4501  0.0259
   8123SM  C14S10764   3.355   4.585   3.939  0.4515  0.0662  0.0404
   8123SM  H14S10765   3.248   4.591   3.966  0.3169  1.8555 -0.7705
   8123SM  H14T10766   3.383   4.692   3.934  2.4346 -0.4137 -0.2477
   8123SM  C15S10767   3.430   4.512   4.049 -0.4122 -0.5926 -0.3491
   8123SM  H15S10768   3.533   4.486   4.016 -1.1555 -1.2272 -2.3137
   8123SM  H15T10769   3.367   4.424   4.069 -1.4696 -0.0025 -1.0196
   8123SM  C16S10770   3.431   4.602   4.170  0.0161  0.1478 -0.2169
   8123SM  H16S10771   3.339   4.665   4.175  0.0195  0.1054  0.5453
   8123SM  H16T10772   3.512   4.678   4.157 -0.2777  0.2678 -1.4209
   8123SM  C17S10773   3.446   4.530   4.305  0.0418  0.2541 -0.0359
   8123SM  H17S10774   3.538   4.468   4.308 -0.4191 -0.4287  0.2597
   8123SM  H17T10775   3.361   4.459   4.315 -1.8296  2.2994 -0.7530
   8123SM  C18S10776   3.457   4.624   4.430 -0.0138  0.6445 -0.1180
   8123SM  H18S10777   3.546   4.689   4.423  0.2500  0.4188  0.9772
   8123SM  H18T10778   3.468   4.565   4.523  1.6190  5.1269  2.8248
   8123SM  H18U10779   3.361   4.680   4.442  0.0529  0.5623  0.8183
   8123SM   C1F10780   2.647   4.581   3.148 -0.6049 -0.9620  0.3902
   8123SM    OF10781   2.567   4.493   3.175 -0.3405 -0.3274 -0.0508
   8123SM   C2F10782   2.691   4.687   3.237  0.2428 -0.4747  0.4173
   8123SM   H2F10783   2.609   4.761   3.234  0.6377 -0.0142  0.7158
   8123SM   H2G10784   2.780   4.739   3.195  0.3636 -2.3211 -1.8734
   8123SM   C3F10785   2.729   4.642   3.385 -0.2593 -0.3544 -0.2508
   8123SM   H3F10786   2.800   4.559   3.366  0.4218 -0.2536  1.6251
   8123SM   H3G10787   2.634   4.603   3.427 -0.1412 -1.4255 -0.9416
   8123SM   C4F10788   2.782   4.758   3.476  0.0657  0.9210  0.4328
   8123SM   H4F10789   2.708   4.840   3.463  0.8149  1.6745  0.8294
   8123SM   H4G10790   2.868   4.797   3.418  0.8690  0.0618  1.0261
   8123SM   C5F10791   2.827   4.716   3.614  0.7125  0.4966  0.8637
   8123SM   H5F10792   2.884   4.620   3.617 -1.0896 -0.6090  1.9442
   8123SM   H5G10793   2.732   4.715   3.672 -0.7926 -2.0945 -1.4278
   8123SM   C6F10794   2.908   4.819   3.680  0.6841 -0.0714 -0.2360
   8123SM   H6F10795   2.859   4.918   3.678 -0.8519 -0.6266  2.7567
   8123SM   H6G10796   3.000   4.820   3.618 -0.2494 -0.2967 -1.6785
   8123SM   C7F10797   2.922   4.786   3.832 -0.2013  0.5526  0.5282
   8123SM   H7F10798   2.939   4.676   3.833 -0.9212  0.4212 -0.3803
   8123SM   H7G10799   2.821   4.806   3.875 -1.6692 -0.7092 -2.1021
   8123SM   C8F10800   3.027   4.871   3.899 -0.3354 -0.2355  0.3021
   8123SM   H8F10801   3.002   4.978   3.883 -1.1100 -0.2291  1.3975
   8123SM   H8G10802   3.126   4.854   3.851 -0.2305  1.4070 -0.1247
   8123SM   C9F10803   3.043   4.848   4.052 -0.2540 -1.2456  1.0742
   8123SM   H9F10804   3.110   4.760   4.055  4.1673  1.7804  0.1607
   8123SM   H9G10805   2.948   4.822   4.104 -1.2536 -1.7519 -0.9439
   8123SM  C10F10806   3.106   4.976   4.109  0.1417  0.3760  0.0048
   8123SM  H10F10807   3.031   5.057   4.122 -0.7310 -0.6170  1.4275
   8123SM  H10G10808   3.193   5.001   4.044  0.4472 -1.6179 -0.4314
   8123SM  C11F10809   3.146   4.953   4.256  0.6080 -1.0243 -0.2967
   8123SM  H11F10810   3.220   4.872   4.275  1.9825  0.5713  1.6111
   8123SM  H11G10811   3.051   4.927   4.307  0.0635  0.7409 -0.3584
   8123SM  C12F10812   3.195   5.087   4.315 -0.8566 -0.1060 -0.3863
   8123SM  H12F10813   3.117   5.162   4.291 -2.0188 -0.8857  0.8091
   8123SM  H12G10814   3.281   5.116   4.251  2.5049 -0.9178  3.3464
   8123SM  C13F10815   3.232   5.087   4.462  0.8486  0.3406  0.6805
   8123SM  H13F10816   3.310   5.010   4.475  0.3840 -0.6325 -1.7806
   8123SM  H13G10817   3.149   5.043   4.521  1.9624 -2.9444  0.0082
   8123SM  C14F10818   3.283   5.217   4.519  0.5068  0.8596 -0.3225
   8123SM  H14F10819   3.204   5.292   4.499 -0.8235 -0.3056  0.4028
   8123SM  H14G10820   3.383   5.239   4.474  1.1684  1.2364  1.2443
   8123SM  C15F10821   3.295   5.206   4.674 -0.1152 -0.3885 -0.0453
   8123SM  H15F10822   3.349   5.116   4.711 -1.2500 -1.6460 -1.2895
   8123SM  H15G10823   3.198   5.185   4.723  0.5857  0.5135  1.7986
   8123SM  C16F10824   3.348   5.333   4.735 -0.0562 -0.2635  1.0242
   8123SM  H16F10825   3.282   5.420   4.714  0.7656  0.5138  1.5860
   8123SM  H16G10826   3.447   5.348   4.687 -0.7794 -2.3307 -1.3253
   8123SM  C17F10827   3.349   5.310   4.888  0.1652 -0.2806  0.2212
   8123SM  H17F10828   3.425   5.379   4.930 -1.0912  0.3978  1.4509
   8123SM  H17G10829   3.392   5.215   4.926  1.5389  0.2199 -0.0064
   8123SM  C18F10830   3.213   5.350   4.958  0.5252  0.3161  0.1428
   8123SM  H18F10831   3.149   5.259   4.950  4.2236 -2.4410 -0.6122
   8123SM  H18G10832   3.169   5.433   4.898 -2.3883 -0.7881  0.5795
   8123SM  C19F10833   3.232   5.375   5.104 -0.4289  0.0104  0.4183
   8123SM  H19F10834   3.303   5.460   5.119 -1.2791  0.8551 -0.2146
   8123SM  H19G10835   3.270   5.279   5.145  0.5130  0.0446 -0.3083
   8123SM  C20F10836   3.092   5.422   5.156 -0.3490 -0.7415  0.1658
   8123SM  H20F10837   3.028   5.332   5.162  0.7406 -1.4603  1.3299
   8123SM  H20G10838   3.044   5.502   5.095 -1.2891 -1.7659 -0.4773
   8123SM  C21F10839   3.105   5.492   5.294  0.3160  0.0352  0.1636
   8123SM  H21F10840   3.185   5.569   5.301  1.9534 -1.2630 -2.2747
   8123SM  H21G10841   3.136   5.414   5.367 -0.3843  0.1485  0.5876
   8123SM  C22F10842   2.971   5.563   5.343  0.2574 -0.1902 -0.3867
   8123SM  H22F10843   2.879   5.506   5.322 -0.5830  1.6509 -2.0750
   8123SM  H22G10844   2.975   5.659   5.286  2.1865 -0.7450 -1.2685
   8123SM  C23F10845   2.976   5.587   5.496  0.4064 -0.8185  0.0841
   8123SM  H23F10846   2.896   5.659   5.523  1.5196 -0.0741  1.5849
   8123SM  H23G10847   3.070   5.637   5.531  1.3087 -0.0023 -3.1614
   8123SM  H23H10848   2.959   5.501   5.564  0.1795  0.3777  1.5973
   8223SM     N10849   3.027   5.178   2.171  0.1726 -0.3669  0.1567
   8223SM   C1510850   3.103   5.181   2.043 -0.2565  0.1982 -0.4143
   8223SM  H15A10851   3.198   5.133   2.061  1.0004  1.4331 -3.1111
   8223SM  H15B10852   3.122   5.283   2.015 -1.3820  0.2840 -0.9261
   8223SM  H15C10853   3.059   5.146   1.950 -0.6548  1.2586 -0.6375
   8223SM   C1410854   2.899   5.252   2.134  0.6975  0.1452  0.3683
   8223SM  H14A10855   2.832   5.192   2.074 -0.4710  1.5283  0.2410
   8223SM  H14B10856   2.914   5.352   2.096 -2.8746  0.7916  0.2888
   8223SM  H14C10857   2.847   5.262   2.228  1.3023 -1.0853  0.8579
   8223SM   C1310858   2.989   5.043   2.198  0.1368  0.3797 -0.2180
   8223SM  H13A10859   2.941   4.988   2.118  0.0102  0.4232 -0.1729
   8223SM  H13B10860   2.926   5.020   2.283 -0.0180 -0.8332 -0.6422
   8223SM  H13C10861   3.080   4.990   2.218  0.2263  0.5664 -0.1356
   8223SM   C1210862   3.100   5.250   2.282  0.4567  0.0076  0.1123
   8223SM  H12A10863   3.042   5.247   2.373  2.1220 -1.6341  1.1950
   8223SM  H12B10864   3.115   5.352   2.250 -0.7302  0.1440 -0.0780
   8223SM   C1110865   3.241   5.202   2.319  0.1876  0.2178 -0.5102
   8223SM  H11A10866   3.289   5.250   2.407 -0.9669  0.4460  0.0113
   8223SM  H11B10867   3.308   5.241   2.239 -2.2920 -0.0853 -2.8970
   8223SM     P10868   3.255   4.982   2.456 -0.1744  0.2150 -0.2035
   8223SM   O1310869   3.117   4.981   2.500  0.1468 -0.6225  0.6297
   8223SM   O1410870   3.316   4.847   2.430  0.4729 -0.5906  0.7869
   8223SM   O1110871   3.342   5.069   2.556  0.0359  0.0022  0.5186
   8223SM   O1210872   3.264   5.064   2.320  0.6364  0.2892  0.5143
   8223SM   C1S10873   3.311   5.067   2.703 -0.4756 -0.6401  0.5695
   8223SM   H1S10874   3.205   5.096   2.721 -0.0297  1.1675  0.4690
   8223SM   H1T10875   3.374   5.144   2.753 -0.6298 -0.6485  0.7776
   8223SM    NF10876   3.282   4.954   2.918  0.3190  0.2604 -0.0808
   8223SM   HNF10877   3.356   4.966   2.984 -0.1037  0.3248  0.3908
   8223SM   C2S10878   3.330   4.932   2.779  0.4227  0.3006  0.4767
   8223SM   H2S10879   3.267   4.856   2.727  1.6276 -0.3876 -0.0514
   8223SM   C3S10880   3.480   4.885   2.772  0.5087  0.0954 -0.2770
   8223SM   H3S10881   3.544   4.961   2.824  0.2861  0.3396 -0.3566
   8223SM    O310882   3.529   4.893   2.634 -0.4929 -0.4760 -0.2149
   8223SM   HO310883   3.455   4.942   2.598  0.4107  1.5178  0.4531
   8223SM   C4S10884   3.505   4.756   2.846 -0.4923  0.8924 -0.0862
   8223SM   H4S10885   3.529   4.766   2.953 -1.4799  1.6597  0.0855
   8223SM   C5S10886   3.484   4.623   2.809  0.2352  0.1184 -0.3412
   8223SM   H5S10887   3.428   4.610   2.716  1.1570  1.5196 -1.1234
   8223SM   C6S10888   3.498   4.498   2.898  0.0040 -0.0780  0.4084
   8223SM   H6S10889   3.572   4.424   2.863 -2.0381 -2.1478  0.2253
   8223SM   H6T10890   3.411   4.429   2.896  0.0168 -0.2452  2.7910
   8223SM   C7S10891   3.507   4.520   3.047 -0.7447  0.1288 -0.5229
   8223SM   H7S10892   3.427   4.582   3.094  0.5685  0.9356  0.7326
   8223SM   H7T10893   3.598   4.583   3.056 -1.2249  1.0097 -1.5656
   8223SM   C8S10894   3.533   4.399   3.126  0.1944  0.1935 -0.6264
   8223SM   H8S10895   3.584   4.326   3.060 -0.7098 -0.1009 -1.0262
   8223SM   H8T10896   3.440   4.355   3.169  0.8686  0.6345  1.3724
   8223SM   C9S10897   3.632   4.422   3.238  0.5937  0.2706 -0.2687
   8223SM   H9S10898   3.585   4.510   3.288 -1.0515  0.5181 -2.1066
   8223SM   H9T10899   3.731   4.445   3.194 -0.0269  1.4470 -1.1194
   8223SM  C10S10900   3.638   4.299   3.330  0.2228 -0.6774  0.5603
   8223SM  H10S10901   3.650   4.204   3.273 -0.3096 -0.4924  0.1283
   8223SM  H10T10902   3.542   4.292   3.385  1.0597  1.9033  2.5769
   8223SM  C11S10903   3.751   4.330   3.433  0.9491  0.4262  0.2610
   8223SM  H11S10904   3.827   4.393   3.382  2.3319 -1.2091  0.2088
   8223SM  H11T10905   3.790   4.229   3.459  2.1835  0.8215  0.0207
   8223SM  C12S10906   3.699   4.383   3.566 -0.3356 -0.3093  0.3661
   8223SM  H12S10907   3.653   4.302   3.627  0.7864 -1.8295 -0.7593
   8223SM  H12T10908   3.623   4.462   3.545 -0.0997  0.1846  1.3222
   8223SM  C13S10909   3.809   4.454   3.647  0.2223  0.1194  1.1714
   8223SM  H13S10910   3.865   4.529   3.587 -0.1600 -0.9083 -0.5521
   8223SM  H13T10911   3.895   4.384   3.658  2.3620  1.9660 -1.9959
   8223SM  C14S10912   3.767   4.522   3.779  0.4817  0.3423 -0.3058
   8223SM  H14S10913   3.735   4.447   3.854  0.5295  1.1464  0.5347
   8223SM  H14T10914   3.676   4.580   3.754  2.4207  3.4145 -0.7067
   8223SM  C15S10915   3.875   4.610   3.847  0.3550 -0.5037  0.5211
   8223SM  H15S10916   3.828   4.655   3.936 -4.2326 -1.5361 -1.1149
   8223SM  H15T10917   3.894   4.689   3.772 -1.8196  0.3225  0.7752
   8223SM  C16S10918   4.000   4.525   3.877  0.6283 -0.5007 -0.5597
   8223SM  H16S10919   4.052   4.496   3.783 -0.7106  0.6671 -1.7010
   8223SM  H16T10920   3.976   4.442   3.947 -1.0086  0.8600  0.5684
   8223SM  C17S10921   4.105   4.612   3.948  0.0445 -0.0440 -0.6911
   8223SM  H17S10922   4.183   4.547   3.993  1.5948  1.7318 -0.6609
   8223SM  H17T10923   4.062   4.671   4.032 -0.2053 -1.0094 -0.1224
   8223SM  C18S10924   4.180   4.710   3.856 -1.3446  0.1013  0.0527
   8223SM  H18S10925   4.279   4.746   3.892 -1.3467  1.2958 -1.0711
   8223SM  H18T10926   4.128   4.804   3.830  0.5539  1.2130  0.0885
   8223SM  H18U10927   4.205   4.667   3.757 -1.3710  1.9095 -0.7684
   8223SM   C1F10928   3.155   4.973   2.953 -0.3261 -1.1619  0.3534
   8223SM    OF10929   3.061   4.946   2.875 -0.1267 -0.1973  0.1444
   8223SM   C2F10930   3.132   5.032   3.088 -0.0576  0.0652  0.1626
   8223SM   H2F10931   3.120   5.142   3.078  1.2387  0.2840  0.7641
   8223SM   H2G10932   3.220   5.030   3.156  0.4192  1.5035 -0.3677
   8223SM   C3F10933   3.018   4.968   3.164 -0.4402 -0.4047 -0.4435
   8223SM   H3F10934   3.049   4.862   3.179  1.2439 -0.1113 -1.6039
   8223SM   H3G10935   2.929   4.970   3.098 -1.5314 -0.9630  0.9534
   8223SM   C4F10936   2.988   5.052   3.292  0.0676 -0.3100  0.2107
   8223SM   H4F10937   2.884   5.030   3.323 -0.6735  1.8147 -0.5914
   8223SM   H4G10938   2.996   5.157   3.258 -0.6010 -0.2083  0.3508
   8223SM   C5F10939   3.086   5.037   3.416  0.6119 -0.1414  0.1016
   8223SM   H5F10940   3.191   5.052   3.383  0.7299  0.0412  0.5590
   8223SM   H5G10941   3.074   4.935   3.456  1.0595  0.8842  3.0855
   8223SM   C6F10942   3.042   5.125   3.527  0.4241 -0.7434 -0.5097
   8223SM   H6F10943   2.959   5.076   3.582 -0.2419  0.0114 -0.8238
   8223SM   H6G10944   3.018   5.228   3.491  1.7415  0.2208  1.2142
   8223SM   C7F10945   3.149   5.144   3.633  0.2074  0.1333  0.5713
   8223SM   H7F10946   3.229   5.194   3.575 -2.3569  2.7996 -0.9353
   8223SM   H7G10947   3.183   5.044   3.667  2.7892  0.7283 -0.1072
   8223SM   C8F10948   3.096   5.225   3.755 -0.2179 -0.9682 -0.6441
   8223SM   H8F10949   3.026   5.158   3.809  0.9026 -0.9751  0.8292
   8223SM   H8G10950   3.043   5.315   3.716  1.8186  0.5609 -0.0284
   8223SM   C9F10951   3.213   5.269   3.842  0.5008 -0.1998  0.1114
   8223SM   H9F10952   3.299   5.301   3.780 -1.1305  2.2520 -1.0571
   8223SM   H9G10953   3.243   5.177   3.895  0.2449 -0.7472 -0.6772
   8223SM  C10F10954   3.183   5.359   3.958 -0.0909 -0.2040  0.5432
   8223SM  H10F10955   3.102   5.324   4.025 -1.9187  1.1022 -0.9034
   8223SM  H10G10956   3.156   5.460   3.919 -1.0027 -1.4040 -2.1406
   8223SM  C11F10957   3.291   5.391   4.056 -0.1582 -0.5259  0.1108
   8223SM  H11F10958   3.371   5.437   3.993 -1.2190  2.0675  0.5789
   8223SM  H11G10959   3.328   5.290   4.086 -1.2687 -1.1885 -0.6533
   8223SM  C12F10960   3.255   5.480   4.173 -0.6092 -0.8333  0.0520
   8223SM  H12F10961   3.166   5.433   4.221 -0.1235  0.4630  2.3830
   8223SM  H12G10962   3.218   5.576   4.132 -1.8994  0.0873  3.0813
   8223SM  C13F10963   3.373   5.512   4.265 -0.7090  0.2560 -0.2146
   8223SM  H13F10964   3.435   5.594   4.223 -0.2353 -0.2107 -0.4398
   8223SM  H13G10965   3.435   5.422   4.283 -1.9586 -0.2308  2.0946
   8223SM  C14F10966   3.326   5.568   4.405  0.2799 -0.6567  0.0814
   8223SM  H14F10967   3.425   5.602   4.445 -0.5790  2.0121  0.1356
   8223SM  H14G10968   3.271   5.490   4.461  0.7652 -1.5621 -0.6695
   8223SM  C15F10969   3.245   5.692   4.395  0.0997 -0.2813 -0.1189
   8223SM  H15F10970   3.136   5.667   4.397 -0.0523  0.3897  0.2001
   8223SM  H15G10971   3.290   5.746   4.309  0.2838  0.7989  0.6334
   8223SM  C16F10972   3.239   5.766   4.529  0.0922  0.5190 -0.3729
   8223SM  H16F10973   3.340   5.808   4.547  0.5824 -0.9097  0.3838
   8223SM  H16G10974   3.216   5.702   4.617 -0.3976  0.7655 -0.3155
   8223SM  C17F10975   3.136   5.875   4.543  0.0766 -0.2972 -0.2707
   8223SM  H17F10976   3.172   5.929   4.633  0.5775 -0.4722 -0.3610
   8223SM  H17G10977   3.041   5.821   4.561  0.3442 -0.8965 -0.6421
   8223SM  C18F10978   3.127   5.989   4.440 -0.5406 -0.0185 -0.0124
   8223SM  H18F10979   3.090   5.935   4.350 -0.0542 -1.2562  0.4966
   8223SM  H18G10980   3.230   6.027   4.424 -1.4013  2.1863 -0.6100
   8223SM  C19F10981   3.021   6.090   4.480 -0.0486 -0.1232 -0.2770
   8223SM  H19F10982   3.060   6.126   4.577  0.9721 -0.1078 -0.6862
   8223SM  H19G10983   2.918   6.050   4.492 -0.3553  0.9592  1.0202
   8223SM  C20F10984   3.024   6.209   4.376 -0.0849 -0.3687 -0.0475
   8223SM  H20F10985   2.970   6.190   4.280  1.1435  0.3653 -0.9203
   8223SM  H20G10986   3.128   6.234   4.347  0.8033 -0.8406  2.5465
   8223SM  C21F10987   2.963   6.339   4.426 -0.1473  0.4384  0.6583
   8223SM  H21F10988   3.031   6.358   4.511  0.9255 -2.0366  0.4521
   8223SM  H21G10989   2.857   6.325   4.456 -0.0170 -1.8091  0.2708
   8223SM  C22F10990   2.957   6.447   4.317  0.4881  0.4632  0.0395
   8223SM  H22F10991   2.874   6.431   4.244 -0.2972  2.3089  0.4910
   8223SM  H22G10992   3.049   6.418   4.261 -0.5178 -2.4973 -0.2587
   8223SM  C23F10993   2.960   6.590   4.370 -0.0973 -0.4010 -0.1120
   8223SM  H23F10994   2.960   6.669   4.292  0.0749 -0.7866 -0.5063
   8223SM  H23G10995   3.044   6.598   4.442  0.8952  1.2434 -1.3848
   8223SM  H23H10996   2.866   6.604   4.428  0.1185  0.6902 -0.0070
   8323SM     N10997   3.225   4.239   2.488 -0.2439 -0.0189  0.0636
   8323SM   C1510998   3.184   4.103   2.456  0.1198  0.0802  0.3279
   8323SM  H15A10999   3.187   4.047   2.548  1.4192  1.2798  1.0511
   8323SM  H15B11000   3.253   4.057   2.387  1.6202 -0.1743  1.9384
   8323SM  H15C11001   3.086   4.105   2.409  0.3083  0.0785 -0.0694
   8323SM   C1411002   3.261   4.308   2.362  0.4690 -0.2404  0.3441
   8323SM  H14A11003   3.182   4.297   2.289 -0.2722  1.3596  0.8631
   8323SM  H14B11004   3.341   4.269   2.301  1.7261  0.9444  1.1697
   8323SM  H14C11005   3.255   4.416   2.365  0.2529 -0.2112 -0.6212
   8323SM   C1311006   3.109   4.317   2.537 -1.1072 -0.1313 -0.2352
   8323SM  H13A11007   3.033   4.326   2.461  0.3186 -0.9299 -1.8165
   8323SM  H13B11008   3.138   4.421   2.551 -1.9307  0.1572 -0.5887
   8323SM  H13C11009   3.073   4.278   2.631 -2.3993 -0.1361 -0.7176
   8323SM   C1211010   3.344   4.247   2.587 -0.2358 -0.0580  0.8828
   8323SM  H12A11011   3.373   4.351   2.592 -1.3051  0.1923  2.3242
   8323SM  H12B11012   3.434   4.198   2.555  0.7457  0.3377  2.9105
   8323SM   C1111013   3.327   4.191   2.727 -0.5548  0.7847  0.1913
   8323SM  H11A11014   3.240   4.224   2.787 -1.2883 -0.7749  0.0272
   8323SM  H11B11015   3.415   4.214   2.791  0.6071  0.1179 -1.1141
   8323SM     P11016   3.429   3.951   2.739  0.6581 -0.0784  0.3870
   8323SM   O1311017   3.394   3.815   2.694  0.9157  0.5503  0.2105
   8323SM   O1411018   3.553   4.007   2.694 -0.6761 -0.2649  0.1953
   8323SM   O1111019   3.423   3.948   2.897  0.1279 -0.0197  0.6267
   8323SM   O1211020   3.304   4.049   2.709 -0.0760 -0.5486 -0.2559
   8323SM   C1S11021   3.525   3.886   2.973 -0.2671 -0.7414  0.0754
   8323SM   H1S11022   3.626   3.909   2.932  0.0073  0.8512  1.5190
   8323SM   H1T11023   3.506   3.777   2.975 -2.6280 -0.3911  2.8342
   8323SM    NF11024   3.645   3.912   3.196  0.7290  0.8095  0.0829
   8323SM   HNF11025   3.625   3.851   3.271  0.9642 -0.4471 -0.8353
   8323SM   C2S11026   3.525   3.947   3.119 -0.2672 -0.1506 -0.2828
   8323SM   H2S11027   3.531   4.058   3.107 -2.0068 -0.2082 -2.1157
   8323SM   C3S11028   3.391   3.916   3.187  0.0247  0.0504  0.1737
   8323SM   H3S11029   3.376   3.805   3.185  0.4091 -0.0774  2.4952
   8323SM    O311030   3.272   3.963   3.118 -0.3788  0.1207  0.7161
   8323SM   HO311031   3.307   3.996   3.035 -0.2385 -0.3148  0.6000
   8323SM   C4S11032   3.390   3.962   3.332  0.0452  0.1451  0.7083
   8323SM   H4S11033   3.459   3.902   3.393  0.9217 -0.9678 -1.2565
   8323SM   C5S11034   3.335   4.074   3.384  0.5894 -0.6578  0.4648
   8323SM   H5S11035   3.269   4.139   3.324  2.4178  1.6374  0.7884
   8323SM   C6S11036   3.355   4.115   3.527 -0.3323 -0.2573  0.7608
   8323SM   H6S11037   3.256   4.096   3.574  0.1461 -0.6465  1.6277
   8323SM   H6T11038   3.377   4.224   3.530  1.5981 -0.6217  0.6957
   8323SM   C7S11039   3.460   4.040   3.617 -0.4762 -0.2847 -0.0085
   8323SM   H7S11040   3.555   4.064   3.566  1.5878 -1.6621  2.9336
   8323SM   H7T11041   3.449   3.929   3.620  0.0369 -0.4165 -1.7334
   8323SM   C8S11042   3.463   4.113   3.759  0.3918 -0.2050 -0.4356
   8323SM   H8S11043   3.467   4.224   3.748  2.6761 -0.2910 -0.8777
   8323SM   H8T11044   3.555   4.068   3.803 -0.2676 -0.0435  1.1936
   8323SM   C9S11045   3.345   4.075   3.848  0.0491  0.2064 -0.1613
   8323SM   H9S11046   3.321   3.968   3.830 -4.1788  0.9867 -0.3506
   8323SM   H9T11047   3.259   4.140   3.820  0.0989 -0.1535 -1.1826
   8323SM  C10S11048   3.374   4.088   3.998 -0.1311 -0.0428 -0.2833
   8323SM  H10S11049   3.369   4.196   4.023  2.7181  0.6088 -2.0574
   8323SM  H10T11050   3.469   4.037   4.026 -0.4085 -0.5569 -0.2653
   8323SM  C11S11051   3.274   4.005   4.084 -0.4779  0.1716 -0.0453
   8323SM  H11S11052   3.303   3.900   4.060 -0.8412  0.4453 -1.8778
   8323SM  H11T11053   3.173   4.023   4.041  0.5650  1.0283 -2.3464
   8323SM  C12S11054   3.286   4.027   4.231  0.8676 -0.4015  0.0389
   8323SM  H12S11055   3.232   4.119   4.264  0.3110 -0.9458  0.6990
   8323SM  H12T11056   3.390   4.046   4.264  1.9401  1.1293 -3.7022
   8323SM  C13S11057   3.200   3.923   4.302 -0.2623  0.3410 -1.1827
   8323SM  H13S11058   3.261   3.833   4.279  0.7987  0.8440 -0.4108
   8323SM  H13T11059   3.100   3.916   4.254 -0.7730  1.1263 -0.2733
   8323SM  C14S11060   3.180   3.939   4.456 -0.8292  0.0574  0.3170
   8323SM  H14S11061   3.107   3.867   4.499  0.4779 -1.5386 -0.0210
   8323SM  H14T11062   3.144   4.044   4.468 -0.8067  0.1193 -0.1475
   8323SM  C15S11063   3.314   3.925   4.541 -0.0717 -0.5685 -0.6294
   8323SM  H15S11064   3.390   3.968   4.473 -0.2581  0.1341 -0.4051
   8323SM  H15T11065   3.334   3.817   4.551 -1.3412 -0.7070  0.8089
   8323SM  C16S11066   3.307   3.992   4.681 -0.1781 -0.1845  0.0603
   8323SM  H16S11067   3.339   3.922   4.761 -0.1155 -0.3411 -0.1010
   8323SM  H16T11068   3.203   4.021   4.706  0.0608 -1.1490  2.4756
   8323SM  C17S11069   3.400   4.111   4.693  0.6570  0.2036  0.9085
   8323SM  H17S11070   3.362   4.200   4.639  1.7903 -0.6550 -1.4603
   8323SM  H17T11071   3.498   4.082   4.648  0.6252 -1.8872  2.0547
   8323SM  C18S11072   3.436   4.175   4.822  0.1806  0.4978  0.3699
   8323SM  H18S11073   3.465   4.089   4.885  0.9005  0.2616 -0.2789
   8323SM  H18T11074   3.356   4.239   4.868 -0.3433  0.5759 -0.6225
   8323SM  H18U11075   3.521   4.246   4.808  0.3402 -0.1636 -2.4679
   8323SM   C1F11076   3.766   3.954   3.171  0.3100 -0.4713 -0.5236
   8323SM    OF11077   3.789   4.019   3.070 -0.1042  0.2064  0.0686
   8323SM   C2F11078   3.865   3.902   3.264  0.1035  0.1004  0.1834
   8323SM   H2F11079   3.949   3.881   3.195  1.6491  0.8021  1.7813
   8323SM   H2G11080   3.832   3.804   3.306  0.2931 -0.3505 -0.6944
   8323SM   C3F11081   3.916   3.983   3.383 -0.6022 -0.5949 -0.7165
   8323SM   H3F11082   3.827   3.993   3.449 -0.4999 -0.4591 -0.5994
   8323SM   H3G11083   3.927   4.089   3.352 -0.4436 -0.4852 -0.2886
   8323SM   C4F11084   4.036   3.923   3.457 -0.1405  0.5038 -0.6769
   8323SM   H4F11085   4.129   3.934   3.397  0.0607  1.6355 -0.1732
   8323SM   H4G11086   4.026   3.813   3.467 -1.6004  0.7049  0.3813
   8323SM   C5F11087   4.074   3.994   3.583  0.3147 -0.5349  0.1623
   8323SM   H5F11088   4.081   4.104   3.570 -0.0363 -0.4768  0.4522
   8323SM   H5G11089   4.174   3.962   3.621  0.4678  0.0794  0.2834
   8323SM   C6F11090   3.973   3.962   3.693  0.0346  0.5821 -0.1948
   8323SM   H6F11091   3.971   3.851   3.701 -2.2355  0.6330  0.6097
   8323SM   H6G11092   3.871   3.995   3.664  0.3059 -0.6053 -2.7311
   8323SM   C7F11093   4.005   4.035   3.821 -0.3683 -0.0185  0.3896
   8323SM   H7F11094   4.033   4.140   3.799  0.4523 -0.5259 -1.1660
   8323SM   H7G11095   4.095   3.987   3.866  0.0606 -0.5595 -0.9974
   8323SM   C8F11096   3.894   4.033   3.928  0.7757 -0.0221 -0.5018
   8323SM   H8F11097   3.892   3.934   3.977 -0.0872  0.6344  0.8669
   8323SM   H8G11098   3.797   4.053   3.877  0.2197  0.4478  0.7211
   8323SM   C9F11099   3.899   4.142   4.037 -0.2821  0.3816 -0.1810
   8323SM   H9F11100   3.885   4.240   3.986 -0.4896 -0.1553 -1.1633
   8323SM   H9G11101   4.005   4.142   4.073  0.2191  2.8637 -1.4049
   8323SM  C10F11102   3.797   4.124   4.150 -0.2746  0.4766 -0.1774
   8323SM  H10F11103   3.689   4.113   4.125  0.1285 -0.5560 -1.5585
   8323SM  H10G11104   3.807   4.218   4.207 -1.8569  3.1842 -3.9609
   8323SM  C11F11105   3.825   3.995   4.239 -0.1034  0.6471  0.0298
   8323SM  H11F11106   3.934   3.977   4.253 -0.6012 -2.0238  0.9154
   8323SM  H11G11107   3.794   3.916   4.167  1.2786 -0.3468  0.4776
   8323SM  C12F11108   3.738   3.978   4.360 -0.6223 -0.9439  0.4899
   8323SM  H12F11109   3.763   3.889   4.422  0.4242 -1.0802 -0.1104
   8323SM  H12G11110   3.635   3.980   4.318 -0.3499 -2.0478 -0.2535
   8323SM  C13F11111   3.746   4.092   4.469 -0.6952  0.6637  0.1846
   8323SM  H13F11112   3.657   4.092   4.536 -1.2847  0.6100 -0.5883
   8323SM  H13G11113   3.744   4.191   4.418 -2.2271  0.4972 -0.1252
   8323SM  C14F11114   3.872   4.083   4.563 -0.4019 -0.1187  0.0226
   8323SM  H14F11115   3.957   4.095   4.492 -0.6956 -1.7143 -0.6302
   8323SM  H14G11116   3.875   3.981   4.605 -0.4063  0.3141  1.1043
   8323SM  C15F11117   3.883   4.187   4.674 -0.2178  0.4155 -0.6455
   8323SM  H15F11118   3.971   4.140   4.723 -0.1639 -2.1016 -2.9233
   8323SM  H15G11119   3.795   4.169   4.739 -0.5150 -2.0259 -1.6164
   8323SM  C16F11120   3.898   4.334   4.639 -0.2756  0.1004 -0.0780
   8323SM  H16F11121   3.822   4.354   4.560  0.8734  1.7054 -0.8275
   8323SM  H16G11122   3.999   4.357   4.598  0.2499  1.6645  1.9195
   8323SM  C17F11123   3.861   4.436   4.747 -0.4108  0.1322  0.3123
   8323SM  H17F11124   3.776   4.397   4.807 -0.0683 -0.7502  0.2332
   8323SM  H17G11125   3.837   4.532   4.695  0.7870  0.7465  0.8355
   8323SM  C18F11126   3.981   4.466   4.839 -0.2084  0.2591 -0.8950
   8323SM  H18F11127   3.966   4.534   4.925  0.4371 -0.2753 -0.3482
   8323SM  H18G11128   4.065   4.502   4.776 -0.1215  2.0108  0.1585
   8323SM  C19F11129   4.027   4.340   4.919 -0.0956 -0.2081  0.3683
   8323SM  H19F11130   4.093   4.274   4.858  0.9343  1.6721 -0.6546
   8323SM  H19G11131   3.934   4.286   4.945 -0.1883 -0.1675  0.1291
   8323SM  C20F11132   4.120   4.367   5.035  0.4342  0.1089  0.4402
   8323SM  H20F11133   4.065   4.429   5.109 -3.5429  1.2048 -3.0296
   8323SM  H20G11134   4.206   4.425   4.996  0.6560  1.2464  2.4830
   8323SM  C21F11135   4.174   4.237   5.107 -0.5778 -0.3273  0.0281
   8323SM  H21F11136   4.244   4.182   5.040  0.8424  0.2490  0.9839
   8323SM  H21G11137   4.088   4.172   5.132 -1.8890  1.0694 -0.6881
   8323SM  C22F11138   4.246   4.271   5.241  0.3000  0.5693  0.0617
   8323SM  H22F11139   4.177   4.324   5.311 -2.2890 -3.8352  1.2404
   8323SM  H22G11140   4.322   4.346   5.212 -0.6171  1.3344 -0.4400
   8323SM  C23F11141   4.316   4.154   5.312  0.2213 -0.5784 -0.1861
   8323SM  H23F11142   4.246   4.075   5.348 -0.7119  0.1633 -0.3267
   8323SM  H23G11143   4.358   4.210   5.398 -0.9468  1.5900 -0.9699
   8323SM  H23H11144   4.405   4.105   5.268  2.1079  1.5631  1.0074
   8423SM     N11145   5.098   2.244   2.681 -0.5126 -1.2125 -0.0850
   8423SM   C1511146   4.962   2.284   2.646 -0.4988  0.3167 -0.6374
   8423SM  H15A11147   4.915   2.211   2.581 -1.8227  1.1170 -0.6135
   8423SM  H15B11148   4.965   2.382   2.600 -0.8017  0.9444  0.6401
   8423SM  H15C11149   4.893   2.304   2.727  2.0420 -2.6637  2.5711
   8423SM   C1411150   5.093   2.123   2.773  0.6096 -0.1657  0.0212
   8423SM  H14A11151   5.037   2.148   2.862 -0.6621 -0.5405 -0.6458
   8423SM  H14B11152   5.186   2.078   2.804 -0.5351 -1.8562  1.2321
   8423SM  H14C11153   5.041   2.050   2.712  0.1832 -0.4030  0.6517
   8423SM   C1311154   5.157   2.211   2.546 -0.2484  0.2592 -1.0651
   8423SM  H13A11155   5.263   2.196   2.562 -0.3029 -0.5533 -1.4154
   8423SM  H13B11156   5.145   2.291   2.475 -0.2795 -0.4899 -1.9297
   8423SM  H13C11157   5.105   2.120   2.518 -0.8735  0.5427 -0.8302
   8423SM   C1211158   5.180   2.355   2.754 -0.7860 -0.1947 -0.4091
   8423SM  H12A11159   5.181   2.446   2.696 -0.1799 -0.7456 -1.2972
   8423SM  H12B11160   5.282   2.323   2.746 -1.6894 -3.2839 -0.9942
   8423SM   C1111161   5.146   2.391   2.899 -0.3142 -0.3576 -0.6964
   8423SM  H11A11162   5.207   2.480   2.925  0.5802 -0.7467 -1.4136
   8423SM  H11B11163   5.195   2.320   2.970 -0.0922  1.5378  1.1527
   8423SM     P11164   4.942   2.457   3.046  0.2190 -0.2197  0.0620
   8423SM   O1311165   4.831   2.551   3.016 -0.2753 -0.5723  0.2468
   8423SM   O1411166   4.914   2.335   3.117 -0.2742  1.2359 -0.2418
   8423SM   O1111167   5.049   2.531   3.119 -0.2701 -0.1830  0.3645
   8423SM   O1211168   5.010   2.421   2.910 -0.0348 -0.0700 -0.2483
   8423SM   C1S11169   5.017   2.574   3.260 -0.6791  0.8113 -0.0503
   8423SM   H1S11170   4.910   2.601   3.273 -1.0218  0.7317 -2.3649
   8423SM   H1T11171   5.070   2.668   3.287 -1.7612  0.8582  2.1893
   8423SM    NF11172   5.004   2.491   3.493 -0.2354  0.4966 -0.2809
   8423SM   HNF11173   5.071   2.505   3.565  1.0683  0.2122 -1.4009
   8423SM   C2S11174   5.059   2.463   3.361  0.9429  0.5914  1.2483
   8423SM   H2S11175   5.018   2.368   3.320  2.6614 -0.1466  1.1361
   8423SM   C3S11176   5.214   2.438   3.343 -0.0348 -0.5079 -0.1792
   8423SM   H3S11177   5.266   2.535   3.352  1.9783 -1.6562  1.2476
   8423SM    O311178   5.251   2.372   3.219  0.9304 -0.1825  0.2186
   8423SM   HO311179   5.175   2.391   3.164 -0.5043 -0.0774  2.1195
   8423SM   C4S11180   5.262   2.362   3.455  0.2176  0.2452  0.2222
   8423SM   H4S11181   5.199   2.278   3.487 -0.4778  0.8117  0.3565
   8423SM   C5S11182   5.376   2.388   3.527  0.4945 -0.1238 -0.1890
   8423SM   H5S11183   5.444   2.464   3.486 -0.2580 -0.2733 -1.8304
   8423SM   C6S11184   5.422   2.307   3.641 -0.4643  0.6485 -0.4741
   8423SM   H6S11185   5.530   2.281   3.635 -0.6944 -0.4129 -0.3030
   8423SM   H6T11186   5.372   2.208   3.654 -0.4126  0.5360 -1.1030
   8423SM   C7S11187   5.418   2.365   3.786  0.0862  0.3336  0.8229
   8423SM   H7S11188   5.469   2.464   3.779 -1.4580  1.0857 -0.9680
   8423SM   H7T11189   5.467   2.298   3.859  1.2781  0.5579  0.2665
   8423SM   C8S11190   5.271   2.377   3.827  0.2805 -0.7065 -0.1809
   8423SM   H8S11191   5.229   2.275   3.835 -0.1926 -0.4724  0.4246
   8423SM   H8T11192   5.216   2.436   3.750 -0.7700 -0.2039  0.9168
   8423SM   C9S11193   5.253   2.446   3.964  0.8911 -0.4190  0.2784
   8423SM   H9S11194   5.154   2.494   3.978  1.7919  1.6865 -0.1183
   8423SM   H9T11195   5.315   2.538   3.976 -2.1989  2.0142 -0.9524
   8423SM  C10S11196   5.278   2.337   4.072 -0.0520  0.2783  0.3386
   8423SM  H10S11197   5.334   2.253   4.027  0.5605 -0.8358  3.0132
   8423SM  H10T11198   5.188   2.289   4.117  0.0244  1.8015  2.2641
   8423SM  C11S11199   5.367   2.389   4.191 -0.3983 -0.4351 -0.4512
   8423SM  H11S11200   5.469   2.411   4.153 -0.0518  0.6940  1.0490
   8423SM  H11T11201   5.374   2.300   4.258 -0.2210 -1.7112 -2.0850
   8423SM  C12S11202   5.313   2.512   4.266  0.3835  0.1096  0.5217
   8423SM  H12S11203   5.226   2.564   4.221 -0.8019 -2.3349 -0.2048
   8423SM  H12T11204   5.390   2.592   4.274 -0.0670  1.2846 -4.0075
   8423SM  C13S11205   5.272   2.479   4.409 -0.5960  0.1339  0.1795
   8423SM  H13S11206   5.362   2.430   4.451  0.7287  0.2343 -2.3291
   8423SM  H13T11207   5.182   2.414   4.409  0.6378 -1.6611  1.0017
   8423SM  C14S11208   5.232   2.612   4.470  0.1689  0.0678 -0.8260
   8423SM  H14S11209   5.138   2.644   4.420  0.1364  2.4220  0.5361
   8423SM  H14T11210   5.312   2.687   4.449  0.8763 -0.4433 -0.0313
   8423SM  C15S11211   5.197   2.594   4.617  0.2946 -0.6827  0.4189
   8423SM  H15S11212   5.276   2.554   4.684 -0.6600 -0.4249  1.7450
   8423SM  H15T11213   5.109   2.526   4.617  0.6954 -1.2485 -1.1424
   8423SM  C16S11214   5.155   2.719   4.698 -0.0282  0.7333  0.4144
   8423SM  H16S11215   5.070   2.762   4.640  1.0860  1.8846 -0.4182
   8423SM  H16T11216   5.243   2.787   4.690 -0.0200  0.7105  0.3144
   8423SM  C17S11217   5.108   2.696   4.839  0.4931 -0.0526 -0.1090
   8423SM  H17S11218   5.010   2.644   4.835  0.7359 -0.5245  0.0217
   8423SM  H17T11219   5.081   2.796   4.880  0.7641 -0.1291  0.2565
   8423SM  C18S11220   5.209   2.631   4.929  0.8649 -0.0330  0.0066
   8423SM  H18S11221   5.306   2.683   4.917  0.3902  1.0825  0.8940
   8423SM  H18T11222   5.213   2.528   4.885 -0.6799 -0.5756  1.0637
   8423SM  H18U11223   5.187   2.624   5.037  1.8670  3.6655  0.5815
   8423SM   C1F11224   4.871   2.472   3.524 -0.1571  0.2464 -0.1440
   8423SM    OF11225   4.792   2.428   3.443  0.2200 -0.4286  0.4681
   8423SM   C2F11226   4.840   2.516   3.663 -0.2805 -0.3044  0.3477
   8423SM   H2F11227   4.884   2.616   3.678 -0.5953 -0.0711 -0.2479
   8423SM   H2G11228   4.896   2.452   3.735  0.2081  0.7735  0.9428
   8423SM   C3F11229   4.696   2.514   3.684 -0.0919  0.2915 -0.1078
   8423SM   H3F11230   4.663   2.408   3.694  0.0220  0.2730  0.0747
   8423SM   H3G11231   4.643   2.559   3.598 -0.7652  0.0056  0.1496
   8423SM   C4F11232   4.650   2.599   3.798  0.2129 -0.0946 -0.2387
   8423SM   H4F11233   4.679   2.704   3.777  1.4801 -0.1438  1.1197
   8423SM   H4G11234   4.702   2.571   3.892  0.5891 -1.4150 -0.8247
   8423SM   C5F11235   4.497   2.582   3.839 -0.1848  0.2769 -0.2984
   8423SM   H5F11236   4.485   2.477   3.873 -0.6641  0.8404  1.3690
   8423SM   H5G11237   4.440   2.606   3.747 -0.1537 -0.9682 -0.6697
   8423SM   C6F11238   4.449   2.669   3.955  0.3195 -0.5371 -0.9508
   8423SM   H6F11239   4.339   2.661   3.971  0.3599 -1.4391 -1.1064
   8423SM   H6G11240   4.461   2.774   3.921  1.1712  0.1397  1.2487
   8423SM   C7F11241   4.511   2.640   4.093  1.0309  1.0094  0.3314
   8423SM   H7F11242   4.621   2.651   4.097  1.0285  0.8114  1.1545
   8423SM   H7G11243   4.474   2.537   4.113 -0.1326  1.6418  1.6210
   8423SM   C8F11244   4.460   2.742   4.199  0.6092  0.4303  1.0863
   8423SM   H8F11245   4.349   2.748   4.195  0.5087 -0.9665  1.4138
   8423SM   H8G11246   4.503   2.844   4.191  1.7297  0.0510  2.0205
   8423SM   C9F11247   4.471   2.687   4.339  0.2654  0.1614 -0.2764
   8423SM   H9F11248   4.577   2.662   4.359  0.6787  0.1666 -2.1961
   8423SM   H9G11249   4.411   2.594   4.349 -0.0190  0.0770 -2.2375
   8423SM  C10F11250   4.411   2.785   4.442 -0.5774  0.1745  0.2168
   8423SM  H10F11251   4.327   2.846   4.405 -1.8786 -0.8801  1.3371
   8423SM  H10G11252   4.493   2.858   4.457 -0.1973  0.6236 -3.3114
   8423SM  C11F11253   4.365   2.718   4.567  0.6418 -0.3736  0.3906
   8423SM  H11F11254   4.455   2.684   4.622 -1.2409 -2.9834  2.0676
   8423SM  H11G11255   4.302   2.630   4.546  0.7671 -0.2531 -0.5438
   8423SM  C12F11256   4.286   2.807   4.660 -0.0650  0.1754  0.2373
   8423SM  H12F11257   4.180   2.814   4.626 -0.2245  0.2737  0.7400
   8423SM  H12G11258   4.323   2.911   4.652 -2.9289  1.3273  0.5981
   8423SM  C13F11259   4.290   2.762   4.805 -0.6611  0.1405  0.0258
   8423SM  H13F11260   4.395   2.760   4.839 -0.9920 -1.1090  1.0469
   8423SM  H13G11261   4.251   2.657   4.804 -0.4991  0.0376  1.6824
   8423SM  C14F11262   4.214   2.863   4.894 -0.1621 -0.7518  0.1865
   8423SM  H14F11263   4.107   2.876   4.864 -0.1903  0.8308  0.9014
   8423SM  H14G11264   4.254   2.963   4.870 -2.9455  0.6600  1.0760
   8423SM  C15F11265   4.232   2.836   5.045  0.5575 -0.0671 -0.0405
   8423SM  H15F11266   4.339   2.820   5.071  1.5248  1.2314 -2.8223
   8423SM  H15G11267   4.170   2.745   5.065  2.4839 -1.2997  0.5974
   8423SM  C16F11268   4.158   2.938   5.140 -0.1180  0.8406  0.7382
   8423SM  H16F11269   4.175   2.890   5.239  1.7966 -1.5805 -0.6651
   8423SM  H16G11270   4.055   2.951   5.102 -0.2444  4.4048  1.8836
   8423SM  C17F11271   4.219   3.076   5.145  0.0487 -0.3512  1.3079
   8423SM  H17F11272   4.194   3.111   5.043 -0.2818 -0.3731  1.3802
   8423SM  H17G11273   4.328   3.081   5.164 -0.0479 -0.8026  2.0271
   8423SM  C18F11274   4.150   3.170   5.247  0.9439  0.4505 -0.1095
   8423SM  H18F11275   4.179   3.151   5.352 -0.9105 -0.1105  0.3457
   8423SM  H18G11276   4.040   3.158   5.236  0.6760  1.9745  0.7017
   8423SM  C19F11277   4.196   3.310   5.226 -0.4910  0.3527  0.0556
   8423SM  H19F11278   4.183   3.342   5.121  1.7148  0.1530 -0.3204
   8423SM  H19G11279   4.305   3.315   5.244 -0.6770  1.8021  0.8981
   8423SM  C20F11280   4.122   3.420   5.306 -0.6046 -0.0425 -0.7467
   8423SM  H20F11281   4.155   3.413   5.412 -0.2701 -2.2631 -0.9446
   8423SM  H20G11282   4.014   3.396   5.299 -0.2567 -1.5535 -1.4098
   8423SM  C21F11283   4.148   3.560   5.245  0.3777  0.5860  0.7340
   8423SM  H21F11284   4.108   3.539   5.143  0.4150  0.7885  0.6764
   8423SM  H21G11285   4.251   3.597   5.229  0.5481 -0.2514 -0.2368
   8423SM  C22F11286   4.063   3.673   5.309  0.2086  0.3991  0.7985
   8423SM  H22F11287   3.969   3.625   5.341  0.9795 -1.3130  0.5810
   8423SM  H22G11288   4.044   3.748   5.228  0.5031  0.0357  0.3889
   8423SM  C23F11289   4.140   3.752   5.418 -0.2242  0.1943  0.4424
   8423SM  H23F11290   4.206   3.833   5.381  0.5384 -0.2962  0.7192
   8423SM  H23G11291   4.211   3.683   5.466 -0.3393  2.0734  3.5852
   8423SM  H23H11292   4.065   3.805   5.481  0.0705 -0.1593  1.1020
   8523SM     N11293   4.710   3.925   2.729  0.2717 -0.0214  0.4445
   8523SM   C1511294   4.584   3.843   2.704 -0.0331 -0.1239  1.0312
   8523SM  H15A11295   4.606   3.747   2.661  0.1661 -0.0565  0.9826
   8523SM  H15B11296   4.503   3.884   2.645  0.6343  0.0445  0.2061
   8523SM  H15C11297   4.537   3.815   2.797 -0.1918  0.0677  1.0105
   8523SM   C1411298   4.771   3.960   2.596 -0.1293  0.2344 -0.2259
   8523SM  H14A11299   4.809   3.877   2.537 -1.9664  1.1966 -2.9414
   8523SM  H14B11300   4.847   4.035   2.610 -0.9356  1.5251 -2.2897
   8523SM  H14C11301   4.700   4.001   2.526  1.6259  0.9138 -1.7188
   8523SM   C1311302   4.678   4.051   2.806 -0.4095  0.8944  0.7150
   8523SM  H13A11303   4.637   4.033   2.904 -0.8578  0.1229  0.3846
   8523SM  H13B11304   4.607   4.117   2.759 -1.3143  0.2923  1.2177
   8523SM  H13C11305   4.766   4.114   2.815  0.1860  0.2656 -0.4354
   8523SM   C1211306   4.807   3.838   2.807 -0.7073  0.3955  0.3504
   8523SM  H12A11307   4.768   3.802   2.901 -0.7760 -3.2384 -0.8937
   8523SM  H12B11308   4.891   3.898   2.839 -1.5393 -0.1048  3.9192
   8523SM   C1111309   4.868   3.717   2.734  0.0039  0.0303  0.6048
   8523SM  H11A11310   4.783   3.662   2.688  0.3851 -0.1381  0.0911
   8523SM  H11B11311   4.921   3.650   2.805  0.4744 -0.1878  0.0606
   8523SM     P11312   5.111   3.743   2.634  0.4243 -0.1856  0.3014
   8523SM   O1311313   5.151   3.607   2.585 -0.0573 -0.2020 -0.2446
   8523SM   O1411314   5.179   3.854   2.564 -0.4261 -0.5209  0.1139
   8523SM   O1111315   5.127   3.760   2.793 -0.1913  0.4243 -0.1957
   8523SM   O1211316   4.958   3.753   2.628 -0.0641 -0.0524  0.3090
   8523SM   C1S11317   5.256   3.718   2.852  1.4434  0.3555  0.3954
   8523SM   H1S11318   5.335   3.714   2.773  1.1220 -2.7116  0.0899
   8523SM   H1T11319   5.265   3.614   2.888  0.5815  0.7848  1.9310
   8523SM    NF11320   5.427   3.772   3.021 -0.2627  0.3131  0.0795
   8523SM   HNF11321   5.422   3.725   3.108  0.5280  2.3358  1.2999
   8523SM   C2S11322   5.299   3.817   2.972  0.7734  0.4327 -0.4521
   8523SM   H2S11323   5.301   3.919   2.929  1.6896  0.0172 -1.4473
   8523SM   C3S11324   5.184   3.813   3.086 -0.3094 -0.1132  0.2044
   8523SM   H3S11325   5.161   3.707   3.112 -0.3201  0.5827  3.5958
   8523SM    O311326   5.060   3.851   3.027  0.1894 -0.0540 -0.4115
   8523SM   HO311327   5.097   3.831   2.941 -0.7770  0.9726 -1.0886
   8523SM   C4S11328   5.213   3.886   3.212 -0.0210  0.1631  0.8093
   8523SM   H4S11329   5.224   3.995   3.200 -0.0670  0.1039  0.1767
   8523SM   C5S11330   5.213   3.831   3.329 -0.5519 -0.7106 -0.2308
   8523SM   H5S11331   5.202   3.722   3.344  2.9917 -1.3247 -1.1456
   8523SM   C6S11332   5.219   3.903   3.459  0.5824  0.0497 -0.6158
   8523SM   H6S11333   5.325   3.911   3.490 -0.1651 -0.5961  2.4258
   8523SM   H6T11334   5.173   3.837   3.536 -0.6346 -0.9027 -2.1177
   8523SM   C7S11335   5.159   4.048   3.457 -0.2522 -0.1390  0.3787
   8523SM   H7S11336   5.053   4.051   3.424 -0.2591 -0.7044  0.3350
   8523SM   H7T11337   5.215   4.109   3.384  0.9613 -1.9259 -0.2337
   8523SM   C8S11338   5.171   4.112   3.589  1.0206 -0.5173  0.2028
   8523SM   H8S11339   5.186   4.221   3.569  0.5667 -0.5612 -0.3891
   8523SM   H8T11340   5.259   4.068   3.640 -0.4602 -1.3486  2.1622
   8523SM   C9S11341   5.047   4.090   3.679 -0.1602  0.5100  1.2630
   8523SM   H9S11342   5.049   3.982   3.706 -0.9140  0.1198 -0.1306
   8523SM   H9T11343   4.958   4.099   3.613 -0.0229  1.4358  1.1907
   8523SM  C10S11344   5.043   4.176   3.802 -0.0430 -0.0371 -0.8441
   8523SM  H10S11345   5.018   4.281   3.775 -2.0780 -0.3528 -0.3184
   8523SM  H10T11346   5.146   4.183   3.845 -0.5643  0.0318  0.4635
   8523SM  C11S11347   4.935   4.128   3.904 -0.1718 -0.6603 -0.6082
   8523SM  H11S11348   4.972   4.036   3.953  0.6163  0.2320  0.5194
   8523SM  H11T11349   4.833   4.119   3.860 -1.3637 -0.1939  1.9102
   8523SM  C12S11350   4.931   4.233   4.014 -0.3759  0.1479 -0.8947
   8523SM  H12S11351   4.890   4.319   3.957 -0.7343  0.6821  0.1452
   8523SM  H12T11352   5.035   4.243   4.051 -0.7710 -0.5507  0.4888
   8523SM  C13S11353   4.832   4.209   4.135 -0.1146 -0.2962  0.7663
   8523SM  H13S11354   4.881   4.253   4.225 -1.1800  1.6600  0.4415
   8523SM  H13T11355   4.831   4.100   4.158  1.2105 -0.3173  0.8426
   8523SM  C14S11356   4.694   4.279   4.130  0.1891 -0.4380  0.1038
   8523SM  H14S11357   4.638   4.232   4.214 -1.8723 -1.7468 -1.8680
   8523SM  H14T11358   4.648   4.248   4.033 -1.2372  0.9708  0.3038
   8523SM  C15S11359   4.697   4.429   4.152  0.1459 -0.7007 -0.0413
   8523SM  H15S11360   4.618   4.468   4.085 -0.5998 -0.0591  1.1804
   8523SM  H15T11361   4.785   4.490   4.122  1.9417 -1.3358  3.4460
   8523SM  C16S11362   4.672   4.469   4.306  0.5920  0.0614  0.3817
   8523SM  H16S11363   4.750   4.410   4.359  0.2258 -2.0645 -1.3006
   8523SM  H16T11364   4.578   4.418   4.337  1.5249 -0.8437  1.8099
   8523SM  C17S11365   4.681   4.617   4.339  0.0686  0.1452  0.1254
   8523SM  H17S11366   4.607   4.679   4.285  0.3078  0.8602  0.5938
   8523SM  H17T11367   4.780   4.654   4.303 -0.5051  0.2703 -1.3935
   8523SM  C18S11368   4.675   4.632   4.495 -0.1980  0.7105  0.0306
   8523SM  H18S11369   4.758   4.577   4.543 -0.3773 -1.5966 -2.1334
   8523SM  H18T11370   4.582   4.586   4.534  0.6046  0.1276  1.2971
   8523SM  H18U11371   4.684   4.739   4.525 -0.3401  1.1417 -1.3828
   8523SM   C1F11372   5.539   3.777   2.953 -0.4039 -0.6258 -0.1035
   8523SM    OF11373   5.551   3.840   2.850 -0.7576 -0.1537 -0.4337
   8523SM   C2F11374   5.653   3.691   2.999 -0.0300  0.0728  0.6194
   8523SM   H2F11375   5.678   3.653   2.897  1.0265 -1.1720  1.3128
   8523SM   H2G11376   5.636   3.602   3.062 -0.2018  0.3584  0.9820
   8523SM   C3F11377   5.766   3.776   3.058  0.0781  0.2570  0.2847
   8523SM   H3F11378   5.785   3.859   2.987  0.6977 -1.9984 -2.3672
   8523SM   H3G11379   5.855   3.709   3.058 -1.0688 -1.3571 -1.0018
   8523SM   C4F11380   5.736   3.825   3.196  0.0014  0.9746 -0.0520
   8523SM   H4F11381   5.638   3.876   3.199 -0.2681  0.6893 -2.5331
   8523SM   H4G11382   5.818   3.894   3.225  2.5580 -1.9649  0.3389
   8523SM   C5F11383   5.731   3.717   3.310 -0.1860 -0.0462  1.1214
   8523SM   H5F11384   5.828   3.668   3.291  0.3294  1.2836  0.2005
   8523SM   H5G11385   5.647   3.644   3.305 -0.2424 -0.0112  1.4873
   8523SM   C6F11386   5.714   3.776   3.450 -0.2060  0.1420 -0.3853
   8523SM   H6F11387   5.606   3.780   3.476  0.1390 -3.4110  2.5276
   8523SM   H6G11388   5.756   3.878   3.444  2.6694 -0.6766  2.3867
   8523SM   C7F11389   5.778   3.684   3.563  0.1149 -0.3209  0.2417
   8523SM   H7F11390   5.862   3.623   3.523  0.4806 -0.2826  0.9357
   8523SM   H7G11391   5.708   3.609   3.606  1.6744 -1.4644  0.8777
   8523SM   C8F11392   5.823   3.767   3.682  0.5088 -0.6170 -0.3640
   8523SM   H8F11393   5.742   3.813   3.741  0.1999  0.6482 -1.7165
   8523SM   H8G11394   5.886   3.847   3.637  1.1276 -2.6060 -3.3623
   8523SM   C9F11395   5.913   3.687   3.775 -0.4864 -0.0409  0.4481
   8523SM   H9F11396   6.000   3.650   3.717 -0.6283  0.5771 -0.1724
   8523SM   H9G11397   5.860   3.596   3.812 -1.1167  0.9863  2.1756
   8523SM  C10F11398   5.962   3.759   3.907  0.7979  0.2097  0.1128
   8523SM  H10F11399   5.983   3.867   3.890 -1.5510  0.6586 -0.1829
   8523SM  H10G11400   6.052   3.705   3.944 -0.9988 -1.7874  1.8770
   8523SM  C11F11401   5.854   3.769   4.014  0.5738 -0.8724 -0.9720
   8523SM  H11F11402   5.827   3.668   4.052 -1.3434 -0.5902 -1.4877
   8523SM  H11G11403   5.762   3.816   3.972 -0.0944 -1.5231 -0.2690
   8523SM  C12F11404   5.904   3.869   4.125 -0.0229 -0.6025 -0.7095
   8523SM  H12F11405   5.912   3.964   4.068  1.2641 -0.2747 -0.0202
   8523SM  H12G11406   6.007   3.836   4.150  0.1585  0.9434  0.8108
   8523SM  C13F11407   5.810   3.893   4.249 -0.4019 -0.0675  0.1438
   8523SM  H13F11408   5.827   3.796   4.300 -1.5086 -0.7705 -0.7676
   8523SM  H13G11409   5.703   3.898   4.217  0.2875 -1.1615 -2.5657
   8523SM  C14F11410   5.836   4.013   4.338  0.9866 -0.0958 -0.7197
   8523SM  H14F11411   5.853   4.107   4.280  0.9072 -0.2922 -1.0597
   8523SM  H14G11412   5.937   3.996   4.383  1.2513 -2.7894 -2.1957
   8523SM  C15F11413   5.727   4.030   4.439  0.4926  0.3173 -0.5191
   8523SM  H15F11414   5.706   3.943   4.504 -1.7617  0.3996 -1.0460
   8523SM  H15G11415   5.632   4.056   4.387 -0.0757 -1.8464 -0.6541
   8523SM  C16F11416   5.765   4.146   4.538  0.0272 -0.3393 -0.5829
   8523SM  H16F11417   5.763   4.249   4.496  0.0116  0.6947  1.8188
   8523SM  H16G11418   5.869   4.115   4.561 -0.3958 -1.4589 -0.1115
   8523SM  C17F11419   5.692   4.151   4.677  0.1872  0.4441 -0.2578
   8523SM  H17F11420   5.703   4.051   4.725  0.8002  0.8800  0.5406
   8523SM  H17G11421   5.584   4.163   4.654  0.1216 -0.0562 -0.2262
   8523SM  C18F11422   5.712   4.274   4.777  0.2315  0.7358  0.0618
   8523SM  H18F11423   5.697   4.365   4.714 -1.8185 -0.5719 -1.4677
   8523SM  H18G11424   5.811   4.281   4.827 -0.0113 -1.3174  0.9511
   8523SM  C19F11425   5.618   4.267   4.899  0.4747  1.1488  0.1753
   8523SM  H19F11426   5.643   4.178   4.960  3.3571  2.2058  0.7028
   8523SM  H19G11427   5.516   4.276   4.857  0.3777 -2.4772 -0.6356
   8523SM  C20F11428   5.641   4.370   5.013  0.1709  0.8716  1.0011
   8523SM  H20F11429   5.580   4.347   5.103  1.1503 -2.1717  0.9953
   8523SM  H20G11430   5.613   4.470   4.973  1.2186  0.2841 -1.3776
   8523SM  C21F11431   5.782   4.375   5.076  0.3055 -0.3316  1.4053
   8523SM  H21F11432   5.849   4.426   5.003 -1.5343 -2.0873 -1.7322
   8523SM  H21G11433   5.804   4.266   5.067 -2.2298 -0.7950 -0.3057
   8523SM  C22F11434   5.785   4.442   5.217 -0.0751  0.0501  0.5780
   8523SM  H22F11435   5.865   4.400   5.282  1.3656 -0.8118 -1.6375
   8523SM  H22G11436   5.689   4.408   5.261 -0.2532 -0.9052 -0.5049
   8523SM  C23F11437   5.788   4.592   5.206 -0.1297 -0.1117 -0.5360
   8523SM  H23F11438   5.882   4.622   5.156  1.5648 -0.9187  1.9817
   8523SM  H23G11439   5.784   4.646   5.303  3.5008  1.1983 -0.9635
   8523SM  H23H11440   5.703   4.631   5.146  1.5506  0.1907 -2.8865
   8623SM     N11441   5.796   1.168   2.588 -0.4606  0.0247 -0.1764
   8623SM   C1511442   5.777   1.235   2.716 -0.5189 -0.2982  0.4141
   8623SM  H15A11443   5.678   1.220   2.756 -0.7881  3.4388  1.5545
   8623SM  H15B11444   5.770   1.342   2.707  1.0568  0.1549  3.3138
   8623SM  H15C11445   5.849   1.206   2.792 -2.0467 -1.4246  1.4853
   8623SM   C1411446   5.930   1.216   2.527 -0.0408 -0.5806  0.3402
   8623SM  H14A11447   5.949   1.174   2.429 -2.1044  0.4630 -0.5989
   8623SM  H14B11448   6.019   1.176   2.572  0.0054 -1.2452 -0.3265
   8623SM  H14C11449   5.937   1.324   2.519  0.4730 -0.6781 -0.8098
   8623SM   C1311450   5.789   1.022   2.605  0.3352  0.0759  0.0194
   8623SM  H13A11451   5.870   0.981   2.665 -0.9314 -0.8099  1.1745
   8623SM  H13B11452   5.798   0.972   2.510  2.3980  0.2588  0.0648
   8623SM  H13C11453   5.697   0.990   2.652  0.1620  2.0148  1.0975
   8623SM   C1211454   5.692   1.210   2.485  0.2721 -0.2927  0.2330
   8623SM  H12A11455   5.720   1.180   2.386 -1.1094 -0.2585 -0.1776
   8623SM  H12B11456   5.698   1.318   2.480  1.3295 -0.2744  1.3132
   8623SM   C1111457   5.548   1.156   2.509  0.1916  0.0271 -0.4824
   8623SM  H11A11458   5.552   1.045   2.507  0.3317  0.0394 -1.4791
   8623SM  H11B11459   5.482   1.177   2.422  1.3443  0.7626 -1.1944
   8623SM     P11460   5.418   1.345   2.647 -0.3903 -0.2127  0.3274
   8623SM   O1311461   5.497   1.453   2.582  0.8311  0.1891  0.5111
   8623SM   O1411462   5.283   1.331   2.586 -0.2419 -0.1032  0.2244
   8623SM   O1111463   5.402   1.379   2.797 -0.5825 -0.2074  0.4476
   8623SM   O1211464   5.494   1.198   2.640 -0.5742 -0.5176 -0.7969
   8623SM   C1S11465   5.395   1.283   2.903 -0.0946  0.2539  0.1347
   8623SM   H1S11466   5.496   1.255   2.937 -0.5277  1.2002  2.3940
   8623SM   H1T11467   5.341   1.190   2.874  1.2008  0.3814 -3.1213
   8623SM    NF11468   5.336   1.264   3.140 -0.1604 -0.9739 -0.0525
   8623SM   HNF11469   5.251   1.216   3.162 -1.1288 -0.3607 -2.1760
   8623SM   C2S11470   5.321   1.356   3.026 -0.6044 -0.1081 -0.6681
   8623SM   H2S11471   5.382   1.446   3.045  0.6260 -0.6417 -1.8880
   8623SM   C3S11472   5.178   1.403   3.000  0.2658 -0.2195  0.2852
   8623SM   H3S11473   5.112   1.316   2.983  0.5535 -0.3112 -0.3677
   8623SM    O311474   5.156   1.475   2.879 -0.3228  0.5056 -0.1434
   8623SM   HO311475   5.226   1.456   2.816 -0.3622 -0.9633  0.2144
   8623SM   C4S11476   5.138   1.492   3.115  0.6310 -0.6148 -0.0915
   8623SM   H4S11477   5.064   1.440   3.177 -2.7139  2.8079 -0.8777
   8623SM   C5S11478   5.175   1.622   3.141 -0.0435 -0.6904 -0.1235
   8623SM   H5S11479   5.240   1.675   3.070 -1.4561 -0.4020 -1.2466
   8623SM   C6S11480   5.139   1.693   3.268 -0.6080 -0.1540  0.1910
   8623SM   H6S11481   5.234   1.719   3.319  0.9613  0.2356 -2.7076
   8623SM   H6T11482   5.077   1.634   3.338  0.6493 -0.4995  1.0351
   8623SM   C7S11483   5.050   1.819   3.257 -0.0943 -0.3887 -0.2258
   8623SM   H7S11484   4.959   1.780   3.208 -0.8367 -0.2113  0.9586
   8623SM   H7T11485   5.085   1.892   3.181  0.5222 -0.7444 -0.2896
   8623SM   C8S11486   5.005   1.886   3.384  0.1785 -0.5682  0.5984
   8623SM   H8S11487   4.952   1.978   3.352  0.4771  0.4954  2.9533
   8623SM   H8T11488   5.091   1.909   3.450 -0.3802 -0.8383  1.4284
   8623SM   C9S11489   4.904   1.804   3.465  0.4669 -0.2509 -0.2277
   8623SM   H9S11490   4.953   1.723   3.522 -1.5331 -0.7742  0.8282
   8623SM   H9T11491   4.833   1.761   3.391 -0.0988 -0.0184  0.1746
   8623SM  C10S11492   4.821   1.898   3.555  0.0599  0.1558  0.3673
   8623SM  H10S11493   4.745   1.837   3.607  1.3708 -0.1643  2.0089
   8623SM  H10T11494   4.769   1.970   3.488  1.1788  1.8818  1.2764
   8623SM  C11S11495   4.909   1.971   3.656 -0.0089  0.2477  0.1313
   8623SM  H11S11496   4.979   2.026   3.590  1.4827 -0.1477  1.3211
   8623SM  H11T11497   4.971   1.906   3.721  0.6861  2.6720  2.0248
   8623SM  C12S11498   4.825   2.053   3.748  0.0313  0.1398  0.3852
   8623SM  H12S11499   4.747   1.989   3.794 -0.7400  0.9295  0.2061
   8623SM  H12T11500   4.776   2.129   3.683  0.1445  1.3865  1.7072
   8623SM  C13S11501   4.911   2.121   3.862  0.4721 -0.6393  0.2944
   8623SM  H13S11502   4.969   2.197   3.807  0.5737 -2.1097 -1.7465
   8623SM  H13T11503   4.991   2.057   3.905  0.8859 -0.5482 -0.3306
   8623SM  C14S11504   4.830   2.188   3.971  0.6830  0.0257 -0.0481
   8623SM  H14S11505   4.775   2.116   4.034 -0.5280  1.5731  0.7425
   8623SM  H14T11506   4.755   2.254   3.920 -0.5754 -0.5981  0.9424
   8623SM  C15S11507   4.911   2.281   4.063 -0.4336  0.1749  0.3317
   8623SM  H15S11508   4.965   2.357   4.003 -0.3125  0.0906  0.3341
   8623SM  H15T11509   4.994   2.222   4.106  0.2898  0.3255 -0.8279
   8623SM  C16S11510   4.824   2.350   4.177 -0.2786 -0.1032  0.3939
   8623SM  H16S11511   4.740   2.290   4.216 -2.1286  1.4141 -1.0082
   8623SM  H16T11512   4.780   2.444   4.136  1.0591  0.5448  0.3843
   8623SM  C17S11513   4.911   2.397   4.291  0.3165  0.0456  0.4502
   8623SM  H17S11514   4.992   2.459   4.246 -0.4782  0.3007 -0.6581
   8623SM  H17T11515   4.969   2.310   4.328  2.2438  0.7941 -0.6467
   8623SM  C18S11516   4.846   2.471   4.406  0.1700  0.3418  0.6605
   8623SM  H18S11517   4.820   2.573   4.371  1.4455 -0.0298 -1.5554
   8623SM  H18T11518   4.895   2.461   4.505 -0.5329 -1.4554  0.8664
   8623SM  H18U11519   4.743   2.430   4.418 -1.1516  2.6093 -1.8685
   8623SM   C1F11520   5.462   1.233   3.186  0.3422 -0.4464  0.2683
   8623SM    OF11521   5.546   1.319   3.190  0.0408 -0.3948  0.0462
   8623SM   C2F11522   5.494   1.096   3.227  0.5645  0.1912  0.6061
   8623SM   H2F11523   5.555   1.051   3.146  0.0353  1.8650 -0.7719
   8623SM   H2G11524   5.401   1.035   3.226  0.3594  0.4744 -1.5694
   8623SM   C3F11525   5.566   1.089   3.358  0.3775  0.3350  0.4351
   8623SM   H3F11526   5.529   1.147   3.445  2.5181  0.5869  1.2535
   8623SM   H3G11527   5.673   1.116   3.344  0.9836 -0.4737  3.0828
   8623SM   C4F11528   5.556   0.943   3.410 -1.0491 -0.2553  0.0465
   8623SM   H4F11529   5.575   0.872   3.327 -1.1211  0.7072 -0.8114
   8623SM   H4G11530   5.458   0.922   3.459 -1.9425  0.6082 -1.2945
   8623SM   C5F11531   5.665   0.911   3.518  0.5881  0.4328 -0.2740
   8623SM   H5F11532   5.767   0.940   3.487  1.5985 -1.4398  1.1579
   8623SM   H5G11533   5.660   0.803   3.543  1.5534  0.3347 -0.4960
   8623SM   C6F11534   5.633   0.989   3.645 -0.0120 -0.5669 -0.4942
   8623SM   H6F11535   5.548   0.938   3.696 -0.1192 -1.3501 -1.4314
   8623SM   H6G11536   5.596   1.092   3.628  1.7121  0.0820 -0.5569
   8623SM   C7F11537   5.747   0.977   3.748 -0.4357 -0.2934 -0.8580
   8623SM   H7F11538   5.828   1.042   3.710 -1.1939  0.3653 -1.3695
   8623SM   H7G11539   5.795   0.877   3.757  1.3761  0.6203  0.2968
   8623SM   C8F11540   5.705   1.026   3.893  0.3352  0.6744  0.2279
   8623SM   H8F11541   5.608   0.978   3.916  0.1398  0.8998 -0.1099
   8623SM   H8G11542   5.693   1.135   3.873 -0.7496  0.5619  0.2415
   8623SM   C9F11543   5.816   0.988   3.992 -0.0128 -0.6716  0.5742
   8623SM   H9F11544   5.852   0.886   3.967 -0.3716 -0.2490 -2.0195
   8623SM   H9G11545   5.768   0.980   4.092 -0.1039 -0.1965  0.5688
   8623SM  C10F11546   5.926   1.096   4.001 -0.5920 -0.1947  0.1456
   8623SM  H10F11547   5.875   1.195   3.991  1.2554  0.7586 -0.2602
   8623SM  H10G11548   5.996   1.073   3.918 -2.7759  0.2671 -1.9609
   8623SM  C11F11549   5.994   1.099   4.142  0.6314 -0.8806  0.5163
   8623SM  H11F11550   5.917   1.127   4.217  0.9227  1.1156  0.1209
   8623SM  H11G11551   6.065   1.185   4.141  0.0207 -0.3590 -0.5600
   8623SM  C12F11552   6.062   0.970   4.169  0.5547 -0.2395  0.0196
   8623SM  H12F11553   6.140   0.960   4.091  1.3783  2.2214  0.4310
   8623SM  H12G11554   5.989   0.889   4.145  0.7341  0.0780 -1.7507
   8623SM  C13F11555   6.130   0.943   4.307 -0.1838  0.1156  0.2120
   8623SM  H13F11556   6.161   0.836   4.300  1.0336  0.4277  0.6350
   8623SM  H13G11557   6.044   0.932   4.377 -1.0305 -0.1418 -0.8285
   8623SM  C14F11558   6.244   1.032   4.346 -0.2500  0.3921 -0.6268
   8623SM  H14F11559   6.277   1.103   4.267 -0.9272  1.0694 -0.3154
   8623SM  H14G11560   6.325   0.959   4.367 -0.4393  0.6123  1.0604
   8623SM  C15F11561   6.210   1.111   4.473 -0.2514  0.6607  0.1418
   8623SM  H15F11562   6.158   1.044   4.544 -0.4601 -0.2441 -0.8437
   8623SM  H15G11563   6.150   1.202   4.450  1.0834  1.9469  1.5033
   8623SM  C16F11564   6.333   1.176   4.541  0.1271  0.2053 -0.2048
   8623SM  H16F11565   6.370   1.262   4.481 -1.1232  1.2748  0.4917
   8623SM  H16G11566   6.412   1.099   4.555  3.4347  3.4330  0.3935
   8623SM  C17F11567   6.293   1.250   4.671 -1.1061  0.0348  0.1552
   8623SM  H17F11568   6.227   1.184   4.730 -0.7916  0.9434  1.5668
   8623SM  H17G11569   6.234   1.337   4.636  0.8349  1.1225 -0.6171
   8623SM  C18F11570   6.402   1.297   4.769  0.1430 -0.2490  0.0265
   8623SM  H18F11571   6.487   1.317   4.701  1.5113 -3.5314  0.5467
   8623SM  H18G11572   6.440   1.224   4.844  0.6878  1.3779  1.3936
   8623SM  C19F11573   6.365   1.434   4.828 -0.8234  0.5426 -0.4030
   8623SM  H19F11574   6.286   1.480   4.766 -3.0710 -0.6775  1.4223
   8623SM  H19G11575   6.460   1.493   4.832 -0.0692 -0.6711  0.6955
   8623SM  C20F11576   6.312   1.416   4.971 -0.1442  0.3618 -0.2138
   8623SM  H20F11577   6.384   1.358   5.032  0.9205  1.7934 -0.0521
   8623SM  H20G11578   6.218   1.357   4.968 -0.8421  1.4387 -0.5816
   8623SM  C21F11579   6.253   1.543   5.046 -0.2003  0.1251 -0.0997
   8623SM  H21F11580   6.207   1.505   5.139 -0.9055  0.6758 -0.2111
   8623SM  H21G11581   6.172   1.583   4.981 -1.0077 -2.1866 -0.5926
   8623SM  C22F11582   6.361   1.638   5.089 -0.0562  0.0607 -0.3696
   8623SM  H22F11583   6.393   1.700   5.002  0.4501 -0.7321 -0.7711
   8623SM  H22G11584   6.456   1.593   5.125  0.0157  0.5817  0.0937
   8623SM  C23F11585   6.314   1.725   5.205 -0.1703 -0.6637  0.0327
   8623SM  H23F11586   6.397   1.797   5.224  0.6365 -2.1293  2.5637
   8623SM  H23G11587   6.299   1.659   5.293  1.4849 -0.8175  0.2376
   8623SM  H23H11588   6.220   1.782   5.191 -0.2244 -0.4771  1.0483
   8723SM     N11589   6.267   1.604   2.749  0.2961 -0.1956  0.1271
   8723SM   C1511590   6.240   1.458   2.782 -0.2649  0.2335 -0.1498
   8723SM  H15A11591   6.137   1.453   2.814 -0.5775  2.7417 -0.5680
   8723SM  H15B11592   6.302   1.427   2.865 -0.7924 -0.4193  0.0091
   8723SM  H15C11593   6.256   1.400   2.692 -0.2755 -0.7207  0.4439
   8723SM   C1411594   6.408   1.625   2.727 -0.4776 -0.0090 -0.3209
   8723SM  H14A11595   6.470   1.587   2.807  0.6449  0.3694 -0.9848
   8723SM  H14B11596   6.421   1.731   2.711 -0.6936 -0.1604 -1.5531
   8723SM  H14C11597   6.444   1.581   2.636  1.0073  0.8827 -0.2004
   8723SM   C1311598   6.185   1.641   2.628 -0.2619  0.5293 -0.4555
   8723SM  H13A11599   6.215   1.580   2.544  0.3141 -0.8044  0.6650
   8723SM  H13B11600   6.190   1.746   2.603 -3.2612  1.2503  1.4666
   8723SM  H13C11601   6.080   1.623   2.642 -0.3350  1.5537  0.4901
   8723SM   C1211602   6.231   1.689   2.872  0.1210  0.3842 -0.1699
   8723SM  H12A11603   6.273   1.786   2.850  3.0093 -1.1884 -2.4334
   8723SM  H12B11604   6.292   1.641   2.947  0.6059  0.1232 -0.7132
   8723SM   C1111605   6.088   1.694   2.923  0.4531 -0.1979 -0.2779
   8723SM  H11A11606   6.094   1.764   3.009 -1.6228  0.6826 -0.7748
   8723SM  H11B11607   6.047   1.600   2.965 -0.6605  1.5545  2.9680
   8723SM     P11608   5.969   1.897   2.796  0.0418 -0.0216 -0.4539
   8723SM   O1311609   6.092   1.961   2.746 -0.5042 -0.1063 -0.0872
   8723SM   O1411610   5.852   1.914   2.708  0.0519  0.7790 -0.0308
   8723SM   O1111611   5.926   1.951   2.938 -0.8503  0.6725  0.1820
   8723SM   O1211612   6.001   1.742   2.812  0.3135  0.0864 -1.0060
   8723SM   C1S11613   5.802   1.904   2.991 -0.5835 -0.0582  0.0549
   8723SM   H1S11614   5.813   1.798   3.025  1.7516  0.0084 -0.3159
   8723SM   H1T11615   5.716   1.906   2.921 -0.3876 -0.2356 -0.1933
   8723SM    NF11616   5.644   1.946   3.187  0.2323  0.3313  0.8804
   8723SM   HNF11617   5.558   1.996   3.183  0.1676  0.1589 -0.1176
   8723SM   C2S11618   5.754   1.993   3.113  0.0463 -0.3611 -0.1884
   8723SM   H2S11619   5.840   1.994   3.184 -0.3251  0.4414  0.2638
   8723SM   C3S11620   5.731   2.132   3.054 -0.4623  0.4395  0.4219
   8723SM   H3S11621   5.637   2.120   2.996  1.2845 -1.5787 -2.2548
   8723SM    O311622   5.817   2.181   2.946 -0.5434 -0.5440  0.4561
   8723SM   HO311623   5.897   2.127   2.952 -0.0073  0.1038 -0.5637
   8723SM   C4S11624   5.712   2.234   3.162 -0.3816 -0.0099  0.7130
   8723SM   H4S11625   5.607   2.258   3.182 -1.5556 -3.3424 -0.7610
   8723SM   C5S11626   5.806   2.292   3.238 -0.0230 -0.2948 -0.2036
   8723SM   H5S11627   5.912   2.269   3.222  0.1027  1.0478 -1.4676
   8723SM   C6S11628   5.774   2.391   3.348 -0.0117  0.7566 -0.4944
   8723SM   H6S11629   5.671   2.432   3.343 -0.3528  0.0302  0.3485
   8723SM   H6T11630   5.841   2.480   3.349 -0.7405  1.3591  2.0945
   8723SM   C7S11631   5.792   2.319   3.490  0.0103  0.0617 -0.3543
   8723SM   H7S11632   5.893   2.273   3.484 -1.1285 -2.8349  0.9144
   8723SM   H7T11633   5.711   2.244   3.507 -1.3055  1.5916  0.3576
   8723SM   C8S11634   5.797   2.423   3.608 -0.8263  0.1945  0.5358
   8723SM   H8S11635   5.712   2.494   3.603  0.5972  2.0105  1.0752
   8723SM   H8T11636   5.883   2.491   3.593 -0.8382  0.3524  1.1371
   8723SM   C9S11637   5.803   2.352   3.741  0.3288 -0.3514 -0.0655
   8723SM   H9S11638   5.889   2.282   3.742  1.2469  0.7255 -0.2344
   8723SM   H9T11639   5.715   2.285   3.745  1.3254 -1.6562  1.5678
   8723SM  C10S11640   5.806   2.459   3.852  0.2054 -0.4099 -0.3299
   8723SM  H10S11641   5.717   2.521   3.830  1.0619  0.7155 -0.7504
   8723SM  H10T11642   5.886   2.537   3.855 -0.3472  0.1733 -0.5885
   8723SM  C11S11643   5.786   2.389   3.984 -0.6011  0.8475  0.0534
   8723SM  H11S11644   5.884   2.340   4.003 -0.2867  1.0980 -0.8367
   8723SM  H11T11645   5.708   2.312   3.966 -0.6310  1.0303 -0.6596
   8723SM  C12S11646   5.757   2.480   4.104  0.9318 -0.4058 -0.6815
   8723SM  H12S11647   5.662   2.537   4.091 -0.0969 -1.4819  1.5842
   8723SM  H12T11648   5.834   2.560   4.094  0.1984  0.4629  0.3109
   8723SM  C13S11649   5.755   2.414   4.243 -0.4958  0.0158  0.6918
   8723SM  H13S11650   5.836   2.339   4.259 -0.2384 -0.6496 -2.8185
   8723SM  H13T11651   5.659   2.357   4.246 -1.3696  1.4205  0.2941
   8723SM  C14S11652   5.732   2.524   4.346 -0.2203  0.3020  0.0138
   8723SM  H14S11653   5.657   2.596   4.307 -1.2893 -0.3713  0.7534
   8723SM  H14T11654   5.831   2.571   4.366  0.0760  0.3011 -1.3767
   8723SM  C15S11655   5.679   2.461   4.473  0.1956  0.2663 -0.0959
   8723SM  H15S11656   5.761   2.393   4.504  0.3992  0.2037 -0.7496
   8723SM  H15T11657   5.594   2.395   4.444  0.0488  0.1895  0.4990
   8723SM  C16S11658   5.642   2.560   4.584 -1.0148  0.8918  0.3524
   8723SM  H16S11659   5.588   2.646   4.539 -0.5279  0.2553 -1.5267
   8723SM  H16T11660   5.737   2.591   4.633 -0.7495  1.9866 -0.7760
   8723SM  C17S11661   5.546   2.497   4.685  0.6970 -0.2799 -0.4714
   8723SM  H17S11662   5.449   2.489   4.631  1.5861  1.4131 -2.4459
   8723SM  H17T11663   5.542   2.570   4.768  3.8113 -1.4659  0.8963
   8723SM  C18S11664   5.575   2.359   4.738 -0.2444 -0.0532 -0.9147
   8723SM  H18S11665   5.682   2.331   4.730 -0.0145 -0.8335  2.9719
   8723SM  H18T11666   5.511   2.281   4.691  1.1550 -1.2680 -0.8732
   8723SM  H18U11667   5.558   2.350   4.847  2.3975 -2.8016 -0.6097
   8723SM   C1F11668   5.642   1.837   3.259  0.1477  0.6823 -0.4587
   8723SM    OF11669   5.742   1.762   3.272 -0.0014  0.2356  0.0435
   8723SM   C2F11670   5.524   1.833   3.355  0.4662  0.0599  0.7474
   8723SM   H2F11671   5.467   1.741   3.326  1.0712  0.6912 -3.0076
   8723SM   H2G11672   5.459   1.923   3.353  1.2228  0.6630  2.3563
   8723SM   C3F11673   5.583   1.822   3.494  0.1044 -0.5760 -0.1364
   8723SM   H3F11674   5.647   1.912   3.508 -0.1851 -0.4259  0.2624
   8723SM   H3G11675   5.644   1.732   3.512  2.5392  0.6306 -1.8217
   8723SM   C4F11676   5.474   1.835   3.596 -0.4190  0.2297 -0.0490
   8723SM   H4F11677   5.422   1.737   3.587 -1.7549  0.9486 -0.5326
   8723SM   H4G11678   5.395   1.909   3.571  0.0866  0.2355 -1.7161
   8723SM   C5F11679   5.511   1.866   3.743 -0.2236  0.3006 -0.6431
   8723SM   H5F11680   5.550   1.969   3.739  0.3435  0.2392  1.7989
   8723SM   H5G11681   5.573   1.793   3.800 -2.7507  0.5461  2.7115
   8723SM   C6F11682   5.388   1.869   3.833  0.1834 -0.0834  0.2889
   8723SM   H6F11683   5.351   1.765   3.842  0.5879 -0.1428  1.4998
   8723SM   H6G11684   5.310   1.925   3.778 -0.0771 -2.2795 -1.7191
   8723SM   C7F11685   5.424   1.913   3.970 -0.6252  0.1098 -0.0914
   8723SM   H7F11686   5.475   2.012   3.968 -0.2120 -0.0983 -0.0491
   8723SM   H7G11687   5.498   1.836   4.001  0.7583  2.2291  2.3135
   8723SM   C8F11688   5.297   1.922   4.057 -0.3526 -0.1602  0.9587
   8723SM   H8F11689   5.240   1.827   4.052 -1.0378  0.2894 -0.3053
   8723SM   H8G11690   5.242   2.001   4.002  2.4106  0.6241 -0.9570
   8723SM   C9F11691   5.322   1.972   4.202 -0.2399 -0.2422  0.1093
   8723SM   H9F11692   5.373   2.070   4.192 -1.8541  0.7277  1.1002
   8723SM   H9G11693   5.391   1.895   4.245  1.6487  0.1208 -2.0560
   8723SM  C10F11694   5.204   1.991   4.295  0.2619 -0.2494  0.2683
   8723SM  H10F11695   5.159   1.891   4.307  1.7365 -0.7649  1.8947
   8723SM  H10G11696   5.137   2.060   4.240  0.8685 -0.2682 -0.5086
   8723SM  C11F11697   5.246   2.050   4.429  0.3089  0.9995 -0.2862
   8723SM  H11F11698   5.284   2.152   4.408 -0.3073  1.0855 -1.0054
   8723SM  H11G11699   5.337   1.993   4.454  0.3916  1.0150 -0.5506
   8723SM  C12F11700   5.125   2.063   4.519 -0.2812  0.4970  0.1838
   8723SM  H12F11701   5.069   1.967   4.524  1.4256 -0.5680 -0.4357
   8723SM  H12G11702   5.047   2.138   4.490 -3.0310 -1.7720  1.2158
   8723SM  C13F11703   5.184   2.115   4.653 -0.0753 -0.7501  0.1457
   8723SM  H13F11704   5.260   2.192   4.628  0.3665 -1.5432 -1.0421
   8723SM  H13G11705   5.243   2.035   4.703  3.1060  1.3487  0.0197
   8723SM  C14F11706   5.083   2.185   4.748 -0.0877  0.6202  0.3816
   8723SM  H14F11707   5.009   2.112   4.786 -2.1115  2.1687 -0.4308
   8723SM  H14G11708   5.032   2.260   4.684 -1.4843 -0.1461  0.5578
   8723SM  C15F11709   5.141   2.259   4.865 -0.6371 -0.0809  0.1384
   8723SM  H15F11710   5.077   2.334   4.915 -1.0896 -1.9064  2.5271
   8723SM  H15G11711   5.232   2.311   4.829 -0.8897  1.7100  1.9110
   8723SM  C16F11712   5.195   2.161   4.967  0.3379 -0.5407  0.0665
   8723SM  H16F11713   5.255   2.087   4.910 -1.9028 -0.4521 -2.5972
   8723SM  H16G11714   5.106   2.108   5.005  0.1275  0.0399  0.3921
   8723SM  C17F11715   5.275   2.227   5.086  0.2640 -0.2996 -0.5705
   8723SM  H17F11716   5.318   2.321   5.046  0.2124  0.6019  1.3889
   8723SM  H17G11717   5.362   2.161   5.107  1.3577  0.3105 -2.8540
   8723SM  C18F11718   5.192   2.269   5.213 -0.3327  0.1860  0.0089
   8723SM  H18F11719   5.133   2.177   5.232 -1.1250  0.7488  0.3502
   8723SM  H18G11720   5.127   2.356   5.189  1.3850  1.3064 -0.7921
   8723SM  C19F11721   5.285   2.304   5.333  0.0148 -0.1664  0.4764
   8723SM  H19F11722   5.220   2.371   5.392  0.8717  0.8863  0.2590
   8723SM  H19G11723   5.361   2.369   5.285  0.1386 -1.8226 -1.7767
   8723SM  C20F11724   5.350   2.195   5.408  0.1086  1.1719  0.5966
   8723SM  H20F11725   5.391   2.126   5.331 -0.2990  0.6234  0.8641
   8723SM  H20G11726   5.269   2.147   5.467 -1.1445  4.7264  2.0557
   8723SM  C21F11727   5.449   2.251   5.503  0.1097 -0.4979 -0.4956
   8723SM  H21F11728   5.516   2.325   5.455  1.4761 -0.9918  0.5670
   8723SM  H21G11729   5.517   2.171   5.538  2.0625  0.4015 -2.0589
   8723SM  C22F11730   5.394   2.312   5.633 -0.3989 -0.3848  0.3667
   8723SM  H22F11731   5.342   2.234   5.693 -0.5485 -0.9739 -0.5137
   8723SM  H22G11732   5.308   2.378   5.611  0.6642  0.1483 -2.7367
   8723SM  C23F11733   5.499   2.385   5.717  0.0892 -0.1771 -0.1319
   8723SM  H23F11734   5.467   2.416   5.819  0.7564  0.1227 -0.0115
   8723SM  H23G11735   5.545   2.470   5.662  0.6326  0.3579  1.1202
   8723SM  H23H11736   5.577   2.307   5.731 -2.0894 -2.1665  1.7524
   8823SM     N11737   1.468   2.129   3.200  0.2757 -0.2450  0.1735
   8823SM   C1511738   1.391   2.099   3.079 -0.4606  0.8341  0.0695
   8823SM  H15A11739   1.316   2.173   3.056 -1.8534 -0.0596  1.6211
   8823SM  H15B11740   1.327   2.014   3.096  0.4759  0.5234  2.3650
   8823SM  H15C11741   1.454   2.078   2.993 -0.9174 -0.1257 -0.0348
   8823SM   C1411742   1.540   2.262   3.177  0.3216 -0.0608 -0.2899
   8823SM  H14A11743   1.621   2.258   3.106  1.1155 -0.8559  0.6484
   8823SM  H14B11744   1.584   2.302   3.267 -0.9621 -2.0269  1.2840
   8823SM  H14C11745   1.472   2.339   3.141  0.9110  0.0186 -1.2868
   8823SM   C1311746   1.372   2.143   3.309  0.3168 -0.3946  0.2969
   8823SM  H13A11747   1.293   2.213   3.283 -0.0977 -0.8999  0.1687
   8823SM  H13B11748   1.423   2.191   3.391 -2.3305  0.9776  1.2581
   8823SM  H13C11749   1.334   2.048   3.345 -0.2032 -0.6803 -0.9549
   8823SM   C1211750   1.567   2.016   3.233  0.0794 -0.1811 -0.1373
   8823SM  H12A11751   1.515   1.924   3.254 -2.3709  0.8343 -1.3205
   8823SM  H12B11752   1.619   2.047   3.322  0.4238  0.2899 -0.5019
   8823SM   C1111753   1.679   1.979   3.126 -0.4210 -0.4538  0.2353
   8823SM  H11A11754   1.635   1.951   3.028  0.5462 -1.4434  0.0630
   8823SM  H11B11755   1.735   1.893   3.168  2.2302  1.6925  1.3560
   8823SM     P11756   1.898   2.091   3.183 -0.3756 -0.0248  0.1848
   8823SM   O1311757   1.978   1.985   3.127  0.1730 -0.5121  0.1058
   8823SM   O1411758   1.967   2.225   3.197 -0.1308  0.0506 -0.4835
   8823SM   O1111759   1.857   2.060   3.327  0.3123 -0.1517 -0.6286
   8823SM   O1211760   1.758   2.097   3.109 -0.6863 -0.2487 -0.5537
   8823SM   C1S11761   1.942   2.022   3.436  0.0743 -0.2208  0.3686
   8823SM   H1S11762   2.039   1.990   3.393 -0.3377  1.0061 -1.6071
   8823SM   H1T11763   1.886   1.939   3.485  0.2543 -0.7655 -0.3469
   8823SM    NF11764   2.055   2.077   3.640 -0.9508  0.2748 -0.7654
   8823SM   HNF11765   2.009   2.039   3.719 -0.6322 -0.9402 -1.1420
   8823SM   C2S11766   1.973   2.134   3.540  0.4177 -0.0213  0.5827
   8823SM   H2S11767   2.014   2.219   3.482  0.1826 -0.0104  0.4295
   8823SM   C3S11768   1.838   2.183   3.601  0.1805  0.0693  0.0125
   8823SM   H3S11769   1.815   2.104   3.676  0.6687 -0.1221 -0.0370
   8823SM    O311770   1.731   2.189   3.511  0.2210  0.2953 -0.2545
   8823SM   HO311771   1.760   2.143   3.432  0.4593 -0.0783  0.0459
   8823SM   C4S11772   1.868   2.314   3.678  0.5885 -0.2832  0.6409
   8823SM   H4S11773   1.919   2.301   3.775 -0.0312 -0.0167  1.0102
   8823SM   C5S11774   1.866   2.438   3.626 -0.2555 -0.3045  0.2359
   8823SM   H5S11775   1.825   2.449   3.524  2.2924  0.6190 -0.7617
   8823SM   C6S11776   1.914   2.566   3.693  0.5430 -0.1042  0.5343
   8823SM   H6S11777   1.825   2.629   3.714 -0.3575 -0.1362 -2.6256
   8823SM   H6T11778   1.972   2.618   3.614  1.0413  3.8280  3.2143
   8823SM   C7S11779   1.991   2.556   3.823 -0.1022  0.0142 -0.3327
   8823SM   H7S11780   2.076   2.489   3.800 -1.4219 -1.2200 -1.9009
   8823SM   H7T11781   1.919   2.507   3.892 -1.2319  2.3809  0.2723
   8823SM   C8S11782   2.043   2.691   3.872  0.2303  0.1265 -0.2909
   8823SM   H8S11783   1.957   2.755   3.900  1.4989  0.7610  2.5048
   8823SM   H8T11784   2.086   2.747   3.786 -0.1301 -2.0135 -1.9473
   8823SM   C9S11785   2.136   2.679   3.991  0.2805 -0.7512  0.1229
   8823SM   H9S11786   2.216   2.602   3.982  2.3285  1.3620 -0.9009
   8823SM   H9T11787   2.071   2.640   4.071  1.0289 -2.2127  0.0524
   8823SM  C10S11788   2.188   2.815   4.048  0.5291 -0.3020 -0.0428
   8823SM  H10S11789   2.215   2.821   4.155 -0.6981  1.1085  0.2235
   8823SM  H10T11790   2.109   2.883   4.009 -0.0798 -2.8480 -3.8170
   8823SM  C11S11791   2.313   2.851   3.974  0.7947  0.5147  0.3104
   8823SM  H11S11792   2.316   2.959   3.947 -0.2113  0.6629  0.7563
   8823SM  H11T11793   2.317   2.794   3.879  0.6355  1.3397 -0.1989
   8823SM  C12S11794   2.432   2.808   4.050 -0.3841  0.3765 -0.1457
   8823SM  H12S11795   2.430   2.700   4.073  0.6094  0.3933  0.0771
   8823SM  H12T11796   2.425   2.857   4.150  2.1304 -1.0882  0.8469
   8823SM  C13S11797   2.567   2.834   3.979 -0.0002  0.1581  0.1496
   8823SM  H13S11798   2.576   2.763   3.894 -1.9231  0.1825 -0.0988
   8823SM  H13T11799   2.648   2.793   4.044  0.5791 -1.0290 -1.2592
   8823SM  C14S11800   2.603   2.980   3.960 -0.0268  0.2062 -0.5220
   8823SM  H14S11801   2.544   3.023   3.876  0.0639 -1.8361 -1.6908
   8823SM  H14T11802   2.710   2.999   3.936 -0.2170 -0.3541 -1.8953
   8823SM  C15S11803   2.563   3.065   4.082  0.2115 -0.6838  0.1192
   8823SM  H15S11804   2.589   3.002   4.170 -0.6265 -0.6020  0.4307
   8823SM  H15T11805   2.453   3.083   4.080  0.3204  0.0390  0.1575
   8823SM  C16S11806   2.627   3.205   4.101  0.2581 -0.0206 -0.1448
   8823SM  H16S11807   2.596   3.260   4.010  2.3221  1.1113 -0.2118
   8823SM  H16T11808   2.736   3.187   4.107  0.4955  1.2735 -0.3670
   8823SM  C17S11809   2.577   3.286   4.227  0.6665  0.4017  0.2298
   8823SM  H17S11810   2.627   3.383   4.213  0.9129 -0.0519 -2.6649
   8823SM  H17T11811   2.623   3.248   4.321  1.1555  2.3897  0.8389
   8823SM  C18S11812   2.427   3.296   4.243 -0.1875  0.1194 -0.4577
   8823SM  H18S11813   2.400   3.378   4.312 -0.5142  0.3910 -0.9037
   8823SM  H18T11814   2.375   3.209   4.289 -1.3316  1.2632  0.4650
   8823SM  H18U11815   2.376   3.314   4.146 -1.2137  1.0861  0.2438
   8823SM   C1F11816   2.178   2.038   3.604 -0.2931 -0.0312 -0.5989
   8823SM    OF11817   2.230   2.068   3.497  0.1056 -0.1642  0.0921
   8823SM   C2F11818   2.244   1.952   3.706  0.1068 -0.3968  0.4679
   8823SM   H2F11819   2.179   1.862   3.709 -1.5990  0.7904  0.6183
   8823SM   H2G11820   2.237   2.008   3.802  2.3781 -1.3024  1.2274
   8823SM   C3F11821   2.395   1.903   3.684  0.1378 -0.2537  0.2441
   8823SM   H3F11822   2.455   1.995   3.669 -1.9314  1.2052  0.4678
   8823SM   H3G11823   2.418   1.837   3.598  1.2671 -1.9737  1.7766
   8823SM   C4F11824   2.450   1.810   3.797  0.0474  0.5187 -0.2879
   8823SM   H4F11825   2.554   1.784   3.770  0.2859  0.4609  0.6479
   8823SM   H4G11826   2.393   1.715   3.800  0.6878  0.1267 -0.3624
   8823SM   C5F11827   2.445   1.874   3.933  0.1220 -0.1967 -0.1810
   8823SM   H5F11828   2.338   1.885   3.960  0.3162  2.1024 -0.1379
   8823SM   H5G11829   2.486   1.978   3.926 -0.3993 -0.0235 -0.7847
   8823SM   C6F11830   2.503   1.801   4.051  0.1404  0.4612 -0.6759
   8823SM   H6F11831   2.598   1.749   4.028  1.5963  2.3705  0.7148
   8823SM   H6G11832   2.427   1.735   4.097  0.4157  0.0725 -0.7725
   8823SM   C7F11833   2.562   1.897   4.162  0.4497 -0.6465  0.3133
   8823SM   H7F11834   2.477   1.959   4.199 -0.0075  0.2343 -2.0264
   8823SM   H7G11835   2.636   1.964   4.114  0.5365 -0.1127  1.1669
   8823SM   C8F11836   2.631   1.822   4.278  0.6210  0.4930 -0.1396
   8823SM   H8F11837   2.551   1.749   4.305  1.9085 -0.3610  1.5129
   8823SM   H8G11838   2.639   1.895   4.361 -3.9789  2.4284 -1.0583
   8823SM   C9F11839   2.774   1.761   4.268  0.4910  0.1945 -0.2565
   8823SM   H9F11840   2.841   1.844   4.237 -1.9260  1.6299 -1.9111
   8823SM   H9G11841   2.767   1.684   4.188  2.5256 -1.5708  1.1391
   8823SM  C10F11842   2.838   1.716   4.401 -0.5393  0.0526  0.1308
   8823SM  H10F11843   2.769   1.643   4.449  0.1593  0.7670  2.3765
   8823SM  H10G11844   2.848   1.799   4.474  0.5092 -0.9310  1.1837
   8823SM  C11F11845   2.974   1.663   4.378 -0.1896  0.7953 -0.0866
   8823SM  H11F11846   3.019   1.659   4.479 -1.8972  0.1337  0.6845
   8823SM  H11G11847   3.039   1.732   4.320 -1.2405  1.7107 -0.2093
   8823SM  C12F11848   2.976   1.522   4.302 -0.5675  0.0342 -0.3087
   8823SM  H12F11849   2.940   1.540   4.199  1.5400  1.2326 -0.8929
   8823SM  H12G11850   2.914   1.448   4.358 -2.0311  2.0160  0.8426
   8823SM  C13F11851   3.115   1.454   4.292  0.3757  0.4457 -0.2477
   8823SM  H13F11852   3.192   1.524   4.256  1.6904 -0.5688  0.5066
   8823SM  H13G11853   3.101   1.375   4.216 -2.5137  1.4689 -0.9325
   8823SM  C14F11854   3.167   1.407   4.431  0.0837 -0.5500  0.3883
   8823SM  H14F11855   3.082   1.364   4.488 -2.4660  2.8369 -0.5430
   8823SM  H14G11856   3.200   1.494   4.493 -1.9072 -0.1456  0.9640
   8823SM  C15F11857   3.277   1.298   4.416 -0.5978 -0.0077 -0.5777
   8823SM  H15F11858   3.369   1.348   4.379  0.3898 -1.6694 -0.4595
   8823SM  H15G11859   3.227   1.232   4.342 -3.2053  0.4991  0.6108
   8823SM  C16F11860   3.307   1.220   4.546  0.2501  0.6504  0.4272
   8823SM  H16F11861   3.351   1.127   4.504 -0.0535  0.3820  0.6990
   8823SM  H16G11862   3.214   1.183   4.594  0.3451  1.4595  1.2566
   8823SM  C17F11863   3.401   1.294   4.644 -0.0336  0.1929 -0.9161
   8823SM  H17F11864   3.353   1.389   4.676 -0.2370  0.5541 -2.2208
   8823SM  H17G11865   3.487   1.333   4.584 -1.2545  1.8433 -1.6852
   8823SM  C18F11866   3.450   1.204   4.761 -0.2676 -0.5124 -0.2381
   8823SM  H18F11867   3.527   1.252   4.825 -0.9533  0.2716  0.0117
   8823SM  H18G11868   3.496   1.116   4.710 -0.1829  0.1925 -1.4238
   8823SM  C19F11869   3.331   1.171   4.848  0.1384 -0.5552  0.0510
   8823SM  H19F11870   3.255   1.114   4.791 -0.2473 -0.5236  0.5261
   8823SM  H19G11871   3.287   1.263   4.890  0.1079 -0.9732  0.9742
   8823SM  C20F11872   3.377   1.085   4.969  0.1974 -0.4995 -0.4607
   8823SM  H20F11873   3.462   1.130   5.023  0.3022 -0.0372 -0.9986
   8823SM  H20G11874   3.421   0.992   4.927  0.8545 -1.0399  1.3678
   8823SM  C21F11875   3.260   1.047   5.066  0.0377 -0.5349 -0.4999
   8823SM  H21F11876   3.299   0.968   5.134  1.4186 -1.0153 -1.8115
   8823SM  H21G11877   3.174   1.000   5.014 -0.2614 -2.1225  1.3250
   8823SM  C22F11878   3.184   1.156   5.137 -0.1631 -0.2522 -0.7471
   8823SM  H22F11879   3.134   1.103   5.221  0.1366 -0.7221 -0.8625
   8823SM  H22G11880   3.107   1.200   5.070 -3.6825 -0.3108  2.8164
   8823SM  C23F11881   3.268   1.275   5.183 -0.0043  0.3540 -0.1702
   8823SM  H23F11882   3.307   1.320   5.089 -1.8224  0.0673 -1.1007
   8823SM  H23G11883   3.350   1.223   5.239 -0.1473 -1.9016 -1.9016
   8823SM  H23H11884   3.214   1.344   5.251 -0.6022 -0.4403  0.1763
   8923SM     N11885   5.976   2.968   2.701 -0.7466  0.5179  0.5270
   8923SM   C1511886   6.087   3.036   2.636  0.6651  0.1111 -0.3403
   8923SM  H15A11887   6.058   3.137   2.610 -1.2977 -0.1793  0.6310
   8923SM  H15B11888   6.114   2.987   2.543  2.3533  1.3387 -0.5551
   8923SM  H15C11889   6.175   3.029   2.699 -1.2937 -1.8626  2.3780
   8923SM   C1411890   5.975   3.023   2.838  0.0662  0.0016  0.1981
   8923SM  H14A11891   5.897   2.968   2.887 -0.9466  0.1939 -1.1508
   8923SM  H14B11892   5.949   3.128   2.842  1.2101  0.2960  0.4073
   8923SM  H14C11893   6.067   2.999   2.889  1.2432  0.2236 -1.6955
   8923SM   C1311894   5.852   3.009   2.639  0.3276 -0.2407 -0.3683
   8923SM  H13A11895   5.860   2.987   2.534  1.0796  0.0145 -0.3746
   8923SM  H13B11896   5.830   3.115   2.644 -0.2949 -0.4190  1.0969
   8923SM  H13C11897   5.769   2.962   2.689  0.8176  0.3715  1.0853
   8923SM   C1211898   5.996   2.813   2.704  0.1129  0.0571  0.4927
   8923SM  H12A11899   6.017   2.762   2.611  0.2864 -1.3706  1.2770
   8923SM  H12B11900   5.903   2.780   2.747 -1.0074  2.4079 -0.0385
   8923SM   C1111901   6.104   2.755   2.804  0.0620 -0.2752  0.5465
   8923SM  H11A11902   6.076   2.648   2.813 -0.9670 -0.0891 -0.2819
   8923SM  H11B11903   6.096   2.789   2.910  3.7650 -0.2817  0.9493
   8923SM     P11904   6.315   2.648   2.683  0.2641 -0.1980 -0.6134
   8923SM   O1311905   6.209   2.562   2.620 -0.1601 -0.0875 -0.5832
   8923SM   O1411906   6.424   2.704   2.598  0.1049  0.2539  0.0117
   8923SM   O1111907   6.378   2.567   2.801  0.1772 -0.0683  0.4101
   8923SM   O1211908   6.237   2.771   2.752  0.7467 -0.0110 -0.6603
   8923SM   C1S11909   6.439   2.619   2.924  0.2494  0.4800 -0.5110
   8923SM   H1S11910   6.465   2.727   2.924  1.4160  0.3140  2.7420
   8923SM   H1T11911   6.532   2.564   2.949 -0.8182 -1.5218 -0.7597
   8923SM    NF11912   6.410   2.652   3.171 -0.1542  0.0797 -0.0587
   8923SM   HNF11913   6.468   2.590   3.223 -3.1713 -1.6028  1.5961
   8923SM   C2S11914   6.353   2.593   3.053 -0.3345  0.5220  0.2815
   8923SM   H2S11915   6.254   2.641   3.035  0.6432  2.1990 -0.9436
   8923SM   C3S11916   6.325   2.437   3.066  0.7759 -0.1483 -0.4457
   8923SM   H3S11917   6.424   2.390   3.080  0.4320 -0.8739 -0.4257
   8923SM    O311918   6.284   2.363   2.949  0.2194  0.3128 -0.6876
   8923SM   HO311919   6.292   2.431   2.882  2.5129 -0.1648 -0.9618
   8923SM   C4S11920   6.229   2.412   3.177 -0.4848 -0.3719  0.4058
   8923SM   H4S11921   6.127   2.439   3.146 -0.0538  0.7971 -0.0602
   8923SM   C5S11922   6.270   2.381   3.302  0.3365  0.3433 -0.1883
   8923SM   H5S11923   6.379   2.381   3.321  0.5058 -2.2158 -0.7559
   8923SM   C6S11924   6.189   2.363   3.427  0.4361 -0.0971  0.1908
   8923SM   H6S11925   6.178   2.256   3.452  1.2665 -0.4338 -0.7715
   8923SM   H6T11926   6.088   2.408   3.418  0.8876  0.8883 -0.2015
   8923SM   C7S11927   6.249   2.434   3.556 -0.1831  0.0837 -0.1090
   8923SM   H7S11928   6.257   2.544   3.544 -3.4779  0.3892 -0.7585
   8923SM   H7T11929   6.350   2.392   3.571 -0.6335 -0.4197  1.8140
   8923SM   C8S11930   6.174   2.401   3.689  0.2016  0.3541  0.0970
   8923SM   H8S11931   6.152   2.292   3.694  1.4791  0.1207  1.1502
   8923SM   H8T11932   6.076   2.453   3.682 -0.2348 -0.5256 -0.5409
   8923SM   C9S11933   6.250   2.433   3.810  0.1023 -0.4436  0.1183
   8923SM   H9S11934   6.256   2.544   3.813  1.4867 -0.5082  0.2996
   8923SM   H9T11935   6.354   2.394   3.808 -0.3297 -1.6312 -0.3281
   8923SM  C10S11936   6.179   2.373   3.932 -0.6112  0.0819 -0.0117
   8923SM  H10S11937   6.216   2.268   3.940 -1.8252 -0.3147  0.6475
   8923SM  H10T11938   6.069   2.366   3.917 -0.5874  1.7612 -1.2455
   8923SM  C11S11939   6.205   2.462   4.054 -0.2287 -0.3859 -0.2688
   8923SM  H11S11940   6.161   2.561   4.028  1.8867  0.4991 -0.7037
   8923SM  H11T11941   6.313   2.483   4.066 -0.4007  0.0402  0.6436
   8923SM  C12S11942   6.144   2.405   4.184  0.5609  0.9574 -0.1021
   8923SM  H12S11943   6.033   2.403   4.175  0.6237 -0.4499 -0.7430
   8923SM  H12T11944   6.160   2.478   4.267 -5.0269  2.5672 -0.0121
   8923SM  C13S11945   6.196   2.262   4.230 -0.9880  0.5656 -0.7433
   8923SM  H13S11946   6.304   2.270   4.259 -0.4194 -1.3426 -2.1278
   8923SM  H13T11947   6.183   2.179   4.157 -0.3584 -1.1152  0.9511
   8923SM  C14S11948   6.127   2.223   4.358  0.6973 -0.1874 -0.6815
   8923SM  H14S11949   6.019   2.206   4.338  0.3756 -1.4324  1.7858
   8923SM  H14T11950   6.137   2.305   4.432 -1.1954 -0.8391  0.3625
   8923SM  C15S11951   6.174   2.085   4.421  0.5863  0.4822 -0.1223
   8923SM  H15S11952   6.282   2.087   4.446  0.3109  1.6544  1.0982
   8923SM  H15T11953   6.147   1.999   4.356 -1.8148  1.6581 -0.7780
   8923SM  C16S11954   6.101   2.057   4.554  0.3768 -1.1478  0.0815
   8923SM  H16S11955   5.993   2.068   4.530  0.7658  4.0130 -0.3239
   8923SM  H16T11956   6.115   2.135   4.632 -2.0684 -0.4832 -0.0745
   8923SM  C17S11957   6.130   1.911   4.601 -0.2201  0.1974  0.1744
   8923SM  H17S11958   6.236   1.909   4.637 -0.1697 -0.8988  0.0188
   8923SM  H17T11959   6.112   1.836   4.521 -1.6121  0.2823  0.3947
   8923SM  C18S11960   6.064   1.879   4.733 -0.4851  0.3319 -0.8543
   8923SM  H18S11961   5.954   1.882   4.718 -0.5519 -1.7778 -1.2095
   8923SM  H18T11962   6.079   1.955   4.812 -0.8367 -1.5043  1.0894
   8923SM  H18U11963   6.086   1.779   4.776 -1.5355  0.2105 -0.5668
   8923SM   C1F11964   6.410   2.783   3.188 -0.1245 -0.4398 -0.8615
   8923SM    OF11965   6.341   2.856   3.119 -0.1781 -0.2991  0.1168
   8923SM   C2F11966   6.484   2.829   3.315  0.4415 -0.1592  0.7233
   8923SM   H2F11967   6.462   2.938   3.320  0.8282 -0.0862  0.9106
   8923SM   H2G11968   6.594   2.815   3.302  0.1231 -2.4280  0.1107
   8923SM   C3F11969   6.439   2.755   3.438 -0.1079 -0.1784  0.3265
   8923SM   H3F11970   6.483   2.653   3.438 -0.3167 -0.2703  0.1450
   8923SM   H3G11971   6.327   2.754   3.438 -0.1344 -2.5223  0.2468
   8923SM   C4F11972   6.486   2.819   3.568  1.1388 -0.3285  0.1627
   8923SM   H4F11973   6.455   2.926   3.564 -1.1179 -0.9699 -0.9745
   8923SM   H4G11974   6.597   2.814   3.564  1.4982  3.3773  1.2644
   8923SM   C5F11975   6.431   2.752   3.696 -0.3499 -0.0913 -0.0626
   8923SM   H5F11976   6.476   2.651   3.703  1.2761  0.7065  2.4382
   8923SM   H5G11977   6.322   2.739   3.681  0.0501 -3.7734 -0.7192
   8923SM   C6F11978   6.471   2.826   3.826 -0.6721  0.5871 -0.5922
   8923SM   H6F11979   6.412   2.919   3.831  0.0142  0.9612  1.6613
   8923SM   H6G11980   6.579   2.852   3.825 -0.9879  1.9871 -0.2859
   8923SM   C7F11981   6.432   2.757   3.959 -0.2387 -0.7521  0.9360
   8923SM   H7F11982   6.519   2.694   3.988  2.2196  1.6862 -0.6906
   8923SM   H7G11983   6.347   2.686   3.946 -0.3182 -0.4009 -0.5715
   8923SM   C8F11984   6.422   2.848   4.076  0.5264 -0.3159  0.7320
   8923SM   H8F11985   6.336   2.917   4.062 -1.6175 -2.8763  0.5691
   8923SM   H8G11986   6.516   2.906   4.089 -1.0784  2.1886  1.7975
   8923SM   C9F11987   6.378   2.771   4.205 -0.7268  0.4085 -0.4913
   8923SM   H9F11988   6.458   2.697   4.226 -1.6477 -0.5277 -0.1751
   8923SM   H9G11989   6.281   2.717   4.197  0.9860 -3.2595  0.8985
   8923SM  C10F11990   6.362   2.867   4.325 -0.3452  0.3257 -0.0857
   8923SM  H10F11991   6.299   2.804   4.391  1.5347 -1.3055  0.2638
   8923SM  H10G11992   6.303   2.955   4.295 -0.2418  0.9662  1.4821
   8923SM  C11F11993   6.484   2.917   4.396  0.0700 -0.3301 -0.5358
   8923SM  H11F11994   6.481   3.028   4.400 -0.6568 -0.3716  0.9342
   8923SM  H11G11995   6.575   2.893   4.338 -0.3519 -0.0268 -1.3339
   8923SM  C12F11996   6.486   2.860   4.533  0.2076 -0.3613  0.2783
   8923SM  H12F11997   6.483   2.749   4.535  0.8170 -0.4058 -0.6646
   8923SM  H12G11998   6.399   2.906   4.585  3.4718  3.5622  2.8924
   8923SM  C13F11999   6.605   2.903   4.618  0.0099 -0.0179 -0.1925
   8923SM  H13F12000   6.598   3.014   4.622  0.4672  0.0748 -1.4632
   8923SM  H13G12001   6.694   2.895   4.553 -0.0993  0.2189 -0.3735
   8923SM  C14F12002   6.619   2.834   4.759  0.4758  0.2601 -0.3344
   8923SM  H14F12003   6.645   2.728   4.737 -0.6997  0.2054 -1.6470
   8923SM  H14G12004   6.519   2.826   4.807  0.8743 -2.8682  0.1967
   8923SM  C15F12005   6.731   2.910   4.844  0.7655  0.5227 -0.1699
   8923SM  H15F12006   6.714   3.020   4.848  2.6365  0.8112  1.0834
   8923SM  H15G12007   6.821   2.896   4.779  0.9436 -0.5915  0.2841
   8923SM  C16F12008   6.750   2.847   4.978 -0.4167  0.5021 -0.5546
   8923SM  H16F12009   6.735   2.737   4.967  0.9008 -0.0636  2.2013
   8923SM  H16G12010   6.682   2.876   5.061  0.4697  0.0791  0.3463
   8923SM  C17F12011   6.899   2.867   5.021  0.1511 -0.5545 -0.2203
   8923SM  H17F12012   6.962   2.798   4.961 -0.7670 -1.4123 -0.2154
   8923SM  H17G12013   6.914   2.861   5.131  1.5107  0.9139 -0.2858
   8923SM  C18F12014   6.950   3.010   5.002 -0.2796 -0.0153  0.1665
   8923SM  H18F12015   6.871   3.082   5.033 -0.1985  0.3485 -0.4466
   8923SM  H18G12016   6.964   3.032   4.894  1.9066 -1.9876 -0.0163
   8923SM  C19F12017   7.082   3.051   5.075  0.0133  0.1094  0.4177
   8923SM  H19F12018   7.166   2.983   5.049  1.1382  1.6812 -0.2320
   8923SM  H19G12019   7.070   3.038   5.184  0.8177  0.9264  0.6212
   8923SM  C20F12020   7.124   3.196   5.039  0.2696 -0.0173 -0.5320
   8923SM  H20F12021   7.054   3.270   5.083  0.2098 -0.5906  0.3576
   8923SM  H20G12022   7.124   3.210   4.928 -2.0010 -0.5253 -0.6435
   8923SM  C21F12023   7.265   3.236   5.084 -0.0656 -0.1937  0.2882
   8923SM  H21F12024   7.276   3.339   5.043 -1.0048 -0.7975 -1.6263
   8923SM  H21G12025   7.341   3.176   5.028 -1.0113 -1.6855  0.5659
   8923SM  C22F12026   7.279   3.216   5.231  0.7807 -0.1452  0.3597
   8923SM  H22F12027   7.252   3.111   5.256  0.3780  0.2810  1.8438
   8923SM  H22G12028   7.205   3.279   5.285 -0.3524  1.2577 -2.5882
   8923SM  C23F12029   7.420   3.254   5.282 -0.3262 -0.0559 -0.3142
   8923SM  H23F12030   7.423   3.264   5.393 -1.4794  1.6017 -0.4003
   8923SM  H23G12031   7.453   3.346   5.230 -1.4627 -0.2523 -1.4117
   8923SM  H23H12032   7.489   3.171   5.255 -0.6407 -0.7846  1.0337
   9023SM     N12033   6.703   2.335   2.715  0.3422 -0.0484 -0.6633
   9023SM   C1512034   6.807   2.235   2.670  0.7618 -0.3699  0.0306
   9023SM  H15A12035   6.843   2.173   2.751  0.8406 -1.4186 -0.7828
   9023SM  H15B12036   6.893   2.279   2.621  1.4713 -0.9022  0.7720
   9023SM  H15C12037   6.752   2.169   2.605 -0.8674  0.8934  0.0700
   9023SM   C1412038   6.769   2.438   2.801 -0.7335  0.2210 -0.4521
   9023SM  H14A12039   6.696   2.516   2.814 -0.1440  1.1474 -2.3640
   9023SM  H14B12040   6.853   2.486   2.754  0.1445 -0.7850  0.0435
   9023SM  H14C12041   6.802   2.396   2.895 -0.4181  0.8819 -0.2671
   9023SM   C1312042   6.649   2.417   2.594  0.7781  0.3269  0.7216
   9023SM  H13A12043   6.603   2.512   2.620  1.1870  0.6213  0.3841
   9023SM  H13B12044   6.576   2.357   2.543 -0.1973 -0.1524  2.6020
   9023SM  H13C12045   6.732   2.458   2.538 -1.5560  3.0437 -1.0506
   9023SM   C1212046   6.583   2.267   2.790 -0.7041  0.2775 -0.4708
   9023SM  H12A12047   6.535   2.200   2.720  2.1905 -2.1089 -0.3964
   9023SM  H12B12048   6.515   2.347   2.814 -0.0638  1.0112 -1.0478
   9023SM   C1112049   6.604   2.187   2.922 -0.0588  0.3195 -0.0096
   9023SM  H11A12050   6.515   2.123   2.941  0.4460 -0.0129  1.3273
   9023SM  H11B12051   6.606   2.258   3.008  0.7296 -0.7481  0.8786
   9023SM     P12052   6.832   2.108   3.040  0.0865 -0.3933  0.2376
   9023SM   O1312053   6.913   1.985   3.031 -0.5499  0.3792  0.9091
   9023SM   O1412054   6.893   2.241   3.051 -0.3515  0.0395  0.0898
   9023SM   O1112055   6.737   2.095   3.172 -0.2278  0.3438  0.3601
   9023SM   O1212056   6.726   2.110   2.921  0.7688 -0.4005  0.5421
   9023SM   C1S12057   6.648   1.985   3.187  0.1106 -0.0182 -0.1458
   9023SM   H1S12058   6.708   1.893   3.171  0.4030 -0.1642  1.6083
   9023SM   H1T12059   6.563   1.995   3.115  0.1731  0.5471 -0.1429
   9023SM    NF12060   6.522   1.853   3.350 -0.1960 -0.4389  0.2225
   9023SM   HNF12061   6.425   1.855   3.326 -0.0126  2.3448 -0.5887
   9023SM   C2S12062   6.594   1.979   3.333 -0.2693  0.6232  0.0662
   9023SM   H2S12063   6.683   1.983   3.400 -0.9053  0.1194  0.9597
   9023SM   C3S12064   6.501   2.102   3.362  0.3923  0.3243  0.0980
   9023SM   H3S12065   6.410   2.110   3.300 -0.4124 -3.2473  0.6253
   9023SM    O312066   6.562   2.232   3.344  0.3656  0.3791  0.1046
   9023SM   HO312067   6.640   2.203   3.297  0.1488  0.6689 -0.4377
   9023SM   C4S12068   6.461   2.091   3.501 -0.2970  0.2174 -0.2974
   9023SM   H4S12069   6.545   2.086   3.572 -0.5888 -1.6139 -0.0355
   9023SM   C5S12070   6.342   2.053   3.545 -0.4824  0.4097 -0.0333
   9023SM   H5S12071   6.269   2.034   3.465 -0.0901 -1.0935 -0.0559
   9023SM   C6S12072   6.307   2.018   3.689  0.6110  0.1466  0.2754
   9023SM   H6S12073   6.244   1.926   3.688 -0.1265  0.5942 -2.5029
   9023SM   H6T12074   6.249   2.103   3.730 -0.7976  0.2358 -1.7730
   9023SM   C7S12075   6.424   2.001   3.797 -0.0417 -0.2556  0.0558
   9023SM   H7S12076   6.471   2.101   3.810 -1.1176  0.2495  0.1613
   9023SM   H7T12077   6.491   1.923   3.755 -0.3260  0.3336 -1.5438
   9023SM   C8S12078   6.372   1.959   3.937 -0.6029  0.0200  0.2793
   9023SM   H8S12079   6.322   1.862   3.918 -1.1703  0.7254 -2.2066
   9023SM   H8T12080   6.289   2.019   3.979 -0.0084  1.9754 -1.2067
   9023SM   C9S12081   6.481   1.933   4.040  0.5979 -0.2632 -0.7275
   9023SM   H9S12082   6.529   2.031   4.063 -0.5443  0.1956 -0.2019
   9023SM   H9T12083   6.551   1.856   4.004  0.7937 -0.2913 -0.3006
   9023SM  C10S12084   6.414   1.869   4.167  0.1083 -1.0075  0.4496
   9023SM  H10S12085   6.371   1.772   4.136  0.2051 -0.9049 -0.0213
   9023SM  H10T12086   6.329   1.926   4.210 -0.3453 -0.3140 -1.2706
   9023SM  C11S12087   6.520   1.836   4.272 -0.3298 -0.2093 -0.1323
   9023SM  H11S12088   6.572   1.928   4.306  0.2118 -1.0092  1.2918
   9023SM  H11T12089   6.599   1.771   4.227 -1.3100 -0.3185 -1.7967
   9023SM  C12S12090   6.467   1.770   4.398  0.8925 -0.0394 -0.1518
   9023SM  H12S12091   6.378   1.710   4.370 -1.0752  2.0786  1.1047
   9023SM  H12T12092   6.417   1.850   4.457 -2.7736 -1.3219 -1.2596
   9023SM  C13S12093   6.559   1.697   4.496 -0.5460 -0.1290  0.2408
   9023SM  H13S12094   6.661   1.735   4.471 -1.2664  3.1459  1.6883
   9023SM  H13T12095   6.546   1.588   4.483 -0.3905 -0.0098 -1.1110
   9023SM  C14S12096   6.533   1.756   4.636 -0.8258 -0.1174  0.7217
   9023SM  H14S12097   6.580   1.683   4.705  2.8442 -0.4727 -1.8483
   9023SM  H14T12098   6.424   1.765   4.656 -0.9882  1.1796 -0.5251
   9023SM  C15S12099   6.592   1.896   4.661 -0.2133 -0.0606  0.3147
   9023SM  H15S12100   6.550   1.966   4.585 -0.0212  0.6642  0.8655
   9023SM  H15T12101   6.701   1.886   4.643 -0.8898 -3.6542 -3.2262
   9023SM  C16S12102   6.567   1.944   4.808  0.0496 -0.1751 -0.2806
   9023SM  H16S12103   6.607   2.047   4.819 -2.7064  0.8749  1.0461
   9023SM  H16T12104   6.616   1.885   4.889  1.5763  2.8140  1.1240
   9023SM  C17S12105   6.423   1.950   4.856 -0.4343 -0.0884  0.4435
   9023SM  H17S12106   6.398   1.842   4.858  0.3832 -0.3246 -0.9666
   9023SM  H17T12107   6.369   2.011   4.780 -0.6659  1.2916  1.6774
   9023SM  C18S12108   6.398   2.029   4.990  0.3704 -0.6473 -0.4846
   9023SM  H18S12109   6.486   2.074   5.041 -0.2067 -1.4085  1.2615
   9023SM  H18T12110   6.341   1.968   5.064 -0.0068 -0.1326 -0.3422
   9023SM  H18U12111   6.326   2.111   4.971 -0.5174 -1.6311 -1.4868
   9023SM   C1F12112   6.595   1.740   3.358 -0.3527  0.6718  0.2607
   9023SM    OF12113   6.717   1.739   3.366 -0.2538  0.2211  0.1541
   9023SM   C2F12114   6.515   1.616   3.348 -0.5560  0.3517 -0.3487
   9023SM   H2F12115   6.551   1.553   3.264  0.6472  1.5937 -0.8175
   9023SM   H2G12116   6.407   1.641   3.345 -0.3742  1.6269  1.6011
   9023SM   C3F12117   6.530   1.543   3.481  0.7060  0.3139 -0.3675
   9023SM   H3F12118   6.636   1.526   3.507  0.7883 -0.7086 -1.3004
   9023SM   H3G12119   6.486   1.443   3.459 -0.3675  0.8841 -0.8953
   9023SM   C4F12120   6.466   1.616   3.606  0.6845 -0.0877 -0.4361
   9023SM   H4F12121   6.365   1.641   3.567  0.8567 -0.7785 -1.3861
   9023SM   H4G12122   6.538   1.696   3.631  1.5256 -0.2291 -2.2103
   9023SM   C5F12123   6.437   1.527   3.724  0.0125 -0.1372 -0.1843
   9023SM   H5F12124   6.537   1.492   3.756 -0.1893 -0.9062 -0.3611
   9023SM   H5G12125   6.387   1.434   3.690 -0.3217 -1.1205  2.7138
   9023SM   C6F12126   6.354   1.579   3.844 -0.6930 -0.6676 -0.2430
   9023SM   H6F12127   6.398   1.681   3.857 -0.9674 -0.5970  0.1487
   9023SM   H6G12128   6.384   1.530   3.939  1.6086  1.9999  0.5678
   9023SM   C7F12129   6.200   1.575   3.839 -0.4545 -0.9349  0.4875
   9023SM   H7F12130   6.177   1.469   3.814  0.7609 -0.6764 -2.1245
   9023SM   H7G12131   6.162   1.638   3.756  0.6402  0.0649  0.7233
   9023SM   C8F12132   6.140   1.616   3.973  0.2015  0.0861  0.5968
   9023SM   H8F12133   6.029   1.629   3.971 -0.0628 -1.7112  1.6533
   9023SM   H8G12134   6.175   1.716   4.006  1.0507  0.3979 -1.1693
   9023SM   C9F12135   6.166   1.516   4.089 -0.5977  0.1193 -0.2106
   9023SM   H9F12136   6.267   1.524   4.134 -1.3644  2.7494  1.2643
   9023SM   H9G12137   6.148   1.414   4.048  0.0218 -0.0558 -0.0501
   9023SM  C10F12138   6.073   1.544   4.200 -0.5307  0.5596  0.6134
   9023SM  H10F12139   5.967   1.536   4.166 -1.0335 -1.1751  2.4071
   9023SM  H10G12140   6.079   1.650   4.236  0.6021  0.4824  0.6704
   9023SM  C11F12141   6.091   1.450   4.318  0.9038  0.0215 -0.1522
   9023SM  H11F12142   6.184   1.472   4.374  0.3790  0.6294  0.5099
   9023SM  H11G12143   6.106   1.350   4.272  1.0137  0.3855 -0.9104
   9023SM  C12F12144   5.963   1.459   4.409  0.0590  0.8033 -0.4234
   9023SM  H12F12145   5.967   1.360   4.461  1.2167  1.3024  0.4936
   9023SM  H12G12146   5.871   1.474   4.349 -0.2421 -1.4299 -0.6222
   9023SM  C13F12147   5.985   1.567   4.521 -0.5333 -0.0230  0.4574
   9023SM  H13F12148   5.991   1.662   4.463  0.7046 -1.9817 -2.9035
   9023SM  H13G12149   6.089   1.560   4.561  0.5507 -1.0003 -2.2836
   9023SM  C14F12150   5.881   1.564   4.627 -0.0603  0.4844  0.6257
   9023SM  H14F12151   5.787   1.527   4.581 -0.2308 -0.2291  1.5067
   9023SM  H14G12152   5.857   1.661   4.675 -0.0122  0.5336  0.5489
   9023SM  C15F12153   5.929   1.460   4.736  0.0214  0.1912  0.1288
   9023SM  H15F12154   5.997   1.513   4.807 -1.1803  0.8416  0.8225
   9023SM  H15G12155   5.987   1.371   4.703  0.3631 -0.0389  1.3185
   9023SM  C16F12156   5.819   1.396   4.820 -0.3254 -0.1315  0.3609
   9023SM  H16F12157   5.757   1.321   4.768 -0.4384 -0.4336  0.9219
   9023SM  H16G12158   5.755   1.471   4.872  0.7968  0.1674  1.3710
   9023SM  C17F12159   5.876   1.310   4.933 -0.9716  0.4830  0.1697
   9023SM  H17F12160   5.947   1.369   4.994 -1.0783  0.8827 -0.0904
   9023SM  H17G12161   5.949   1.233   4.899  2.0943  2.2646  2.2280
   9023SM  C18F12162   5.774   1.239   5.022  0.4140 -0.2507 -0.4930
   9023SM  H18F12163   5.822   1.151   5.069 -0.1217 -0.7160 -0.8035
   9023SM  H18G12164   5.695   1.206   4.950  0.7648  0.0653 -1.0299
   9023SM  C19F12165   5.726   1.334   5.127  0.3549  0.8271  0.9078
   9023SM  H19F12166   5.634   1.281   5.161 -1.8100  1.7805 -2.8629
   9023SM  H19G12167   5.693   1.437   5.101 -1.3056  0.1512  0.1568
   9023SM  C20F12168   5.828   1.323   5.245  0.7286  0.0876 -0.1373
   9023SM  H20F12169   5.905   1.243   5.245  0.1872 -0.5817  3.4075
   9023SM  H20G12170   5.763   1.294   5.331 -3.0166  1.2106 -2.3419
   9023SM  C21F12171   5.886   1.467   5.289 -0.0822  0.3492  0.4480
   9023SM  H21F12172   5.805   1.541   5.304 -0.5798 -0.4628  2.0147
   9023SM  H21G12173   5.957   1.506   5.213 -0.2870 -0.0575  0.0432
   9023SM  C22F12174   5.968   1.457   5.419  0.0365 -0.5656 -0.7766
   9023SM  H22F12175   6.050   1.384   5.401 -2.2287 -3.3364 -0.5334
   9023SM  H22G12176   5.908   1.406   5.498  0.3837  0.9236  0.5062
   9023SM  C23F12177   6.023   1.591   5.466  0.5743  0.1249 -0.9070
   9023SM  H23F12178   5.944   1.666   5.487  0.6921  0.4313 -1.5572
   9023SM  H23G12179   6.099   1.635   5.398  1.0154  1.0539  0.1453
   9023SM  H23H12180   6.086   1.575   5.557 -0.6588  1.6525  0.2604
   9123SM     N12181   5.989   4.374   2.038  0.7949 -0.6719 -0.1615
   9123SM   C1512182   5.852   4.443   2.009 -0.0628  0.1320 -0.2050
   9123SM  H15A12183   5.856   4.549   1.989 -1.6282 -0.0232 -1.5548
   9123SM  H15B12184   5.784   4.432   2.092  2.1036 -1.8444  1.4055
   9123SM  H15C12185   5.802   4.397   1.925 -0.2216 -0.2502  0.0971
   9123SM   C1412186   6.070   4.403   1.907 -0.5031 -0.7014  0.7190
   9123SM  H14A12187   6.092   4.508   1.908 -0.6445 -0.6687  1.8334
   9123SM  H14B12188   6.018   4.365   1.820  2.2669  0.2810 -1.5062
   9123SM  H14C12189   6.166   4.353   1.913 -0.1782 -0.1024  0.5332
   9123SM   C1312190   6.048   4.456   2.148  0.4895  0.2741 -0.0229
   9123SM  H13A12191   6.014   4.558   2.135 -1.0786  0.0922  2.0871
   9123SM  H13B12192   6.155   4.440   2.154  0.4048 -0.0889  0.6369
   9123SM  H13C12193   6.018   4.422   2.246  2.1284  0.7545  0.6873
   9123SM   C1212194   5.973   4.228   2.066  0.0019  0.2497 -0.6527
   9123SM  H12A12195   6.070   4.184   2.084 -0.0494  0.2107 -0.4718
   9123SM  H12B12196   5.934   4.184   1.975 -1.9539  2.0663 -0.7672
   9123SM   C1112197   5.892   4.181   2.194 -0.4021  0.1658  0.4723
   9123SM  H11A12198   5.879   4.071   2.192  1.2015 -0.0536 -1.0644
   9123SM  H11B12199   5.787   4.214   2.185  0.0128  1.7958  1.2239
   9123SM     P12200   6.045   4.149   2.404  0.1802 -0.2563 -0.1180
   9123SM   O1312201   5.993   4.013   2.411  0.7164  0.5065  0.2586
   9123SM   O1412202   6.180   4.168   2.347  0.3172 -0.1507 -0.7221
   9123SM   O1112203   6.031   4.220   2.550  0.4279 -0.2757  0.9897
   9123SM   O1212204   5.945   4.232   2.319  0.0781  0.3191 -0.3688
   9123SM   C1S12205   5.904   4.253   2.607 -0.2902 -0.0841  0.2627
   9123SM   H1S12206   5.818   4.213   2.549 -1.5517  1.1325  1.2297
   9123SM   H1T12207   5.890   4.363   2.615  0.2938 -0.0486  0.9069
   9123SM    NF12208   5.751   4.235   2.802  0.3774 -0.1894  0.1399
   9123SM   HNF12209   5.746   4.300   2.877 -0.2512 -0.9268  0.7627
   9123SM   C2S12210   5.883   4.195   2.756  0.5656 -0.3727 -0.2327
   9123SM   H2S12211   5.883   4.084   2.752  0.5067 -0.6281  3.5428
   9123SM   C3S12212   6.003   4.243   2.847  1.0914  0.6941  0.2024
   9123SM   H3S12213   5.995   4.353   2.863  0.0507  0.4296  1.7365
   9123SM    O312214   6.130   4.227   2.789  0.1116 -0.5351  0.2257
   9123SM   HO312215   6.103   4.205   2.700  1.6200 -0.7932 -0.1880
   9123SM   C4S12216   5.986   4.173   2.979 -0.1145  0.8069 -0.7819
   9123SM   H4S12217   6.041   4.078   2.976 -1.6576 -0.1514 -0.0756
   9123SM   C5S12218   5.939   4.227   3.093 -0.2764 -0.0176 -0.2352
   9123SM   H5S12219   5.916   4.334   3.091  0.7397  0.2661  1.4238
   9123SM   C6S12220   5.944   4.170   3.235  0.1717  0.5934  0.1913
   9123SM   H6S12221   6.016   4.085   3.244 -0.4608  0.2292  2.1630
   9123SM   H6T12222   5.843   4.128   3.254 -0.2631  1.5117 -0.0614
   9123SM   C7S12223   5.975   4.274   3.345 -0.4142  0.9148  0.3832
   9123SM   H7S12224   5.886   4.339   3.345 -0.9089  0.2479  0.0882
   9123SM   H7T12225   6.059   4.342   3.315 -0.9371  0.8853 -1.2818
   9123SM   C8S12226   5.999   4.199   3.479  0.9787 -0.0114 -0.4864
   9123SM   H8S12227   6.074   4.118   3.467  0.4465 -0.3808 -1.4206
   9123SM   H8T12228   5.903   4.158   3.514  2.0598 -1.1155  1.3472
   9123SM   C9S12229   6.064   4.283   3.592  0.1874  0.7662 -0.3380
   9123SM   H9S12230   5.987   4.360   3.612 -0.3814  0.7206 -2.1120
   9123SM   H9T12231   6.161   4.325   3.558 -0.6869  0.8111 -3.0210
   9123SM  C10S12232   6.100   4.208   3.722  0.4078 -0.0288  0.7335
   9123SM  H10S12233   6.193   4.157   3.689  0.2631  0.1128  0.0993
   9123SM  H10T12234   6.010   4.145   3.743 -0.9918  0.9780 -1.7965
   9123SM  C11S12235   6.128   4.294   3.845 -0.5526 -0.2125 -0.2627
   9123SM  H11S12236   6.058   4.379   3.857 -0.6768 -0.5876  2.2261
   9123SM  H11T12237   6.221   4.350   3.820 -2.2051  1.7144 -2.5618
   9123SM  C12S12238   6.139   4.231   3.983  0.7361  0.1137 -0.2164
   9123SM  H12S12239   6.213   4.150   3.997  0.7134 -0.1119 -1.3518
   9123SM  H12T12240   6.039   4.186   4.004  0.7414 -0.3387 -1.1346
   9123SM  C13S12241   6.178   4.336   4.094  0.2876 -0.3602  0.6039
   9123SM  H13S12242   6.172   4.435   4.044  0.8628 -1.4776 -1.8000
   9123SM  H13T12243   6.282   4.346   4.132 -0.5069  0.4831  2.7568
   9123SM  C14S12244   6.089   4.340   4.215  0.7572  0.4645 -0.1746
   9123SM  H14S12245   6.097   4.246   4.274 -0.6573  0.5531  0.1769
   9123SM  H14T12246   5.982   4.351   4.191  0.6522 -3.2669 -2.0133
   9123SM  C15S12247   6.133   4.442   4.319  0.1575 -0.5681  0.3626
   9123SM  H15S12248   6.156   4.536   4.265 -0.6956 -0.4902  0.1265
   9123SM  H15T12249   6.230   4.407   4.360 -0.4852 -0.9092  1.6621
   9123SM  C16S12250   6.025   4.464   4.429 -0.3418 -0.1411  0.3515
   9123SM  H16S12251   6.001   4.371   4.485 -2.2492 -0.3905 -0.7961
   9123SM  H16T12252   5.930   4.493   4.380 -1.1918 -1.1854  1.3018
   9123SM  C17S12253   6.070   4.564   4.541  0.1418  0.5969 -0.0200
   9123SM  H17S12254   6.082   4.660   4.488  2.0731  0.0638 -0.6274
   9123SM  H17T12255   6.176   4.550   4.571 -0.0748  0.9817  0.9871
   9123SM  C18S12256   5.973   4.562   4.661 -0.3259 -0.1305  0.1536
   9123SM  H18S12257   6.001   4.653   4.719 -1.2133 -0.9017  1.8736
   9123SM  H18T12258   5.979   4.470   4.724  0.1940  1.1700  2.0812
   9123SM  H18U12259   5.869   4.563   4.623 -0.4998  1.9814  0.5632
   9123SM   C1F12260   5.638   4.191   2.757 -0.6464  0.1133  0.0709
   9123SM    OF12261   5.630   4.094   2.682 -0.2611 -0.5828 -0.4155
   9123SM   C2F12262   5.512   4.259   2.794  0.1853 -0.6728 -0.4448
   9123SM   H2F12263   5.428   4.189   2.774 -2.1346  2.0042 -0.7840
   9123SM   H2G12264   5.499   4.349   2.729  0.8358  0.4654  0.9550
   9123SM   C3F12265   5.497   4.290   2.950 -0.1040  0.3170 -0.2846
   9123SM   H3F12266   5.409   4.354   2.972 -0.7720 -1.3977  2.5394
   9123SM   H3G12267   5.588   4.345   2.983  0.7191  0.3204 -2.3869
   9123SM   C4F12268   5.476   4.160   3.026 -0.3493  0.2677 -0.1990
   9123SM   H4F12269   5.537   4.082   2.976  2.0465  2.5074 -0.9887
   9123SM   H4G12270   5.375   4.113   3.022 -0.9499  1.4538  0.3294
   9123SM   C5F12271   5.514   4.167   3.171  0.5739  0.0349  0.6164
   9123SM   H5F12272   5.623   4.187   3.176  0.6510  0.0956 -0.7360
   9123SM   H5G12273   5.503   4.066   3.214 -3.5882 -0.1839 -0.5196
   9123SM   C6F12274   5.437   4.278   3.251 -0.1924  0.3389  0.2508
   9123SM   H6F12275   5.332   4.246   3.269 -1.2233  3.3598  0.2213
   9123SM   H6G12276   5.420   4.371   3.192  1.4760  2.1836  2.5188
   9123SM   C7F12277   5.503   4.307   3.385  0.0957 -0.3699  0.7696
   9123SM   H7F12278   5.452   4.396   3.428 -0.8733 -0.6505  0.2179
   9123SM   H7G12279   5.612   4.326   3.369 -0.1414  0.3506 -0.0451
   9123SM   C8F12280   5.509   4.183   3.485 -0.3437 -0.3229  0.3022
   9123SM   H8F12281   5.591   4.121   3.444 -0.9126 -1.3266  0.6420
   9123SM   H8G12282   5.409   4.134   3.478 -2.0084  2.5289  1.9504
   9123SM   C9F12283   5.539   4.220   3.628 -0.2079  0.0133  0.3908
   9123SM   H9F12284   5.455   4.261   3.689  1.5620 -0.1178  3.0780
   9123SM   H9G12285   5.619   4.296   3.636 -0.1039 -0.1172  0.5854
   9123SM  C10F12286   5.603   4.104   3.705 -0.0819  0.2934 -0.1791
   9123SM  H10F12287   5.700   4.082   3.657  0.6829 -0.1779  1.5261
   9123SM  H10G12288   5.531   4.020   3.690 -1.1734  1.2319 -0.3833
   9123SM  C11F12289   5.626   4.131   3.856 -0.9612  0.0764  0.8852
   9123SM  H11F12290   5.673   4.038   3.895  0.3318 -0.6444 -2.0449
   9123SM  H11G12291   5.526   4.153   3.899 -0.7602 -1.1379  2.0344
   9123SM  C12F12292   5.717   4.249   3.896 -0.5389  0.5534 -0.1556
   9123SM  H12F12293   5.666   4.341   3.860 -0.0075 -0.3624 -3.6706
   9123SM  H12G12294   5.818   4.235   3.851 -0.4651  1.5876 -0.3258
   9123SM  C13F12295   5.740   4.254   4.050  0.6315  0.0819  0.5666
   9123SM  H13F12296   5.839   4.301   4.071  1.8729 -1.8863 -0.5855
   9123SM  H13G12297   5.741   4.151   4.091 -0.6543  0.5629  1.9022
   9123SM  C14F12298   5.636   4.346   4.120  0.4336 -0.3716 -0.2507
   9123SM  H14F12299   5.531   4.316   4.096 -0.4091 -0.9528  3.5034
   9123SM  H14G12300   5.651   4.449   4.084 -0.4052  0.0641  0.5921
   9123SM  C15F12301   5.642   4.359   4.271  0.0168 -0.5599 -0.2079
   9123SM  H15F12302   5.750   4.370   4.295  0.5280 -0.9746 -2.1956
   9123SM  H15G12303   5.597   4.266   4.312  0.3607  0.4709  2.7418
   9123SM  C16F12304   5.560   4.475   4.328 -0.9894  0.3906 -0.2250
   9123SM  H16F12305   5.456   4.471   4.289 -1.9019  1.0796  1.9646
   9123SM  H16G12306   5.618   4.564   4.294  1.0120 -1.3680 -1.6685
   9123SM  C17F12307   5.562   4.472   4.480 -0.0918 -0.3862 -0.1611
   9123SM  H17F12308   5.666   4.467   4.518 -0.0140  1.2189 -0.1130
   9123SM  H17G12309   5.514   4.373   4.500  1.6138 -1.0778  0.7094
   9123SM  C18F12310   5.484   4.584   4.550  0.1916  0.6059  0.3359
   9123SM  H18F12311   5.387   4.598   4.499  1.6474  2.6091 -2.0924
   9123SM  H18G12312   5.539   4.676   4.522 -1.7253  1.6539 -0.1708
   9123SM  C19F12313   5.469   4.562   4.699  0.1415  0.4508  0.0505
   9123SM  H19F12314   5.564   4.596   4.744 -0.4718  1.5657  0.5465
   9123SM  H19G12315   5.451   4.454   4.717 -2.2058  0.6585 -0.6457
   9123SM  C20F12316   5.345   4.653   4.750 -0.3752  0.4158  0.1050
   9123SM  H20F12317   5.251   4.618   4.704 -1.3366  1.2544  1.3557
   9123SM  H20G12318   5.366   4.761   4.733 -0.3511  0.1566 -1.6070
   9123SM  C21F12319   5.320   4.649   4.898  0.9578  0.5386 -0.0851
   9123SM  H21F12320   5.250   4.733   4.914  0.1157 -0.2443  0.4421
   9123SM  H21G12321   5.411   4.659   4.960  0.4559 -3.0389  1.4795
   9123SM  C22F12322   5.235   4.528   4.930 -0.4277  0.3556  0.2196
   9123SM  H22F12323   5.286   4.442   4.882 -0.1360  0.8119 -0.3091
   9123SM  H22G12324   5.130   4.524   4.892  0.0042 -0.3953 -0.9432
   9123SM  C23F12325   5.229   4.508   5.085 -0.7284 -0.2252 -0.7612
   9123SM  H23F12326   5.167   4.588   5.131 -1.3315 -0.6722 -0.7792
   9123SM  H23G12327   5.334   4.511   5.121 -0.9447  4.1148  0.0317
   9123SM  H23H12328   5.185   4.410   5.114  1.5965 -0.7523  1.3514
   9223SM     N12329   6.306   0.995   3.269 -1.1411 -0.1560  0.3584
   9223SM   C1512330   6.402   0.962   3.376  0.2649 -0.3516 -0.2657
   9223SM  H15A12331   6.459   0.880   3.335  1.5059  0.7906 -0.9216
   9223SM  H15B12332   6.348   0.931   3.464  0.8243  3.2504  1.5190
   9223SM  H15C12333   6.476   1.036   3.402  0.2324  0.1063 -1.4058
   9223SM   C1412334   6.385   1.023   3.147  0.0895 -0.1408  0.8793
   9223SM  H14A12335   6.465   0.952   3.140  0.7572  0.7669 -1.8000
   9223SM  H14B12336   6.434   1.120   3.151  0.0187  0.0565 -1.6234
   9223SM  H14C12337   6.321   1.022   3.060  1.4068  0.7217 -0.1314
   9223SM   C1312338   6.210   0.888   3.243 -0.2272 -0.0464  0.3833
   9223SM  H13A12339   6.264   0.797   3.221  0.2430  0.3337 -0.0478
   9223SM  H13B12340   6.157   0.905   3.151 -0.6878 -1.4782  0.3642
   9223SM  H13C12341   6.137   0.880   3.323  0.2325  1.9032  1.0567
   9223SM   C1212342   6.233   1.117   3.305 -0.1392  0.8076 -0.4096
   9223SM  H12A12343   6.175   1.084   3.389  0.5654 -0.3527 -0.3420
   9223SM  H12B12344   6.157   1.140   3.232 -1.1130  1.2210  0.7188
   9223SM   C1112345   6.316   1.236   3.360  1.0268  0.2527 -0.1067
   9223SM  H11A12346   6.403   1.215   3.427  2.6171  1.6068 -1.6418
   9223SM  H11B12347   6.253   1.298   3.428 -0.7197 -0.1020 -1.3380
   9223SM     P12348   6.285   1.404   3.154  0.2601  0.0416  0.1690
   9223SM   O1312349   6.378   1.488   3.074 -0.1725 -0.1293 -0.6666
   9223SM   O1412350   6.176   1.333   3.079 -0.3667  0.2538 -0.3087
   9223SM   O1112351   6.214   1.508   3.250  0.1800 -0.2824 -0.7584
   9223SM   O1212352   6.367   1.309   3.253 -0.0631  0.1213  0.3543
   9223SM   C1S12353   6.070   1.491   3.270 -0.0893 -0.0988 -0.4928
   9223SM   H1S12354   6.040   1.387   3.296  0.0404 -0.2117 -0.7949
   9223SM   H1T12355   6.011   1.516   3.179  0.1942  0.1971 -0.5977
   9223SM    NF12356   5.887   1.551   3.423  0.3018  0.0402 -1.0530
   9223SM   HNF12357   5.814   1.604   3.381  0.6874  1.0762 -0.4430
   9223SM   C2S12358   6.020   1.585   3.389  0.0007  0.1933 -0.2635
   9223SM   H2S12359   6.083   1.547   3.472 -0.3188 -0.5386 -0.3502
   9223SM   C3S12360   6.061   1.733   3.365  0.3467  0.2143  0.6451
   9223SM   H3S12361   5.989   1.754   3.282  2.0790 -1.6362 -1.4610
   9223SM    O312362   6.189   1.756   3.306  0.6726  0.3004 -0.4468
   9223SM   HO312363   6.220   1.670   3.278  1.7699  0.8686 -1.0744
   9223SM   C4S12364   6.039   1.813   3.488  0.2554 -0.2457  0.0478
   9223SM   H4S12365   6.084   1.780   3.582 -0.4648  1.7377  1.1562
   9223SM   C5S12366   5.952   1.920   3.496 -0.2379  0.2588 -0.3005
   9223SM   H5S12367   5.894   1.959   3.410 -0.3446  0.6180 -0.0670
   9223SM   C6S12368   5.917   1.993   3.624  0.4438  1.1723 -0.1385
   9223SM   H6S12369   5.810   2.024   3.615  0.5825  1.4011 -1.1549
   9223SM   H6T12370   5.973   2.089   3.635 -0.1541  1.6083 -0.7968
   9223SM   C7S12371   5.934   1.919   3.767 -0.3176 -0.4264 -0.4695
   9223SM   H7S12372   6.038   1.882   3.759 -0.2124 -0.4032  0.6179
   9223SM   H7T12373   5.865   1.835   3.790  3.4632 -3.0073  2.7830
   9223SM   C8S12374   5.928   2.023   3.883 -0.4702 -0.3049 -0.5746
   9223SM   H8S12375   5.833   2.080   3.882 -0.4312 -0.2092  0.2983
   9223SM   H8T12376   6.009   2.099   3.887 -0.3506 -0.4769  2.6450
   9223SM   C9S12377   5.933   1.952   4.024 -0.4064 -0.6993 -0.0882
   9223SM   H9S12378   6.034   1.917   4.054 -0.5933 -1.5388 -0.3997
   9223SM   H9T12379   5.871   1.860   4.015 -0.8947 -0.5545  1.4289
   9223SM  C10S12380   5.861   2.031   4.136  0.1884 -0.1946  0.0160
   9223SM  H10S12381   5.762   2.064   4.099  1.1899  0.6350 -2.1147
   9223SM  H10T12382   5.917   2.125   4.157  0.1606 -0.0751 -0.4336
   9223SM  C11S12383   5.842   1.954   4.266  0.3580 -0.9921  0.1871
   9223SM  H11S12384   5.944   1.933   4.304  1.5795  1.0470 -1.7610
   9223SM  H11T12385   5.793   1.854   4.261 -1.8119  0.0054  0.3493
   9223SM  C12S12386   5.758   2.026   4.370  1.1141 -0.1449  0.0738
   9223SM  H12S12387   5.660   2.053   4.325  0.6357  1.7071  2.0293
   9223SM  H12T12388   5.812   2.118   4.402 -0.8133  0.6002  1.3639
   9223SM  C13S12389   5.719   1.934   4.487  0.6947  0.3982 -0.6266
   9223SM  H13S12390   5.809   1.890   4.534 -0.3790  0.4132  1.5544
   9223SM  H13T12391   5.652   1.850   4.456  1.6435 -0.3352 -0.7554
   9223SM  C14S12392   5.646   2.002   4.602  0.7170  0.4590 -0.3069
   9223SM  H14S12393   5.540   2.025   4.579 -0.3391 -1.9074  1.7792
   9223SM  H14T12394   5.700   2.089   4.646  0.2121 -0.4353  2.2211
   9223SM  C15S12395   5.628   1.906   4.724  0.4098 -0.0421 -0.3306
   9223SM  H15S12396   5.726   1.869   4.761  1.4830  2.2304 -0.7472
   9223SM  H15T12397   5.584   1.818   4.673 -0.3533  0.0206  0.1941
   9223SM  C16S12398   5.543   1.960   4.838  0.4504 -0.0971  0.0037
   9223SM  H16S12399   5.450   2.004   4.797  1.4162  0.6677 -1.4692
   9223SM  H16T12400   5.601   2.038   4.892  1.3613 -0.8168  0.0998
   9223SM  C17S12401   5.509   1.855   4.944 -0.4476 -0.5333  0.1090
   9223SM  H17S12402   5.480   1.760   4.894 -2.4699 -0.7776  1.6047
   9223SM  H17T12403   5.412   1.888   4.989 -1.6596  0.0021 -2.6876
   9223SM  C18S12404   5.620   1.834   5.053  0.0206  0.5857  0.1477
   9223SM  H18S12405   5.712   1.786   5.014 -0.8317 -0.8251 -0.1836
   9223SM  H18T12406   5.586   1.763   5.132  0.9214 -0.1147 -0.0767
   9223SM  H18U12407   5.637   1.930   5.107 -3.5355 -0.8665  4.4664
   9223SM   C1F12408   5.854   1.439   3.495 -0.1628 -0.2958  0.0709
   9223SM    OF12409   5.953   1.367   3.528  0.4575  0.6326 -0.0516
   9223SM   C2F12410   5.712   1.406   3.527  0.2666 -0.2461  0.0956
   9223SM   H2F12411   5.687   1.315   3.468  1.8437 -0.4673 -0.2815
   9223SM   H2G12412   5.641   1.484   3.492 -0.3632 -0.7021  0.3459
   9223SM   C3F12413   5.686   1.363   3.675 -0.1053  0.0239  0.5485
   9223SM   H3F12414   5.756   1.281   3.702  0.5873  0.5527  0.3742
   9223SM   H3G12415   5.585   1.326   3.703  0.2284 -2.5254 -1.2275
   9223SM   C4F12416   5.699   1.495   3.750  0.0914 -0.1232 -0.2273
   9223SM   H4F12417   5.622   1.566   3.712  1.9757  1.8479 -0.6009
   9223SM   H4G12418   5.791   1.551   3.723  0.1095  0.5526  1.1585
   9223SM   C5F12419   5.706   1.473   3.896  0.1995  0.1393 -0.3313
   9223SM   H5F12420   5.792   1.406   3.918  0.6044  0.2013 -1.6239
   9223SM   H5G12421   5.611   1.424   3.923  2.1729 -2.0942  3.3997
   9223SM   C6F12422   5.723   1.600   3.979 -0.3735  0.1817 -0.1579
   9223SM   H6F12423   5.656   1.683   3.948 -1.9844 -1.3284 -0.9004
   9223SM   H6G12424   5.828   1.633   3.966 -0.5256  0.6740 -0.1491
   9223SM   C7F12425   5.702   1.569   4.132  0.6244 -0.3322  0.5480
   9223SM   H7F12426   5.779   1.617   4.195  0.4572 -2.2353  2.2971
   9223SM   H7G12427   5.695   1.461   4.159 -0.9703 -1.0056 -2.0892
   9223SM   C8F12428   5.566   1.633   4.192  0.3133 -0.3463 -0.5830
   9223SM   H8F12429   5.480   1.603   4.128  0.4171 -0.8106 -0.5029
   9223SM   H8G12430   5.580   1.743   4.203 -2.8942  0.1791 -0.9067
   9223SM   C9F12431   5.538   1.581   4.336  0.3810 -0.7966 -0.7388
   9223SM   H9F12432   5.631   1.585   4.397  1.9674 -1.0652 -3.0373
   9223SM   H9G12433   5.516   1.472   4.328 -0.4968 -0.7200  0.3535
   9223SM  C10F12434   5.417   1.660   4.388  0.0345  0.0889 -0.3873
   9223SM  H10F12435   5.340   1.642   4.311 -0.0676  1.7123 -0.6843
   9223SM  H10G12436   5.444   1.767   4.400 -0.3876 -0.0802  3.4435
   9223SM  C11F12437   5.370   1.614   4.527 -0.2930 -0.1510  0.4259
   9223SM  H11F12438   5.451   1.594   4.600  0.2948  0.0400 -0.1720
   9223SM  H11G12439   5.311   1.522   4.509 -2.5646  1.4000 -0.7038
   9223SM  C12F12440   5.264   1.713   4.578  0.2988  0.4825  0.4193
   9223SM  H12F12441   5.198   1.749   4.496 -0.1771  0.9403  0.9956
   9223SM  H12G12442   5.327   1.798   4.610  0.4536  0.7417 -0.5241
   9223SM  C13F12443   5.194   1.652   4.703  0.0252  0.1048 -0.3141
   9223SM  H13F12444   5.272   1.625   4.777 -0.9934 -2.4251 -0.0456
   9223SM  H13G12445   5.127   1.567   4.674  0.2072 -1.1057  2.4678
   9223SM  C14F12446   5.096   1.755   4.779  0.3513  0.6687  0.4643
   9223SM  H14F12447   5.003   1.763   4.718 -0.2952  1.5258  1.5308
   9223SM  H14G12448   5.154   1.849   4.776 -0.4533  1.2371 -3.1680
   9223SM  C15F12449   5.055   1.716   4.923  0.1942 -0.0600 -0.4677
   9223SM  H15F12450   5.002   1.803   4.966  1.0565  0.0122  0.4858
   9223SM  H15G12451   5.136   1.680   4.990 -0.0655 -0.9599 -0.6261
   9223SM  C16F12452   4.950   1.601   4.906  0.0751 -0.4379 -0.1519
   9223SM  H16F12453   4.965   1.544   5.000 -0.6221 -2.0429 -0.9752
   9223SM  H16G12454   4.982   1.541   4.818  1.9640  0.5709 -0.1979
   9223SM  C17F12455   4.809   1.646   4.905  0.7018 -0.2034  0.2181
   9223SM  H17F12456   4.778   1.655   4.798  1.3232 -0.0990  0.0464
   9223SM  H17G12457   4.791   1.735   4.968 -0.3519 -1.8509  2.3964
   9223SM  C18F12458   4.710   1.547   4.967 -0.3747  0.0058 -0.4536
   9223SM  H18F12459   4.737   1.553   5.075 -1.0728  1.1494 -0.3199
   9223SM  H18G12460   4.721   1.445   4.925 -2.1556 -0.0356 -0.8923
   9223SM  C19F12461   4.566   1.590   4.963 -0.6293  0.1139 -0.4220
   9223SM  H19F12462   4.559   1.675   5.035  3.7632  1.1992 -1.0028
   9223SM  H19G12463   4.506   1.504   5.000  0.4164 -0.5762 -0.3026
   9223SM  C20F12464   4.508   1.628   4.835 -0.0162 -0.1549 -0.4209
   9223SM  H20F12465   4.571   1.590   4.752 -0.9659 -1.7405 -0.4564
   9223SM  H20G12466   4.504   1.739   4.835  0.2206 -0.1453 -0.1386
   9223SM  C21F12467   4.362   1.574   4.813  0.1854  1.0960 -0.6785
   9223SM  H21F12468   4.298   1.604   4.898  0.3410  0.7152 -0.4234
   9223SM  H21G12469   4.370   1.464   4.827  0.8915  1.3286  0.9882
   9223SM  C22F12470   4.297   1.609   4.680 -0.3524 -0.1656 -0.2789
   9223SM  H22F12471   4.268   1.716   4.691 -1.3190 -0.6093  1.9582
   9223SM  H22G12472   4.198   1.563   4.660  0.1089 -0.5979 -1.7582
   9223SM  C23F12473   4.389   1.577   4.555 -0.0456 -0.4578 -0.1035
   9223SM  H23F12474   4.489   1.626   4.559 -0.4510  0.2823  2.6473
   9223SM  H23G12475   4.333   1.628   4.473 -0.7315 -0.5487  0.3024
   9223SM  H23H12476   4.394   1.469   4.528 -1.6039 -0.3555 -0.9451
   9323SM     N12477   6.514   4.307   2.746 -0.3466 -0.1701  0.2238
   9323SM   C1512478   6.475   4.450   2.734  0.6637  0.0720 -0.6701
   9323SM  H15A12479   6.539   4.525   2.779 -1.3714  0.3783  2.0220
   9323SM  H15B12480   6.376   4.474   2.770  0.8177 -0.2567 -0.0227
   9323SM  H15C12481   6.466   4.467   2.628 -2.7813 -1.1999 -0.7022
   9323SM   C1412482   6.648   4.283   2.686  0.2441 -0.1230  0.1957
   9323SM  H14A12483   6.658   4.334   2.591  2.4828  3.0948  1.9822
   9323SM  H14B12484   6.653   4.179   2.655  0.7589 -0.2408  0.6681
   9323SM  H14C12485   6.731   4.285   2.755 -0.9245 -1.6845  1.7474
   9323SM   C1312486   6.523   4.264   2.886 -0.0866 -0.1854 -0.1218
   9323SM  H13A12487   6.439   4.279   2.951  0.7421 -1.8052  1.4082
   9323SM  H13B12488   6.610   4.305   2.937 -0.6422  1.6695 -0.5888
   9323SM  H13C12489   6.527   4.156   2.887  0.8756 -0.2019 -1.6691
   9323SM   C1212490   6.408   4.231   2.674  0.9047  1.2715 -0.6440
   9323SM  H12A12491   6.385   4.279   2.580 -2.9521 -1.4024 -1.2952
   9323SM  H12B12492   6.315   4.247   2.726  1.9152 -1.0187  2.1691
   9323SM   C1112493   6.424   4.091   2.617 -0.1415 -0.3427  0.4981
   9323SM  H11A12494   6.503   4.079   2.540  0.6395 -0.9965  1.3657
   9323SM  H11B12495   6.335   4.063   2.557 -0.2060 -0.2129  0.5325
   9323SM     P12496   6.575   3.924   2.743  0.1272  0.3030 -0.3665
   9323SM   O1312497   6.550   3.778   2.738 -1.1325  0.0716  0.1329
   9323SM   O1412498   6.691   3.971   2.658 -0.4645  0.0267 -0.3381
   9323SM   O1112499   6.614   3.954   2.896  0.2523  0.0442 -0.2447
   9323SM   O1212500   6.437   3.996   2.725 -0.2478  0.5919 -0.0952
   9323SM   C1S12501   6.509   3.939   2.994 -0.5792  0.4931  0.7869
   9323SM   H1S12502   6.464   3.838   2.981 -0.6066  0.4138  1.4749
   9323SM   H1T12503   6.425   4.008   2.969 -0.1580  0.0438 -2.2855
   9323SM    NF12504   6.444   3.935   3.230 -0.0535 -0.2544  0.6873
   9323SM   HNF12505   6.404   4.022   3.260 -1.4384 -0.0281 -1.6289
   9323SM   C2S12506   6.554   3.948   3.140 -0.5895  0.3855 -0.3716
   9323SM   H2S12507   6.614   3.859   3.171  0.3785  0.7089 -1.2429
   9323SM   C3S12508   6.657   4.062   3.163 -0.3282 -0.2500 -0.1679
   9323SM   H3S12509   6.614   4.157   3.124  0.7130  0.4080  0.2568
   9323SM    O312510   6.786   4.059   3.104 -0.1831  0.0006 -0.0224
   9323SM   HO312511   6.776   4.026   3.014  1.2881  1.1656 -0.6677
   9323SM   C4S12512   6.699   4.082   3.301  0.2234  0.5633 -0.6286
   9323SM   H4S12513   6.770   4.004   3.331  1.2293  0.0445 -3.9384
   9323SM   C5S12514   6.676   4.188   3.375  0.7823 -0.1421 -0.2908
   9323SM   H5S12515   6.626   4.270   3.321 -0.2424 -1.2933 -1.1271
   9323SM   C6S12516   6.730   4.205   3.520  0.1013 -0.0924 -0.4883
   9323SM   H6S12517   6.705   4.310   3.546 -0.3934 -0.7736  2.0722
   9323SM   H6T12518   6.841   4.204   3.517  0.2558 -2.2058  2.2196
   9323SM   C7S12519   6.666   4.117   3.637 -0.2037 -0.4583  0.1037
   9323SM   H7S12520   6.682   4.010   3.611  0.4586  0.0420 -1.6731
   9323SM   H7T12521   6.557   4.134   3.641 -0.1961 -0.3740 -0.0425
   9323SM   C8S12522   6.730   4.151   3.769  0.6189 -0.2128  0.0805
   9323SM   H8S12523   6.659   4.132   3.852  0.5430 -1.1957 -0.2038
   9323SM   H8T12524   6.757   4.259   3.767 -1.2370  0.2888  0.5631
   9323SM   C9S12525   6.854   4.061   3.791 -0.1357 -0.1504 -0.3621
   9323SM   H9S12526   6.920   4.063   3.702  1.6498 -1.3840  0.8756
   9323SM   H9T12527   6.815   3.958   3.805 -1.1800  0.0320 -1.7146
   9323SM  C10S12528   6.938   4.097   3.919 -0.3347 -0.2878  0.3152
   9323SM  H10S12529   7.001   4.187   3.904  0.3536 -0.5886  1.2523
   9323SM  H10T12530   7.006   4.012   3.943  0.8412  0.6364  0.3351
   9323SM  C11S12531   6.854   4.132   4.042  1.2145 -0.1284  0.1505
   9323SM  H11S12532   6.781   4.056   4.077  1.1905  0.0355  0.4598
   9323SM  H11T12533   6.797   4.227   4.027  1.7270  0.6417  2.6437
   9323SM  C12S12534   6.943   4.145   4.162  0.0594 -0.1107 -0.3826
   9323SM  H12S12535   6.986   4.247   4.159 -1.4434  0.6266  1.2798
   9323SM  H12T12536   7.023   4.068   4.162  2.0501  1.8438 -1.3150
   9323SM  C13S12537   6.867   4.147   4.296  0.4057  0.2506 -0.1453
   9323SM  H13S12538   6.788   4.069   4.291 -0.3869  1.0820 -0.7641
   9323SM  H13T12539   6.812   4.243   4.300  0.9112  0.6089 -1.3964
   9323SM  C14S12540   6.953   4.128   4.422  0.7080 -0.4535  0.7489
   9323SM  H14S12541   7.014   4.036   4.414  0.9785 -0.1922 -0.3123
   9323SM  H14T12542   6.893   4.117   4.516  2.5229  0.9099  2.1357
   9323SM  C15S12543   7.046   4.244   4.460 -0.6304 -0.3836  0.3934
   9323SM  H15S12544   7.112   4.263   4.373  1.2227 -0.1657  1.7701
   9323SM  H15T12545   6.993   4.341   4.475  0.4141  0.2671  0.0042
   9323SM  C16S12546   7.140   4.206   4.573  0.6195 -0.4556 -0.1703
   9323SM  H16S12547   7.176   4.102   4.565 -1.3618 -1.4118  2.0090
   9323SM  H16T12548   7.086   4.217   4.670 -0.9636 -0.5905 -0.9976
   9323SM  C17S12549   7.266   4.282   4.564  0.4712 -0.1767 -0.5154
   9323SM  H17S12550   7.239   4.388   4.544  1.7698  0.0871 -0.9065
   9323SM  H17T12551   7.312   4.241   4.472 -0.2220 -0.1181 -0.8961
   9323SM  C18S12552   7.355   4.262   4.687 -0.0990  0.1025  0.3850
   9323SM  H18S12553   7.446   4.326   4.690 -0.5313  0.8455 -1.0921
   9323SM  H18T12554   7.394   4.159   4.697 -0.1455 -0.1540 -1.7227
   9323SM  H18U12555   7.297   4.287   4.779  0.1301 -0.1069  0.5851
   9323SM   C1F12556   6.368   3.827   3.237  0.5321 -0.5255 -0.5391
   9323SM    OF12557   6.393   3.720   3.182 -0.2044 -0.0234 -0.1854
   9323SM   C2F12558   6.232   3.841   3.312  0.4686 -0.5170  0.5152
   9323SM   H2F12559   6.157   3.886   3.243 -1.2567 -1.5292  1.6583
   9323SM   H2G12560   6.249   3.922   3.387 -0.4938  0.5868 -0.4151
   9323SM   C3F12561   6.168   3.718   3.377  0.8389  0.7088 -0.6222
   9323SM   H3F12562   6.171   3.635   3.303 -2.7639  1.3126 -1.6235
   9323SM   H3G12563   6.061   3.738   3.399  1.2078  2.6338 -0.4538
   9323SM   C4F12564   6.236   3.668   3.509  0.0225  0.4155  0.7736
   9323SM   H4F12565   6.323   3.606   3.480  0.2966  0.9840  0.3723
   9323SM   H4G12566   6.160   3.601   3.554 -0.9499 -0.7744 -2.3202
   9323SM   C5F12567   6.282   3.781   3.612 -0.4493  0.1398 -0.0354
   9323SM   H5F12568   6.187   3.834   3.630 -0.4488 -0.2079  1.0589
   9323SM   H5G12569   6.355   3.847   3.559  0.5518 -2.6321 -2.3948
   9323SM   C6F12570   6.334   3.741   3.745 -0.0120  0.5240  0.0183
   9323SM   H6F12571   6.423   3.675   3.739 -0.5102 -0.0690 -1.1319
   9323SM   H6G12572   6.268   3.668   3.796  0.5104  1.6682  2.4749
   9323SM   C7F12573   6.349   3.867   3.837 -0.7245  0.5338  0.2069
   9323SM   H7F12574   6.256   3.925   3.821 -0.6503  0.4337 -0.6269
   9323SM   H7G12575   6.430   3.929   3.794 -1.8864  3.4727  1.9538
   9323SM   C8F12576   6.372   3.834   3.980  0.3138 -0.2039 -0.8900
   9323SM   H8F12577   6.434   3.742   3.987  0.8627  0.2242  0.0972
   9323SM   H8G12578   6.270   3.822   4.021 -1.2050  2.4576 -3.5034
   9323SM   C9F12579   6.444   3.952   4.054  0.2023  1.0717 -1.2674
   9323SM   H9F12580   6.415   4.052   4.014  2.9384  2.3405 -0.3044
   9323SM   H9G12581   6.545   3.948   4.009  0.2921 -0.2179 -0.9712
   9323SM  C10F12582   6.437   3.958   4.201 -0.0025  0.2846 -0.3852
   9323SM  H10F12583   6.329   3.952   4.228 -0.1698 -0.3577 -1.1461
   9323SM  H10G12584   6.482   4.059   4.211  1.8798 -0.3614 -1.7019
   9323SM  C11F12585   6.500   3.836   4.272 -1.1731  0.6064  0.0017
   9323SM  H11F12586   6.605   3.810   4.248 -1.3446 -1.2861  1.0440
   9323SM  H11G12587   6.446   3.747   4.231  0.7841 -1.9352  2.5073
   9323SM  C12F12588   6.502   3.833   4.424 -0.7528 -0.5609  0.1973
   9323SM  H12F12589   6.534   3.734   4.461  1.9331  0.7492  1.7139
   9323SM  H12G12590   6.395   3.848   4.450 -1.3059  0.1809 -2.2463
   9323SM  C13F12591   6.605   3.933   4.483  0.4729 -0.3648  0.0588
   9323SM  H13F12592   6.627   4.017   4.413 -1.0512 -0.1836 -0.2500
   9323SM  H13G12593   6.694   3.872   4.509 -0.9968 -2.0309  1.4991
   9323SM  C14F12594   6.552   3.982   4.616  0.7121 -0.3392 -0.6334
   9323SM  H14F12595   6.642   4.030   4.660  1.3017 -0.3317 -1.7818
   9323SM  H14G12596   6.523   3.895   4.678  2.6807 -1.4174 -1.1080
   9323SM  C15F12597   6.448   4.091   4.618  0.1425  0.1351  0.3675
   9323SM  H15F12598   6.355   4.075   4.560 -0.8404  1.3004  1.5692
   9323SM  H15G12599   6.485   4.189   4.580 -1.5797  0.5169 -0.4114
   9323SM  C16F12600   6.399   4.127   4.758  0.4955  0.1648 -0.0462
   9323SM  H16F12601   6.481   4.183   4.808  0.8993 -0.4747  0.0217
   9323SM  H16G12602   6.377   4.032   4.810 -1.0337 -0.6914 -2.0972
   9323SM  C17F12603   6.273   4.219   4.761  0.2145 -0.5078  0.7415
   9323SM  H17F12604   6.182   4.182   4.711  0.6707 -1.2074  0.4103
   9323SM  H17G12605   6.298   4.312   4.706 -0.2464 -0.6768  0.2422
   9323SM  C18F12606   6.235   4.252   4.910  0.6260 -0.6331  0.5896
   9323SM  H18F12607   6.327   4.254   4.973  2.2669 -1.0159 -1.6578
   9323SM  H18G12608   6.169   4.168   4.942 -1.0909  0.4469  0.0209
   9323SM  C19F12609   6.147   4.381   4.924  0.4813 -0.1318  0.6054
   9323SM  H19F12610   6.045   4.357   4.887  0.5388 -2.0580  1.6018
   9323SM  H19G12611   6.198   4.460   4.864 -1.1299 -0.1734 -0.8782
   9323SM  C20F12612   6.128   4.436   5.064  0.1492  0.6095 -0.1815
   9323SM  H20F12613   6.051   4.366   5.103  0.0822  0.8310  0.0876
   9323SM  H20G12614   6.082   4.537   5.062  1.3004  1.1347 -1.1579
   9323SM  C21F12615   6.246   4.436   5.159  0.1523 -0.7560 -0.2168
   9323SM  H21F12616   6.315   4.522   5.150 -0.3837 -0.3278 -0.2750
   9323SM  H21G12617   6.295   4.336   5.150  0.9690 -0.2631 -1.6588
   9323SM  C22F12618   6.204   4.444   5.306 -0.1780 -0.4293  0.1312
   9323SM  H22F12619   6.129   4.521   5.336  0.7627  0.1510  1.0339
   9323SM  H22G12620   6.292   4.461   5.371  1.2038 -1.8267 -1.2923
   9323SM  C23F12621   6.153   4.309   5.349  0.3094  0.4502  0.5874
   9323SM  H23F12622   6.231   4.235   5.321  0.6876  1.3338 -0.8177
   9323SM  H23G12623   6.060   4.285   5.293  0.2826  2.9514 -0.5719
   9323SM  H23H12624   6.129   4.313   5.458  0.8415  0.2390  0.7123
   9423SM     N12625   6.774   6.470   2.586  0.0475  0.3566 -0.0280
   9423SM   C1512626   6.658   6.424   2.505  0.1732 -0.1486  0.3974
   9423SM  H15A12627   6.667   6.317   2.495  1.3482  0.1323 -2.4883
   9423SM  H15B12628   6.650   6.462   2.404  1.4991  0.9772  0.6791
   9423SM  H15C12629   6.570   6.447   2.563 -0.1306 -1.3729  0.4506
   9423SM   C1412630   6.893   6.383   2.543 -0.3338 -0.6251 -0.4049
   9423SM  H14A12631   6.895   6.350   2.440  1.2838 -1.2727 -0.2003
   9423SM  H14B12632   6.933   6.309   2.610  0.1574  2.4038  2.9631
   9423SM  H14C12633   6.976   6.452   2.556 -0.3195 -0.0657 -2.8982
   9423SM   C1312634   6.806   6.607   2.552  0.4744  0.2116  0.0826
   9423SM  H13A12635   6.887   6.651   2.608  0.1548  0.3136  0.4656
   9423SM  H13B12636   6.730   6.682   2.570  1.5086  1.0957  0.9240
   9423SM  H13C12637   6.837   6.608   2.449  0.8076  0.1672  0.1839
   9423SM   C1212638   6.747   6.437   2.734 -0.0627  0.4640  0.6910
   9423SM  H12A12639   6.837   6.457   2.790  0.8489 -0.1849 -0.4945
   9423SM  H12B12640   6.730   6.330   2.737  2.7655 -0.0526  0.7854
   9423SM   C1112641   6.635   6.515   2.805 -0.0762  0.3210  0.4974
   9423SM  H11A12642   6.658   6.623   2.816 -1.1783  0.7758 -1.2262
   9423SM  H11B12643   6.628   6.477   2.910 -0.5009  0.8450  0.6611
   9423SM     P12644   6.428   6.367   2.752 -0.2647 -0.4124 -0.2713
   9423SM   O1312645   6.314   6.376   2.659 -0.5811 -0.2520  0.0102
   9423SM   O1412646   6.516   6.254   2.743  0.4194  0.1964 -0.1472
   9423SM   O1112647   6.367   6.375   2.895  0.3504 -0.6619 -0.4488
   9423SM   O1212648   6.503   6.507   2.751  0.2709 -0.3010  0.4222
   9423SM   C1S12649   6.438   6.375   3.020  0.8218 -0.0217 -0.1083
   9423SM   H1S12650   6.478   6.476   3.043  0.2068  0.2390 -0.1713
   9423SM   H1T12651   6.529   6.311   3.012  2.4722  2.3958 -2.1951
   9423SM    NF12652   6.405   6.347   3.258 -0.3147  0.1292  0.0480
   9423SM   HNF12653   6.437   6.266   3.306  4.0036  1.9717  0.7574
   9423SM   C2S12654   6.341   6.334   3.129 -0.6369 -0.2942 -0.4093
   9423SM   H2S12655   6.258   6.407   3.125 -1.0148 -0.7117 -0.2677
   9423SM   C3S12656   6.284   6.195   3.097 -0.5788 -0.5402 -0.6391
   9423SM   H3S12657   6.374   6.132   3.087  1.6732  2.1368  1.2581
   9423SM    O312658   6.208   6.180   2.979  0.5749 -0.0208  0.1766
   9423SM   HO312659   6.235   6.255   2.926  2.3417 -1.9156 -1.8162
   9423SM   C4S12660   6.186   6.161   3.202 -0.4555 -0.3582  0.5933
   9423SM   H4S12661   6.091   6.216   3.191 -0.3822 -0.7646 -4.2070
   9423SM   C5S12662   6.216   6.078   3.303 -0.0538 -0.0749 -0.0911
   9423SM   H5S12663   6.316   6.033   3.310 -0.2150 -0.6266 -1.1443
   9423SM   C6S12664   6.121   6.051   3.418 -0.6235 -0.3059 -0.3861
   9423SM   H6S12665   6.111   5.940   3.421  0.8678 -0.5456 -2.3253
   9423SM   H6T12666   6.021   6.097   3.406 -1.2249 -1.3480  0.4625
   9423SM   C7S12667   6.185   6.084   3.556  0.6424 -0.3390 -0.2999
   9423SM   H7S12668   6.211   6.193   3.557 -0.9434  0.0714 -1.0598
   9423SM   H7T12669   6.276   6.020   3.564  0.6281 -0.2102  1.1931
   9423SM   C8S12670   6.097   6.061   3.684 -0.3078 -0.2910 -0.1611
   9423SM   H8S12671   6.078   5.953   3.701 -0.6962  0.2588  3.7796
   9423SM   H8T12672   6.005   6.120   3.665  0.5215  0.6805 -1.2797
   9423SM   C9S12673   6.177   6.114   3.805  0.0218  0.6313 -0.5236
   9423SM   H9S12674   6.207   6.215   3.770 -0.9065  1.1545  0.1345
   9423SM   H9T12675   6.268   6.053   3.822  0.6293  1.4243 -0.9063
   9423SM  C10S12676   6.093   6.123   3.933 -0.1307  0.2195 -0.1748
   9423SM  H10S12677   6.050   6.023   3.951  1.0789 -0.1537  0.7731
   9423SM  H10T12678   6.018   6.199   3.902  0.9243  0.3616 -2.5969
   9423SM  C11S12679   6.180   6.177   4.043  0.2020  0.5439  0.2861
   9423SM  H11S12680   6.240   6.266   4.014  1.6115 -0.5852 -0.3618
   9423SM  H11T12681   6.252   6.095   4.063 -0.6538 -0.2368  0.2248
   9423SM  C12S12682   6.097   6.211   4.166  0.7834  0.0224 -0.1806
   9423SM  H12S12683   6.048   6.121   4.209  1.0363  1.5006  3.6183
   9423SM  H12T12684   6.020   6.285   4.136  1.1039 -0.7843 -3.3065
   9423SM  C13S12685   6.179   6.280   4.278  0.4357 -0.1498  0.3017
   9423SM  H13S12686   6.205   6.386   4.263  0.7570 -0.0568  1.4401
   9423SM  H13T12687   6.279   6.233   4.284  0.7067  0.3429 -0.2884
   9423SM  C14S12688   6.116   6.259   4.410 -0.0097 -0.6224 -0.3030
   9423SM  H14S12689   6.183   6.304   4.486 -1.5769  0.4237  0.5078
   9423SM  H14T12690   6.126   6.151   4.433 -0.5894 -0.2582  1.8311
   9423SM  C15S12691   5.970   6.307   4.425 -0.0702 -0.0935  0.2491
   9423SM  H15S12692   5.943   6.295   4.532  0.8410  1.0509  0.6244
   9423SM  H15T12693   5.899   6.248   4.362  1.2678 -1.0662 -0.4066
   9423SM  C16S12694   5.947   6.453   4.405  0.4099  0.3770  0.1122
   9423SM  H16S12695   5.837   6.465   4.398  0.6545  2.7062 -0.6411
   9423SM  H16T12696   5.990   6.475   4.305  2.8321 -0.9058  0.7829
   9423SM  C17S12697   5.996   6.543   4.506 -0.6319 -0.6174 -0.6520
   9423SM  H17S12698   6.002   6.648   4.472 -0.4355 -0.5550 -0.4272
   9423SM  H17T12699   6.103   6.518   4.526 -0.8630 -1.8664 -0.8653
   9423SM  C18S12700   5.912   6.544   4.633 -0.1096 -0.0473 -0.1674
   9423SM  H18S12701   5.946   6.625   4.701  0.3995  1.5102 -2.1633
   9423SM  H18T12702   5.934   6.455   4.696  0.1320  1.4262  1.9155
   9423SM  H18U12703   5.802   6.544   4.618 -0.3414  0.4038  1.3547
   9423SM   C1F12704   6.428   6.469   3.307  0.3716  0.0150  0.7197
   9423SM    OF12705   6.391   6.579   3.253 -0.2092 -0.3385 -0.1961
   9423SM   C2F12706   6.499   6.471   3.435  0.9937 -0.3839  0.1607
   9423SM   H2F12707   6.563   6.561   3.437  1.8980 -0.9814 -0.6967
   9423SM   H2G12708   6.567   6.383   3.445  0.4882 -0.6756  1.0956
   9423SM   C3F12709   6.394   6.456   3.543  0.0659  0.7145 -0.2874
   9423SM   H3F12710   6.341   6.360   3.524 -0.8060  0.7631  1.6849
   9423SM   H3G12711   6.313   6.532   3.548 -0.8459 -0.0540 -2.2443
   9423SM   C4F12712   6.465   6.432   3.684 -0.4343  0.0999 -0.0214
   9423SM   H4F12713   6.547   6.359   3.670 -2.5065 -2.3707 -0.1845
   9423SM   H4G12714   6.392   6.369   3.740 -0.3889  0.3303  0.2999
   9423SM   C5F12715   6.497   6.567   3.749  0.6551  0.1313 -0.0267
   9423SM   H5F12716   6.412   6.637   3.735  0.1503 -0.4135  0.2739
   9423SM   H5G12717   6.590   6.610   3.708  0.7065 -1.1789 -1.3502
   9423SM   C6F12718   6.507   6.559   3.904 -1.0552 -0.5181  0.0686
   9423SM   H6F12719   6.573   6.472   3.927  1.7810  1.4531 -0.0887
   9423SM   H6G12720   6.409   6.540   3.953 -0.9154 -1.2095  0.0998
   9423SM   C7F12721   6.579   6.688   3.956  0.2778 -0.1877  0.9527
   9423SM   H7F12722   6.499   6.763   3.939  1.8295  1.3657  0.1060
   9423SM   H7G12723   6.668   6.715   3.895 -0.8769  0.7947 -0.3434
   9423SM   C8F12724   6.613   6.669   4.105  0.8867 -0.2309  0.1692
   9423SM   H8F12725   6.683   6.583   4.114 -0.0968 -1.1381 -0.5062
   9423SM   H8G12726   6.525   6.632   4.161  1.8072 -2.9300 -0.0028
   9423SM   C9F12727   6.662   6.803   4.163  0.8188 -0.1965  0.6240
   9423SM   H9F12728   6.573   6.867   4.181  0.0901 -0.3272 -2.0734
   9423SM   H9G12729   6.718   6.858   4.084 -0.6044  0.4179  0.0073
   9423SM  C10F12730   6.748   6.794   4.292  0.6139 -0.2999 -0.0083
   9423SM  H10F12731   6.815   6.705   4.286 -0.5289 -1.2813  1.3050
   9423SM  H10G12732   6.681   6.776   4.378  0.7394 -0.6267  0.0211
   9423SM  C11F12733   6.814   6.927   4.319  0.0919  0.1900  0.1007
   9423SM  H11F12734   6.751   7.017   4.300 -2.1775 -1.5355 -1.0627
   9423SM  H11G12735   6.899   6.923   4.248 -0.1463  1.8027 -0.3146
   9423SM  C12F12736   6.878   6.919   4.459  0.2723  0.5182 -0.4960
   9423SM  H12F12737   6.944   7.002   4.494 -1.0520  1.0625  0.8570
   9423SM  H12G12738   6.943   6.829   4.449  1.0056  0.9244  0.3823
   9423SM  C13F12739   6.787   6.899   4.583  0.2137  0.2803 -0.3623
   9423SM  H13F12740   6.747   6.796   4.576 -0.5566  0.1263  3.7189
   9423SM  H13G12741   6.703   6.971   4.591 -0.9620 -1.1428  0.5563
   9423SM  C14F12742   6.855   6.893   4.720  1.1695  0.2186  0.1714
   9423SM  H14F12743   6.892   6.992   4.755 -1.6197  1.1631  0.7308
   9423SM  H14G12744   6.939   6.821   4.708 -0.7775 -1.8971 -1.6726
   9423SM  C15F12745   6.765   6.844   4.835 -0.5521 -0.0575 -1.1908
   9423SM  H15F12746   6.737   6.736   4.825 -0.1295 -0.4853  1.5419
   9423SM  H15G12747   6.667   6.897   4.834  0.1635  1.3388  0.0750
   9423SM  C16F12748   6.823   6.863   4.977  0.4065  0.3769 -0.4138
   9423SM  H16F12749   6.829   6.972   4.998 -0.5922  0.9479 -2.7282
   9423SM  H16G12750   6.926   6.824   4.971 -0.1385 -0.9506 -1.6149
   9423SM  C17F12751   6.739   6.795   5.085 -0.8775  0.4468 -0.4257
   9423SM  H17F12752   6.734   6.688   5.056 -0.2385  0.8506 -2.1202
   9423SM  H17G12753   6.634   6.832   5.083 -1.0302  0.2982  1.9461
   9423SM  C18F12754   6.806   6.811   5.214 -0.8527  0.0300 -0.3096
   9423SM  H18F12755   6.860   6.905   5.235  0.5606 -1.0758  1.3230
   9423SM  H18G12756   6.894   6.743   5.207 -2.2321 -1.8152 -0.7972
   9423SM  C19F12757   6.721   6.753   5.324 -0.4495 -0.1664  1.1083
   9423SM  H19F12758   6.623   6.804   5.315 -0.9829 -1.3098  0.1982
   9423SM  H19G12759   6.775   6.786   5.415  0.5506  0.7485  0.2075
   9423SM  C20F12760   6.707   6.604   5.318 -0.2690 -0.4316  0.4091
   9423SM  H20F12761   6.811   6.564   5.311 -0.4266 -0.5756 -3.3152
   9423SM  H20G12762   6.647   6.587   5.226  0.8983  2.9587 -1.1242
   9423SM  C21F12763   6.639   6.544   5.439 -0.4719 -0.3004 -0.9690
   9423SM  H21F12764   6.540   6.594   5.451  0.2784  0.9500  0.2694
   9423SM  H21G12765   6.696   6.575   5.529 -1.3948 -1.2549 -0.0196
   9423SM  C22F12766   6.614   6.391   5.435  0.3150 -0.4495 -0.3956
   9423SM  H22F12767   6.692   6.338   5.377 -1.6587 -0.8364 -2.8925
   9423SM  H22G12768   6.535   6.375   5.358  1.4227 -0.9878 -1.4608
   9423SM  C23F12769   6.586   6.313   5.568  0.0696 -0.8254  0.2154
   9423SM  H23F12770   6.678   6.322   5.629 -0.2609  0.1017  0.5942
   9423SM  H23G12771   6.565   6.206   5.546 -0.7359 -1.1412  2.3320
   9423SM  H23H12772   6.497   6.360   5.616 -0.0267 -0.0397 -0.7060
   9523SM     N12773   2.092   1.240   3.270  0.1091  0.2491 -0.6155
   9523SM   C1512774   2.222   1.166   3.236 -0.3455 -0.5703  0.2311
   9523SM  H15A12775   2.213   1.061   3.259 -0.9152 -0.5420  0.1700
   9523SM  H15B12776   2.303   1.217   3.285 -0.0667 -0.1346 -0.6578
   9523SM  H15C12777   2.230   1.169   3.128 -1.3250 -1.9339  0.0854
   9523SM   C1412778   2.106   1.383   3.234 -0.2022  0.0175  0.5253
   9523SM  H14A12779   2.135   1.392   3.130  2.3288 -1.8663  0.9974
   9523SM  H14B12780   2.198   1.414   3.281 -0.2505  0.3015  0.4375
   9523SM  H14C12781   2.026   1.446   3.270  0.4676  0.3705  1.4415
   9523SM   C1312782   1.990   1.180   3.168  0.6753 -0.3252 -0.5957
   9523SM  H13A12783   2.019   1.195   3.065 -1.8678 -1.1235 -1.5032
   9523SM  H13B12784   1.892   1.221   3.186 -0.2419 -2.5073 -0.2658
   9523SM  H13C12785   1.977   1.074   3.186  4.0748 -0.7930 -0.2629
   9523SM   C1212786   2.040   1.231   3.414 -0.4553 -0.1046 -0.0020
   9523SM  H12A12787   2.124   1.267   3.471  1.0191 -0.8560 -1.5829
   9523SM  H12B12788   2.020   1.127   3.433  0.0878  0.0401  1.4182
   9523SM   C1112789   1.909   1.306   3.455 -0.1885  0.5233 -0.4041
   9523SM  H11A12790   1.877   1.278   3.558  0.9825  0.7796  0.0525
   9523SM  H11B12791   1.834   1.269   3.382  1.3412 -2.2422 -0.7239
   9523SM     P12792   2.011   1.528   3.550 -0.2218  0.2447 -0.1392
   9523SM   O1312793   2.134   1.450   3.583 -0.7103 -0.2156 -0.5114
   9523SM   O1412794   2.040   1.668   3.511 -0.2216 -0.1291  0.0298
   9523SM   O1112795   1.925   1.515   3.681  0.8755  0.0635  0.4609
   9523SM   O1212796   1.926   1.450   3.444  0.8290  0.3432 -0.2707
   9523SM   C1S12797   1.986   1.544   3.802  1.0971  0.2047 -0.9533
   9523SM   H1S12798   2.021   1.649   3.807 -0.3568  0.6803  0.0542
   9523SM   H1T12799   2.074   1.481   3.825  1.0761 -0.0635 -1.6057
   9523SM    NF12800   1.952   1.529   4.041 -0.5791  0.3071  0.2451
   9523SM   HNF12801   1.980   1.450   4.094 -1.1335  1.1287  1.8442
   9523SM   C2S12802   1.881   1.514   3.913  0.7968 -0.0672 -0.0373
   9523SM   H2S12803   1.798   1.588   3.910 -0.1974 -1.0891  1.3572
   9523SM   C3S12804   1.808   1.378   3.893 -0.3208 -0.5347  0.0573
   9523SM   H3S12805   1.886   1.299   3.902 -0.2226 -0.2424  2.4596
   9523SM    O312806   1.746   1.362   3.763 -0.7573  0.3784  0.3681
   9523SM   HO312807   1.807   1.403   3.701  0.3651 -2.7468 -0.8210
   9523SM   C4S12808   1.706   1.364   3.997 -0.2932  0.6006  0.0554
   9523SM   H4S12809   1.624   1.433   3.975  0.3184  1.3874  0.1973
   9523SM   C5S12810   1.697   1.275   4.099 -0.2611  0.1829  0.3728
   9523SM   H5S12811   1.774   1.197   4.100 -0.8781 -0.6975 -3.5382
   9523SM   C6S12812   1.574   1.262   4.192  0.8777  0.0929  0.1264
   9523SM   H6S12813   1.558   1.161   4.235 -2.4666 -0.4516 -2.0119
   9523SM   H6T12814   1.478   1.280   4.140  0.0540  0.9933  1.8583
   9523SM   C7S12815   1.577   1.356   4.315  0.4478  0.0326  0.2240
   9523SM   H7S12816   1.664   1.332   4.380 -0.2355  0.3068  1.2588
   9523SM   H7T12817   1.482   1.343   4.371  1.0435  0.1829  1.2823
   9523SM   C8S12818   1.575   1.507   4.281  0.6847 -0.0348 -0.4706
   9523SM   H8S12819   1.483   1.530   4.223 -0.3329 -3.6827 -0.5274
   9523SM   H8T12820   1.659   1.547   4.220  0.2278  2.0561  0.1731
   9523SM   C9S12821   1.553   1.595   4.414  0.0962 -0.0912  0.3775
   9523SM   H9S12822   1.484   1.550   4.489 -0.8875  0.8889  0.0994
   9523SM   H9T12823   1.506   1.687   4.372  1.5633  0.7430  0.5209
   9523SM  C10S12824   1.688   1.636   4.482  0.7017  0.3604 -0.5702
   9523SM  H10S12825   1.732   1.709   4.410 -0.8446  1.5829 -0.3178
   9523SM  H10T12826   1.757   1.549   4.490  2.4681  1.7170 -0.4023
   9523SM  C11S12827   1.669   1.695   4.621 -0.1845 -0.4983  0.4780
   9523SM  H11S12828   1.608   1.623   4.680 -3.2553  0.4372 -1.3639
   9523SM  H11T12829   1.593   1.775   4.616  1.4235  1.0499 -0.4530
   9523SM  C12S12830   1.792   1.757   4.676 -0.2460 -0.0164 -0.1253
   9523SM  H12S12831   1.882   1.691   4.667  1.0669  1.7297 -0.4290
   9523SM  H12T12832   1.760   1.774   4.780 -1.1387  1.9769 -0.6831
   9523SM  C13S12833   1.831   1.904   4.641 -0.1215  0.1246 -0.0504
   9523SM  H13S12834   1.748   1.968   4.675  0.2467  0.5611  0.0384
   9523SM  H13T12835   1.831   1.898   4.530  0.8766  0.4636 -0.0814
   9523SM  C14S12836   1.968   1.939   4.707 -0.3718  0.1260  0.1977
   9523SM  H14S12837   2.053   1.878   4.669 -2.1018 -2.2961  0.0424
   9523SM  H14T12838   1.955   1.925   4.816  0.9372  0.1886  0.3718
   9523SM  C15S12839   1.992   2.095   4.696 -0.4868 -0.1880  0.0346
   9523SM  H15S12840   1.898   2.143   4.733 -0.6755  0.3009 -1.0572
   9523SM  H15T12841   1.979   2.124   4.590  0.8262 -1.1355 -0.4035
   9523SM  C16S12842   2.110   2.142   4.785 -0.3721  0.0664 -0.1291
   9523SM  H16S12843   2.198   2.113   4.724 -0.2942  2.1185 -1.1079
   9523SM  H16T12844   2.104   2.082   4.878 -0.2682  0.3718  0.0772
   9523SM  C17S12845   2.123   2.290   4.822 -0.3890 -0.3298  0.1323
   9523SM  H17S12846   2.050   2.311   4.903 -0.7236  2.1710 -0.7431
   9523SM  H17T12847   2.096   2.351   4.733  0.3700 -0.5011 -0.2282
   9523SM  C18S12848   2.269   2.331   4.853 -0.4042  0.0901 -0.6880
   9523SM  H18S12849   2.264   2.437   4.885 -0.4935 -0.2841  0.6131
   9523SM  H18T12850   2.335   2.316   4.765 -0.8491 -3.7060 -0.5380
   9523SM  H18U12851   2.312   2.272   4.936  0.2285  0.7962 -0.5114
   9523SM   C1F12852   1.983   1.645   4.100  0.1317  0.3891 -0.7375
   9523SM    OF12853   1.920   1.743   4.070  0.9150 -0.0164  0.6209
   9523SM   C2F12854   2.096   1.637   4.203  1.1774  0.0637 -0.5152
   9523SM   H2F12855   2.165   1.722   4.182  1.2316 -0.3939 -2.3768
   9523SM   H2G12856   2.152   1.542   4.190  0.8737  0.0616 -1.9952
   9523SM   C3F12857   2.038   1.647   4.348 -0.2127  0.5150 -0.2476
   9523SM   H3F12858   1.985   1.551   4.366  1.2993 -0.3579 -0.2850
   9523SM   H3G12859   1.965   1.729   4.365 -0.5060  0.3985 -0.8997
   9523SM   C4F12860   2.157   1.673   4.456  0.2133 -0.1442  0.3089
   9523SM   H4F12861   2.240   1.599   4.448 -1.7190 -2.6555  1.8718
   9523SM   H4G12862   2.110   1.663   4.556 -1.2129 -0.7988 -0.3975
   9523SM   C5F12863   2.211   1.818   4.454 -0.4042 -0.2875  0.1087
   9523SM   H5F12864   2.135   1.899   4.452 -0.5217 -0.4006 -0.0804
   9523SM   H5G12865   2.269   1.825   4.360 -1.0514  0.2550 -0.2617
   9523SM   C6F12866   2.324   1.841   4.562 -0.2530 -0.4646 -0.0100
   9523SM   H6F12867   2.400   1.765   4.534 -0.3918 -0.9952  1.0154
   9523SM   H6G12868   2.298   1.832   4.669  1.0295  1.4445  0.5094
   9523SM   C7F12869   2.376   1.979   4.547 -0.2665 -0.1516  0.0995
   9523SM   H7F12870   2.298   2.055   4.570 -0.9389 -0.1948 -1.8396
   9523SM   H7G12871   2.410   1.991   4.442  0.8844  0.5067  0.5251
   9523SM   C8F12872   2.496   2.001   4.648  0.0732  0.3525 -0.0563
   9523SM   H8F12873   2.567   1.916   4.648  1.0766  1.1637  0.1625
   9523SM   H8G12874   2.470   2.007   4.756 -1.0236 -0.3906 -0.2700
   9523SM   C9F12875   2.572   2.123   4.595  0.0597  0.3427 -0.1676
   9523SM   H9F12876   2.491   2.199   4.596 -2.2634 -1.9188 -1.6405
   9523SM   H9G12877   2.607   2.102   4.492  1.3960  0.5171  0.2359
   9523SM  C10F12878   2.694   2.158   4.673  0.4394  0.7456 -0.2308
   9523SM  H10F12879   2.756   2.068   4.693 -1.1674 -0.1532  0.9790
   9523SM  H10G12880   2.656   2.196   4.770  1.5083  2.3889 -0.4093
   9523SM  C11F12881   2.781   2.262   4.603  0.2414 -0.9854 -0.6523
   9523SM  H11F12882   2.723   2.349   4.567 -0.1594 -1.3726 -0.9588
   9523SM  H11G12883   2.831   2.220   4.513  0.2473  1.2460 -1.7609
   9523SM  C12F12884   2.890   2.326   4.697  0.0910  0.0998  0.3868
   9523SM  H12F12885   2.968   2.377   4.636 -0.5189 -0.3513 -0.7991
   9523SM  H12G12886   2.942   2.240   4.745  0.2576 -1.3901 -2.2692
   9523SM  C13F12887   2.843   2.420   4.806 -0.4672  0.6200 -0.3960
   9523SM  H13F12888   2.898   2.411   4.902 -2.2709 -0.7082  0.5908
   9523SM  H13G12889   2.740   2.390   4.837  0.1973 -1.0782  0.3221
   9523SM  C14F12890   2.840   2.570   4.747  0.1720 -0.1074  0.1728
   9523SM  H14F12891   2.767   2.579   4.664  0.7280  1.7784 -0.1548
   9523SM  H14G12892   2.941   2.580   4.702 -0.1974  1.4761 -0.3563
   9523SM  C15F12893   2.804   2.679   4.844  0.4153  0.1206 -0.2873
   9523SM  H15F12894   2.698   2.678   4.877  0.1607  0.9750 -1.0736
   9523SM  H15G12895   2.825   2.779   4.802  1.1247 -0.5073 -1.4858
   9523SM  C16F12896   2.892   2.689   4.967  0.1377 -0.3159 -0.0317
   9523SM  H16F12897   2.993   2.684   4.920  0.5601  3.3569  0.1821
   9523SM  H16G12898   2.877   2.593   5.021  2.5706 -2.6396 -3.1353
   9523SM  C17F12899   2.863   2.812   5.043 -0.0625  0.7416 -0.0258
   9523SM  H17F12900   2.762   2.803   5.089 -0.5767 -1.9579 -1.4814
   9523SM  H17G12901   2.862   2.902   4.977  1.7836  0.1389 -0.9398
   9523SM  C18F12902   2.955   2.828   5.155  0.2552  0.5876 -0.3276
   9523SM  H18F12903   2.976   2.726   5.196 -1.4631  0.6025  0.6754
   9523SM  H18G12904   2.911   2.889   5.237 -0.5050 -0.7453  0.2851
   9523SM  C19F12905   3.084   2.892   5.114  0.3330 -0.1464 -0.8515
   9523SM  H19F12906   3.075   3.002   5.127  4.0746  0.5123 -2.5411
   9523SM  H19G12907   3.101   2.877   5.005  3.0450  2.1219 -0.8486
   9523SM  C20F12908   3.202   2.831   5.190  0.6292  0.5383  0.2530
   9523SM  H20F12909   3.301   2.871   5.161  0.6233  0.9613  0.7837
   9523SM  H20G12910   3.192   2.726   5.155 -1.5188  1.2794 -1.5285
   9523SM  C21F12911   3.196   2.832   5.345  0.1229  0.0404 -0.1698
   9523SM  H21F12912   3.106   2.793   5.397  0.8336 -3.1203 -1.0721
   9523SM  H21G12913   3.216   2.937   5.375  1.0877  0.4891 -2.1815
   9523SM  C22F12914   3.308   2.745   5.409  0.2781  0.4709 -0.1536
   9523SM  H22F12915   3.316   2.777   5.515  0.3453 -0.6326  0.1778
   9523SM  H22G12916   3.398   2.765   5.347  1.2512  0.1151  1.1126
   9523SM  C23F12917   3.288   2.591   5.422 -0.0349 -0.0946  0.5005
   9523SM  H23F12918   3.315   2.536   5.329  1.6844 -2.2133  2.1510
   9523SM  H23G12919   3.183   2.559   5.442 -0.4020  0.6862 -0.1015
   9523SM  H23H12920   3.359   2.560   5.502  0.4891  0.0881  0.1141
   9623SM     N12921   4.725   7.222   2.821 -0.0797 -0.4649  0.5459
   9623SM   C1512922   4.824   7.150   2.911 -0.3009 -0.2382  0.6189
   9623SM  H15A12923   4.813   7.172   3.016  0.1047  1.8128  0.2727
   9623SM  H15B12924   4.922   7.181   2.879 -0.1772 -1.9681 -0.8723
   9623SM  H15C12925   4.834   7.045   2.888 -1.0825  0.2862 -2.6001
   9623SM   C1412926   4.756   7.191   2.672 -0.0984 -0.2461  0.2554
   9623SM  H14A12927   4.731   7.087   2.658 -1.4919  0.0727  0.2559
   9623SM  H14B12928   4.860   7.208   2.651 -0.1575  0.7889  0.7548
   9623SM  H14C12929   4.695   7.253   2.608  2.4519  1.2993 -0.8441
   9623SM   C1312930   4.588   7.175   2.856  0.3471  0.8165 -0.3210
   9623SM  H13A12931   4.553   7.082   2.813 -0.5445 -0.0039  2.0523
   9623SM  H13B12932   4.515   7.249   2.827 -0.6144  0.3350  0.7890
   9623SM  H13C12933   4.575   7.172   2.963 -0.7697 -1.5163 -0.4590
   9623SM   C1212934   4.737   7.373   2.841  0.3778  0.5014  0.7039
   9623SM  H12A12935   4.698   7.438   2.765  0.2746  0.9190  1.1050
   9623SM  H12B12936   4.844   7.390   2.850  1.0521 -2.3080 -0.8678
   9623SM   C1112937   4.677   7.434   2.970  1.1802  0.3006 -0.2248
   9623SM  H11A12938   4.726   7.533   2.980 -1.0658  1.5143 -0.4982
   9623SM  H11B12939   4.705   7.367   3.054 -1.5766 -0.3012  0.2891
   9623SM     P12940   4.460   7.568   2.897 -0.0698  0.0428  0.2075
   9623SM   O1312941   4.525   7.577   2.762  0.6656 -0.5829 -0.3484
   9623SM   O1412942   4.312   7.551   2.904  0.2677 -0.3125 -0.1654
   9623SM   O1112943   4.506   7.695   2.984 -0.0167  0.1563  0.1749
   9623SM   O1212944   4.529   7.444   2.967 -0.2809  0.1611  0.2903
   9623SM   C1S12945   4.404   7.750   3.067 -0.2689 -0.6025 -0.7484
   9623SM   H1S12946   4.377   7.676   3.145 -0.1205 -0.4977 -0.5974
   9623SM   H1T12947   4.308   7.772   3.014 -0.1560 -0.6003 -0.9505
   9623SM    NF12948   4.363   7.910   3.236 -0.3352  0.2495 -0.0561
   9623SM   HNF12949   4.290   7.975   3.218  0.0489  0.2864 -1.6292
   9623SM   C2S12950   4.456   7.881   3.131 -0.0790 -0.9171 -0.5152
   9623SM   H2S12951   4.549   7.854   3.185 -1.2330  0.5780  2.4795
   9623SM   C3S12952   4.481   7.993   3.031 -0.6032 -0.0245  0.7657
   9623SM   H3S12953   4.387   8.018   2.979 -0.0639  0.3351 -0.0683
   9623SM    O312954   4.571   7.956   2.927  0.0652  0.4482 -0.3870
   9623SM   HO312955   4.579   7.862   2.943 -1.3632  0.5449  1.1686
   9623SM   C4S12956   4.522   8.121   3.100 -0.0664 -0.5173 -0.3683
   9623SM   H4S12957   4.442   8.190   3.127 -1.3552 -2.0718 -0.0499
   9623SM   C5S12958   4.641   8.143   3.159 -0.0573  0.1347 -0.4252
   9623SM   H5S12959   4.724   8.074   3.139  0.5623  1.1573 -1.5639
   9623SM   C6S12960   4.674   8.257   3.248  0.3290 -0.2143 -1.4822
   9623SM   H6S12961   4.777   8.284   3.215  1.2468 -0.7810  0.7231
   9623SM   H6T12962   4.699   8.216   3.349 -1.2451 -0.7077 -1.2712
   9623SM   C7S12963   4.592   8.385   3.256 -0.2559  0.4377 -0.3655
   9623SM   H7S12964   4.576   8.422   3.152  0.7400 -0.3504 -0.8141
   9623SM   H7T12965   4.663   8.457   3.303 -0.7292  0.9780 -0.4644
   9623SM   C8S12966   4.458   8.381   3.327  0.4393  0.1953 -0.2617
   9623SM   H8S12967   4.389   8.299   3.300 -0.1939 -0.2000  2.2429
   9623SM   H8T12968   4.397   8.471   3.305 -0.8713 -0.2539  1.2887
   9623SM   C9S12969   4.481   8.372   3.483 -0.3466 -0.5361  0.4945
   9623SM   H9S12970   4.537   8.284   3.521  1.1987  0.7167  1.2551
   9623SM   H9T12971   4.383   8.391   3.533 -0.6314  1.5935 -0.7229
   9623SM  C10S12972   4.574   8.491   3.528 -0.4040  0.5676 -0.6371
   9623SM  H10S12973   4.566   8.579   3.460 -0.5769  0.1681 -1.1451
   9623SM  H10T12974   4.681   8.461   3.523 -0.4912 -0.0620  0.7726
   9623SM  C11S12975   4.528   8.541   3.668 -1.4334 -0.0665  0.6249
   9623SM  H11S12976   4.424   8.578   3.659 -1.1414  0.2038 -2.7296
   9623SM  H11T12977   4.598   8.624   3.694  0.0377 -0.4784 -1.7552
   9623SM  C12S12978   4.545   8.439   3.782 -0.2625  0.4919  0.7633
   9623SM  H12S12979   4.511   8.340   3.747  1.1214 -0.6613  2.5029
   9623SM  H12T12980   4.479   8.464   3.868 -1.1456 -0.9198  0.5270
   9623SM  C13S12981   4.691   8.425   3.842 -0.3916 -0.3501  0.0033
   9623SM  H13S12982   4.703   8.507   3.916  0.7111 -2.0781  1.8383
   9623SM  H13T12983   4.765   8.450   3.764 -2.3883 -0.4481 -2.0232
   9623SM  C14S12984   4.737   8.285   3.886 -0.3418 -0.4311 -0.3504
   9623SM  H14S12985   4.846   8.266   3.874 -0.4586 -1.5162  0.2215
   9623SM  H14T12986   4.680   8.213   3.824 -2.0941  1.7682 -1.4577
   9623SM  C15S12987   4.696   8.258   4.035  0.7376  0.5316  0.6982
   9623SM  H15S12988   4.586   8.244   4.044  0.6398  0.3286 -0.5959
   9623SM  H15T12989   4.716   8.357   4.081  0.2150  1.8428 -1.7657
   9623SM  C16S12990   4.772   8.143   4.108 -0.1332 -0.1123 -0.2747
   9623SM  H16S12991   4.877   8.178   4.098  0.3682 -1.1712  0.9984
   9623SM  H16T12992   4.781   8.039   4.069 -0.5899 -0.8585  1.5100
   9623SM  C17S12993   4.731   8.117   4.257 -0.1813 -0.5180 -0.2518
   9623SM  H17S12994   4.650   8.040   4.262 -1.1998  0.3366 -2.4340
   9623SM  H17T12995   4.669   8.205   4.286 -0.4627 -1.2078  1.3627
   9623SM  C18S12996   4.844   8.089   4.352  0.0417 -0.4267 -0.2442
   9623SM  H18S12997   4.920   8.170   4.355 -2.3490  1.9526  0.4309
   9623SM  H18T12998   4.900   7.998   4.323 -1.0822 -1.2005 -0.0520
   9623SM  H18U12999   4.810   8.070   4.456 -0.6351 -1.2606 -0.6094
   9623SM   C1F13000   4.364   7.842   3.354  0.2333  0.5012 -0.1512
   9623SM    OF13001   4.426   7.738   3.370  0.2038  0.3372  0.1004
   9623SM   C2F13002   4.285   7.912   3.464 -0.3882 -0.3750 -0.3665
   9623SM   H2F13003   4.188   7.862   3.482 -0.7343  0.2350 -0.5189
   9623SM   H2G13004   4.275   8.017   3.431  0.6572  0.2376  1.1150
   9623SM   C3F13005   4.361   7.914   3.601 -0.2618  0.5881 -0.5106
   9623SM   H3F13006   4.460   7.963   3.586  0.1291 -0.5782 -1.9719
   9623SM   H3G13007   4.379   7.809   3.634  0.9148  0.6103 -1.0268
   9623SM   C4F13008   4.280   7.984   3.715 -0.4901  0.2414  0.4269
   9623SM   H4F13009   4.189   7.926   3.743  0.9198 -1.4717  1.6243
   9623SM   H4G13010   4.235   8.081   3.682 -0.5737 -0.1798 -0.7504
   9623SM   C5F13011   4.345   8.019   3.853 -0.1685  0.0948  0.0338
   9623SM   H5F13012   4.289   8.088   3.919  2.0791  0.0012  2.2305
   9623SM   H5G13013   4.437   8.076   3.826  0.4373 -1.9704 -2.7886
   9623SM   C6F13014   4.375   7.891   3.943  0.3605 -0.7154 -0.1879
   9623SM   H6F13015   4.442   7.819   3.892 -0.2689 -1.5119  0.0993
   9623SM   H6G13016   4.275   7.843   3.942 -0.9572  1.8566 -1.1129
   9623SM   C7F13017   4.438   7.932   4.084  0.1744 -0.1540  0.4907
   9623SM   H7F13018   4.370   8.002   4.136  1.5490  0.3657  1.6754
   9623SM   H7G13019   4.526   7.996   4.059 -1.0592  1.6048  0.5137
   9623SM   C8F13020   4.474   7.811   4.168  0.0331  0.3054 -0.0365
   9623SM   H8F13021   4.578   7.824   4.205 -0.6166 -0.0832  2.0962
   9623SM   H8G13022   4.465   7.722   4.102 -3.9512  0.9726 -0.6001
   9623SM   C9F13023   4.388   7.792   4.298  0.0905 -0.2237 -0.5550
   9623SM   H9F13024   4.394   7.685   4.326  2.5526 -0.4325 -1.6145
   9623SM   H9G13025   4.283   7.800   4.263 -0.6827 -3.2712  0.7984
   9623SM  C10F13026   4.426   7.883   4.424  0.4787  0.2972 -0.0948
   9623SM  H10F13027   4.532   7.868   4.453 -0.3864 -2.0283  2.2509
   9623SM  H10G13028   4.356   7.841   4.500  0.8226 -0.2002 -0.0508
   9623SM  C11F13029   4.396   8.034   4.408  0.7667  0.0316 -0.1319
   9623SM  H11F13030   4.451   8.087   4.327  0.2861  1.2311  0.3109
   9623SM  H11G13031   4.419   8.087   4.503 -3.4866  0.9557  0.5843
   9623SM  C12F13032   4.244   8.048   4.383  0.2213  0.1735  0.6178
   9623SM  H12F13033   4.211   7.980   4.302  2.6295  0.2694 -0.5443
   9623SM  H12G13034   4.238   8.154   4.351  3.1279  1.1991  2.9719
   9623SM  C13F13035   4.149   8.009   4.495 -0.8448 -0.9244  0.0193
   9623SM  H13F13036   4.193   8.049   4.589  1.0939 -1.8521 -0.4415
   9623SM  H13G13037   4.149   7.898   4.495 -1.4188 -0.9474 -1.5175
   9623SM  C14F13038   4.007   8.065   4.471  0.5117  0.7727  0.1839
   9623SM  H14F13039   3.948   8.007   4.396  0.1495  3.1160 -1.4456
   9623SM  H14G13040   4.016   8.164   4.421 -0.1117  0.3853 -0.7162
   9623SM  C15F13041   3.924   8.090   4.602 -0.4288 -0.0193  0.2702
   9623SM  H15F13042   3.980   8.162   4.666  1.7946 -1.8759  0.5181
   9623SM  H15G13043   3.924   7.987   4.643 -1.8617 -1.0129 -2.0485
   9623SM  C16F13044   3.785   8.143   4.558  0.5859  0.3323 -0.6134
   9623SM  H16F13045   3.788   8.162   4.449 -1.0755 -2.1724 -1.1671
   9623SM  H16G13046   3.776   8.241   4.610  1.2943 -0.4429  1.0623
   9623SM  C17F13047   3.671   8.040   4.593 -0.2578 -0.4953  0.5831
   9623SM  H17F13048   3.706   7.943   4.551 -1.0018 -0.0931 -1.0450
   9623SM  H17G13049   3.576   8.077   4.550  0.9885  3.7613  1.1042
   9623SM  C18F13050   3.666   8.022   4.748 -0.0567  0.6423 -0.8357
   9623SM  H18F13051   3.645   8.123   4.789 -2.0796  0.1038 -0.4347
   9623SM  H18G13052   3.758   7.974   4.788 -0.8464  1.3653  2.0949
   9623SM  C19F13053   3.546   7.937   4.792 -0.3530 -0.0083  0.1438
   9623SM  H19F13054   3.545   7.838   4.742  0.1324  0.4248 -0.7407
   9623SM  H19G13055   3.453   7.989   4.761 -0.2466  0.5151  0.6819
   9623SM  C20F13056   3.546   7.926   4.948  0.7482  0.2139 -0.8490
   9623SM  H20F13057   3.636   7.977   4.988  1.9250 -1.4697 -1.2421
   9623SM  H20G13058   3.559   7.819   4.978  2.6494  0.6319 -0.0102
   9623SM  C21F13059   3.418   7.986   5.005  1.0172 -0.1453  0.4957
   9623SM  H21F13060   3.339   7.968   4.929  0.7197 -2.1192  1.1959
   9623SM  H21G13061   3.446   8.093   5.011  0.4607  0.0624 -0.5420
   9623SM  C22F13062   3.389   7.930   5.149 -0.3220 -0.0487 -0.0892
   9623SM  H22F13063   3.469   7.974   5.213 -2.6846  0.6460  2.6210
   9623SM  H22G13064   3.403   7.820   5.150 -0.7290 -0.1246  2.4797
   9623SM  C23F13065   3.257   7.970   5.214 -0.7984  0.0138 -0.0392
   9623SM  H23F13066   3.291   8.005   5.314  0.9534  0.6691 -0.8362
   9623SM  H23G13067   3.197   7.877   5.225 -0.3046 -0.0651  2.5858
   9623SM  H23H13068   3.207   8.056   5.166 -0.1437  0.3196 -0.1800
   9723SM     N13069   4.835   6.562   2.925  0.1543  0.0019  0.3730
   9723SM   C1513070   4.874   6.535   3.071  0.5061  0.3988  0.1416
   9723SM  H15A13071   4.805   6.454   3.090 -2.4352  2.6436 -0.1858
   9723SM  H15B13072   4.858   6.617   3.140  1.2449  0.1219  0.6582
   9723SM  H15C13073   4.977   6.507   3.082  0.4351  0.6127  1.5106
   9723SM   C1413074   4.688   6.581   2.927 -0.0910 -0.3274 -0.4688
   9723SM  H14A13075   4.672   6.646   3.012  0.2373 -0.1176 -0.5659
   9723SM  H14B13076   4.626   6.494   2.940  1.0208 -1.0058  0.4356
   9723SM  H14C13077   4.664   6.633   2.836 -0.8039  1.6775  0.7825
   9723SM   C1313078   4.885   6.705   2.888  0.0655  0.5904 -0.4511
   9723SM  H13A13079   4.863   6.718   2.783  0.7776 -2.4588 -1.0877
   9723SM  H13B13080   4.989   6.720   2.911  1.0186 -2.1031 -2.4249
   9723SM  H13C13081   4.833   6.778   2.948  1.5902  2.1715 -0.9994
   9723SM   C1213082   4.887   6.458   2.835  0.1706 -0.0237 -0.2023
   9723SM  H12A13083   4.812   6.460   2.758  1.4022 -2.4181 -1.5944
   9723SM  H12B13084   4.872   6.358   2.872 -0.8985  0.0308 -0.4763
   9723SM   C1113085   5.033   6.467   2.793  0.3160  0.6803 -0.1829
   9723SM  H11A13086   5.057   6.571   2.761 -1.4201  1.2415  0.2009
   9723SM  H11B13087   5.051   6.401   2.706 -0.3103  0.0852  0.1238
   9723SM     P13088   5.134   6.280   2.950  0.0654 -0.5147 -0.0290
   9723SM   O1313089   5.011   6.213   2.914 -0.5716 -0.3701 -0.2354
   9723SM   O1413090   5.256   6.227   2.893 -0.4672 -0.3157  0.2955
   9723SM   O1113091   5.135   6.311   3.110  0.0819  0.4115  0.6388
   9723SM   O1213092   5.125   6.437   2.897 -0.2125  0.3218  0.5434
   9723SM   C1S13093   5.216   6.400   3.171  0.3263  0.1731  0.3495
   9723SM   H1S13094   5.195   6.505   3.140 -0.0084  0.5193  1.6799
   9723SM   H1T13095   5.322   6.376   3.150  0.1962 -1.5794  1.4925
   9723SM    NF13096   5.283   6.495   3.394 -0.1626 -0.3484 -0.9350
   9723SM   HNF13097   5.368   6.454   3.428 -1.7603 -3.1187  0.0796
   9723SM   C2S13098   5.198   6.396   3.327 -0.0905 -1.0355  0.4145
   9723SM   H2S13099   5.091   6.420   3.340 -0.2384 -1.0938 -0.6065
   9723SM   C3S13100   5.209   6.249   3.382  0.5729 -0.5311 -0.1742
   9723SM   H3S13101   5.317   6.234   3.401  0.6632  2.0197  1.9310
   9723SM    O313102   5.152   6.144   3.302 -0.2477  0.6259  0.0565
   9723SM   HO313103   5.146   6.186   3.216 -0.6566  3.1188  1.2208
   9723SM   C4S13104   5.143   6.245   3.512  0.1358 -0.0735  0.5351
   9723SM   H4S13105   5.034   6.246   3.501  0.1870  2.3725 -0.3349
   9723SM   C5S13106   5.212   6.232   3.628  0.1605  0.4895 -0.5192
   9723SM   H5S13107   5.320   6.216   3.635  0.0235  0.2913  2.5515
   9723SM   C6S13108   5.146   6.223   3.763 -0.5353  0.0674 -0.3261
   9723SM   H6S13109   5.157   6.117   3.794 -2.4430 -0.1700 -0.2839
   9723SM   H6T13110   5.037   6.245   3.756 -0.4684  0.6581  0.4043
   9723SM   C7S13111   5.200   6.320   3.868 -0.1340  0.7908 -0.1939
   9723SM   H7S13112   5.148   6.418   3.860  0.7304  1.1853 -1.4022
   9723SM   H7T13113   5.311   6.335   3.864  0.2023 -1.5593 -2.3346
   9723SM   C8S13114   5.171   6.262   4.014 -0.5384  0.1144 -0.0314
   9723SM   H8S13115   5.208   6.157   4.011 -2.4998 -0.5999 -0.1512
   9723SM   H8T13116   5.062   6.246   4.023 -0.8031  0.3486 -2.3337
   9723SM   C9S13117   5.211   6.351   4.129 -0.1857 -0.0358  0.0017
   9723SM   H9S13118   5.155   6.446   4.140  1.0097  1.0246 -2.2511
   9723SM   H9T13119   5.315   6.357   4.090 -0.2777 -2.1154 -0.7119
   9723SM  C10S13120   5.207   6.284   4.262 -0.2017 -0.3963  0.5424
   9723SM  H10S13121   5.292   6.319   4.324  1.3088 -2.0656 -0.4945
   9723SM  H10T13122   5.232   6.176   4.250  0.7300 -0.2952  1.3999
   9723SM  C11S13123   5.071   6.306   4.337 -0.0488  0.0722  0.6477
   9723SM  H11S13124   4.988   6.260   4.279  1.6507 -1.0432 -1.0163
   9723SM  H11T13125   5.059   6.416   4.348  0.7162  0.1201  1.0597
   9723SM  C12S13126   5.064   6.252   4.482 -0.9153 -0.3035  0.0904
   9723SM  H12S13127   5.140   6.305   4.544 -0.6302 -0.4383 -0.1386
   9723SM  H12T13128   5.075   6.141   4.482 -0.8928 -0.3017  0.7280
   9723SM  C13S13129   4.928   6.281   4.540 -0.0818  0.2079 -0.5748
   9723SM  H13S13130   4.855   6.204   4.506  0.3055 -0.7194  0.6275
   9723SM  H13T13131   4.900   6.382   4.503 -0.5241  1.2424  2.3323
   9723SM  C14S13132   4.922   6.279   4.694  0.3314  0.0721  0.0817
   9723SM  H14S13133   4.990   6.361   4.725 -0.5643  0.4473  1.1248
   9723SM  H14T13134   4.971   6.186   4.728 -0.0116  0.4703  1.7434
   9723SM  C15S13135   4.774   6.280   4.747 -0.3746  0.3312 -0.5764
   9723SM  H15S13136   4.714   6.226   4.672  0.4513  0.1117 -1.0988
   9723SM  H15T13137   4.723   6.378   4.747 -0.7059  0.1747 -2.0562
   9723SM  C16S13138   4.769   6.237   4.892  0.4288 -0.9240 -0.6841
   9723SM  H16S13139   4.805   6.132   4.888  0.4543 -0.8785 -2.1276
   9723SM  H16T13140   4.660   6.243   4.915  0.6380  1.8114 -0.0902
   9723SM  C17S13141   4.843   6.321   4.998 -0.5066 -0.0842  0.3147
   9723SM  H17S13142   4.952   6.322   4.974 -0.3261  0.3661  1.1210
   9723SM  H17T13143   4.835   6.264   5.093 -0.9207 -2.2340 -0.9430
   9723SM  C18S13144   4.785   6.464   5.010 -1.0204  0.3753 -0.3911
   9723SM  H18S13145   4.801   6.530   4.922 -1.2719  1.8670  0.6492
   9723SM  H18T13146   4.829   6.512   5.100 -0.6001 -0.7943  0.0532
   9723SM  H18U13147   4.676   6.453   5.027 -1.1246 -0.6956 -1.5726
   9723SM   C1F13148   5.267   6.625   3.394  0.8172 -0.4397 -0.6400
   9723SM    OF13149   5.166   6.667   3.348  0.0893  0.5086  0.0330
   9723SM   C2F13150   5.368   6.712   3.464 -0.1407  1.3153 -0.4744
   9723SM   H2F13151   5.402   6.782   3.385 -1.1247  0.2602 -1.9056
   9723SM   H2G13152   5.455   6.647   3.486 -0.2652  0.9613 -0.9758
   9723SM   C3F13153   5.314   6.781   3.588  0.3897 -0.2696 -0.0351
   9723SM   H3F13154   5.267   6.701   3.650 -2.6344  0.7306 -0.8667
   9723SM   H3G13155   5.227   6.847   3.567 -1.7313 -2.4046  1.4253
   9723SM   C4F13156   5.419   6.848   3.677 -0.2027 -0.5847  0.2058
   9723SM   H4F13157   5.462   6.930   3.616 -0.8843  0.5299  1.1919
   9723SM   H4G13158   5.503   6.775   3.680 -0.3769 -0.8913 -1.2902
   9723SM   C5F13159   5.387   6.893   3.817 -0.0918  0.4032  0.3897
   9723SM   H5F13160   5.337   6.992   3.816  1.6426  1.3313 -0.9430
   9723SM   H5G13161   5.482   6.918   3.870 -0.5470  0.7185  1.0737
   9723SM   C6F13162   5.296   6.799   3.891  0.5859  0.9824 -0.1786
   9723SM   H6F13163   5.332   6.694   3.891  1.2684  1.1886 -1.5724
   9723SM   H6G13164   5.201   6.784   3.836  1.0364 -1.1883 -0.4657
   9723SM   C7F13165   5.287   6.850   4.034 -0.1884  0.1757  0.5373
   9723SM   H7F13166   5.254   6.957   4.036 -0.0326  0.2726 -0.7615
   9723SM   H7G13167   5.391   6.849   4.072  0.3906  3.3539 -0.5977
   9723SM   C8F13168   5.194   6.774   4.128  0.2381 -0.2830  0.6748
   9723SM   H8F13169   5.219   6.666   4.132 -0.6154 -0.5263 -0.1545
   9723SM   H8G13170   5.097   6.785   4.074  2.7303  2.2273 -3.8408
   9723SM   C9F13171   5.187   6.833   4.272  0.1558  0.4261  0.0491
   9723SM   H9F13172   5.151   6.937   4.278  0.0892  0.3679  0.7012
   9723SM   H9G13173   5.292   6.839   4.308 -0.0683  0.9322  0.6159
   9723SM  C10F13174   5.119   6.735   4.370 -0.3325  0.6763  0.0600
   9723SM  H10F13175   5.165   6.634   4.361 -1.6621  0.1395 -1.0188
   9723SM  H10G13176   5.020   6.706   4.330 -0.5076 -1.7939  2.0173
   9723SM  C11F13177   5.101   6.793   4.512  0.6611 -0.5812  0.4444
   9723SM  H11F13178   5.044   6.888   4.503 -0.8413 -1.4544  0.2465
   9723SM  H11G13179   5.195   6.822   4.564  1.7543 -2.3363 -0.4539
   9723SM  C12F13180   5.011   6.696   4.595 -0.0404 -0.0712  0.1043
   9723SM  H12F13181   5.060   6.596   4.596 -0.4266 -0.2679  1.0008
   9723SM  H12G13182   4.916   6.691   4.537  1.0370 -1.8245 -1.6400
   9723SM  C13F13183   4.964   6.729   4.739 -0.2098  0.0200 -0.4848
   9723SM  H13F13184   4.885   6.653   4.762 -1.6096  0.9438 -2.0317
   9723SM  H13G13185   4.907   6.824   4.738 -0.4519 -0.0628  1.2888
   9723SM  C14F13186   5.075   6.720   4.844 -0.1696 -0.3435  0.8852
   9723SM  H14F13187   5.155   6.791   4.814 -0.4759 -0.5198 -0.4375
   9723SM  H14G13188   5.120   6.619   4.844  1.8474  0.4439 -1.3136
   9723SM  C15F13189   5.028   6.764   4.979 -0.4562 -0.0172  0.0055
   9723SM  H15F13190   4.948   6.692   5.007 -0.1127 -0.1399  0.6946
   9723SM  H15G13191   4.984   6.866   4.978 -2.0626 -0.6821 -0.1182
   9723SM  C16F13192   5.128   6.754   5.089 -0.0494  0.3713  0.3864
   9723SM  H16F13193   5.185   6.661   5.071  0.1839  0.9991 -2.6161
   9723SM  H16G13194   5.085   6.741   5.191 -4.4195 -2.1135 -1.4969
   9723SM  C17F13195   5.230   6.870   5.092 -0.4655  0.3245  0.1724
   9723SM  H17F13196   5.163   6.958   5.094 -0.7497  0.1150  1.8821
   9723SM  H17G13197   5.286   6.857   4.997  1.2604 -2.2963  1.4336
   9723SM  C18F13198   5.322   6.868   5.209 -0.2802 -0.6449  0.2020
   9723SM  H18F13199   5.397   6.948   5.189  0.9775 -2.1665 -1.4913
   9723SM  H18G13200   5.378   6.775   5.229 -1.9204 -1.8159 -0.4572
   9723SM  C19F13201   5.247   6.915   5.335 -0.1106  0.4731 -0.1414
   9723SM  H19F13202   5.202   6.818   5.368  1.2383  0.7675  2.9017
   9723SM  H19G13203   5.159   6.979   5.311 -0.3160  0.7667  1.2717
   9723SM  C20F13204   5.341   6.977   5.429 -0.2462  0.2115  0.4824
   9723SM  H20F13205   5.374   7.075   5.387 -0.4746  0.2816  0.4671
   9723SM  H20G13206   5.429   6.909   5.432 -0.4745 -0.0854  0.4450
   9723SM  C21F13207   5.294   6.988   5.575 -0.2674  0.2204 -0.0393
   9723SM  H21F13208   5.208   7.056   5.598 -0.4392  0.2503 -0.7601
   9723SM  H21G13209   5.378   7.032   5.632  0.7271 -0.5098 -0.9217
   9723SM  C22F13210   5.257   6.855   5.636 -0.2594 -0.3844  0.2939
   9723SM  H22F13211   5.173   6.804   5.584  1.2809 -0.6723 -2.0128
   9723SM  H22G13212   5.224   6.879   5.740 -0.2505  0.2399  0.1545
   9723SM  C23F13213   5.375   6.761   5.644 -0.0594  0.3698 -0.0500
   9723SM  H23F13214   5.326   6.675   5.694 -0.7606  0.4414 -0.6067
   9723SM  H23G13215   5.462   6.804   5.698 -1.4828 -0.2984  3.0108
   9723SM  H23H13216   5.412   6.725   5.546 -0.4750 -0.7137  0.1802
   9823SM     N13217   0.251   7.475   2.468  0.1202  0.6811 -0.3710
   9823SM   C1513218   0.367   7.557   2.475 -0.8272 -0.1658  0.6693
   9823SM  H15A13219   0.447   7.510   2.532 -0.5413 -0.7986 -0.2344
   9823SM  H15B13220   0.341   7.650   2.524  0.0473  1.0774 -1.1375
   9823SM  H15C13221   0.405   7.569   2.375 -0.8142 -2.3682  0.3530
   9823SM   C1413222   0.142   7.546   2.388 -0.1495 -0.3884 -0.0248
   9823SM  H14A13223   0.134   7.644   2.433 -1.1817 -0.6103  0.3019
   9823SM  H14B13224   0.051   7.488   2.379 -0.0585 -0.6604  0.7771
   9823SM  H14C13225   0.176   7.560   2.287  0.0865 -1.1588 -0.0577
   9823SM   C1313226   0.279   7.343   2.402 -0.6556  0.0373  0.5990
   9823SM  H13A13227   0.359   7.292   2.455  1.1932  1.3162 -0.8080
   9823SM  H13B13228   0.315   7.361   2.301  0.5876 -3.3747  0.2846
   9823SM  H13C13229   0.199   7.274   2.382 -0.8859  0.3041  0.6027
   9823SM   C1213230   0.189   7.460   2.605  0.0773  0.3111  0.0979
   9823SM  H12A13231   0.107   7.389   2.601  0.8822 -0.6560  0.3582
   9823SM  H12B13232   0.155   7.554   2.645 -0.9815  0.0372 -0.1230
   9823SM   C1113233   0.281   7.410   2.714 -0.2653  0.1659  0.1480
   9823SM  H11A13234   0.236   7.432   2.814  1.5337  1.5992  0.6922
   9823SM  H11B13235   0.367   7.480   2.723 -1.0213  1.2972 -1.1750
   9823SM     P13236   0.261   7.149   2.756 -0.1137  0.0736 -0.2494
   9823SM   O1313237   0.137   7.137   2.676 -0.2426 -0.5183 -0.1798
   9823SM   O1413238   0.343   7.029   2.765 -0.0504  0.4777 -0.4785
   9823SM   O1113239   0.225   7.193   2.899 -0.8078 -0.2314 -0.3960
   9823SM   O1213240   0.331   7.276   2.695 -0.3762  0.2826  0.4224
   9823SM   C1S13241   0.320   7.236   2.995  0.2830 -0.4530 -0.4153
   9823SM   H1S13242   0.348   7.341   2.972 -0.7908 -0.0172  0.2194
   9823SM   H1T13243   0.412   7.176   2.984  0.2733 -0.5875  0.2317
   9823SM    NF13244   0.353   7.308   3.225  0.3047  0.3780  0.8470
   9823SM   HNF13245   0.406   7.252   3.289 -0.8781 -1.4662  0.2813
   9823SM   C2S13246   0.260   7.230   3.143 -0.2646  0.5134  0.0072
   9823SM   H2S13247   0.158   7.274   3.154 -0.7160  0.2392 -2.5576
   9823SM   C3S13248   0.254   7.079   3.185  0.5008 -0.4734 -0.0001
   9823SM   H3S13249   0.353   7.031   3.178  0.7005  0.1470 -1.7080
   9823SM    O313250   0.171   7.008   3.093  0.2196 -0.2294  0.1739
   9823SM   HO313251   0.142   7.080   3.038 -1.1601 -0.8124  0.1001
   9823SM   C4S13252   0.209   7.064   3.330 -0.4996  0.4388  0.3774
   9823SM   H4S13253   0.114   7.115   3.353 -0.7211  1.6599 -2.7413
   9823SM   C5S13254   0.279   6.996   3.425  0.1624  0.0614  0.7271
   9823SM   H5S13255   0.360   6.930   3.390 -0.7302 -0.3489 -0.6279
   9823SM   C6S13256   0.235   6.985   3.564  0.2591  0.4706  0.3054
   9823SM   H6S13257   0.181   7.074   3.604 -0.7065 -1.2496  3.0406
   9823SM   H6T13258   0.325   6.971   3.627  1.1965 -1.0694 -1.2794
   9823SM   C7S13259   0.143   6.862   3.580 -0.4690  0.1986 -0.1495
   9823SM   H7S13260   0.202   6.768   3.572 -0.6950  0.0334  0.0971
   9823SM   H7T13261   0.070   6.857   3.496  1.2454  1.2811 -1.7848
   9823SM   C8S13262   0.069   6.865   3.715 -0.0844 -0.6263  0.0129
   9823SM   H8S13263  -0.002   6.950   3.728 -1.3683 -1.4741 -1.1340
   9823SM   H8T13264   0.146   6.879   3.794 -1.6577 -1.3473  1.7662
   9823SM   C9S13265  -0.009   6.737   3.734 -0.1351  0.5697 -0.4710
   9823SM   H9S13266   0.060   6.667   3.788 -0.8092 -1.5516 -2.2240
   9823SM   H9T13267  -0.026   6.693   3.634 -2.1001 -1.3212  0.6055
   9823SM  C10S13268  -0.141   6.750   3.812  0.3107 -0.0588 -0.7850
   9823SM  H10S13269  -0.196   6.832   3.761  0.9105  0.6672 -0.2862
   9823SM  H10T13270  -0.129   6.779   3.918 -0.5062 -2.1442 -0.0750
   9823SM  C11S13271  -0.226   6.624   3.805 -0.2512  0.4480 -0.4555
   9823SM  H11S13272  -0.166   6.541   3.847 -0.2341  0.0675 -1.2167
   9823SM  H11T13273  -0.241   6.597   3.698 -0.6033  0.1934 -0.3452
   9823SM  C12S13274  -0.365   6.623   3.870 -0.3563 -0.2001 -0.4266
   9823SM  H12S13275  -0.347   6.634   3.979  2.3318 -1.3435 -0.6695
   9823SM  H12T13276  -0.410   6.522   3.864 -3.6068  1.1826 -1.1332
   9823SM  C13S13277  -0.466   6.727   3.817 -0.2960  0.2741  0.0305
   9823SM  H13S13278  -0.458   6.725   3.706 -1.1396  0.8561 -0.0470
   9823SM  H13T13279  -0.430   6.827   3.848  0.8689  0.6001 -2.1413
   9823SM  C14S13280  -0.615   6.707   3.854  0.7654  0.0352 -0.2612
   9823SM  H14S13281  -0.633   6.657   3.951  0.6870 -1.0569 -0.8148
   9823SM  H14T13282  -0.677   6.641   3.789  0.7232 -0.0403 -0.1446
   9823SM  C15S13283  -0.697   6.838   3.849  0.6075  0.1325  0.6132
   9823SM  H15S13284  -0.801   6.805   3.870 -0.0643  1.9989  0.3858
   9823SM  H15T13285  -0.702   6.885   3.748  2.2254 -2.3187 -0.7395
   9823SM  C16S13286  -0.656   6.948   3.946 -0.2979  0.1045 -0.3562
   9823SM  H16S13287  -0.552   6.973   3.916 -0.6008 -0.1101 -1.6430
   9823SM  H16T13288  -0.647   6.920   4.053 -0.1488 -0.6261 -0.5541
   9823SM  C17S13289  -0.752   7.070   3.938  0.2435 -0.3733 -0.1529
   9823SM  H17S13290  -0.858   7.038   3.942  0.2891 -0.7060 -1.3946
   9823SM  H17T13291  -0.750   7.117   3.838  0.3447  1.7207  0.7809
   9823SM  C18S13292  -0.723   7.173   4.051 -0.2809 -0.2987 -0.4858
   9823SM  H18S13293  -0.613   7.189   4.048 -0.4701  1.0587 -0.9401
   9823SM  H18T13294  -0.759   7.145   4.152  0.9429 -0.4764 -0.0742
   9823SM  H18U13295  -0.774   7.271   4.041 -0.7625 -0.4968  0.0083
   9823SM   C1F13296   0.342   7.445   3.220 -0.2682 -0.3301  0.6249
   9823SM    OF13297   0.265   7.500   3.139 -0.2776  0.1470 -0.4360
   9823SM   C2F13298   0.421   7.532   3.316  0.0395  1.1324  0.7089
   9823SM   H2F13299   0.515   7.547   3.259  0.6271 -2.3494  0.5168
   9823SM   H2G13300   0.445   7.471   3.406  1.7767 -2.1164 -1.7142
   9823SM   C3F13301   0.372   7.672   3.337 -0.5160 -0.0898  0.2917
   9823SM   H3F13302   0.268   7.680   3.374 -0.9221  3.7960 -1.2709
   9823SM   H3G13303   0.372   7.722   3.238 -1.3559 -1.1473 -0.2703
   9823SM   C4F13304   0.448   7.748   3.448 -0.1008 -0.5009  0.2562
   9823SM   H4F13305   0.549   7.769   3.406 -0.4531 -1.8999 -1.3689
   9823SM   H4G13306   0.462   7.679   3.534 -0.5447 -0.0828  0.6711
   9823SM   C5F13307   0.387   7.880   3.492 -0.0312 -0.2643  0.7865
   9823SM   H5F13308   0.366   7.947   3.406  0.4320 -0.0656  0.8222
   9823SM   H5G13309   0.474   7.936   3.533 -1.3222  1.4231  1.3212
   9823SM   C6F13310   0.269   7.882   3.585 -0.0598 -0.0890 -0.0379
   9823SM   H6F13311   0.194   7.800   3.582 -0.2329  0.0683 -0.0483
   9823SM   H6G13312   0.213   7.975   3.560 -0.4657  0.2086  1.8094
   9823SM   C7F13313   0.324   7.911   3.725 -0.4999  0.1646  0.3649
   9823SM   H7F13314   0.389   8.001   3.729  1.0837 -0.8314 -1.4759
   9823SM   H7G13315   0.392   7.824   3.738  0.2691  0.4327 -1.5523
   9823SM   C8F13316   0.222   7.921   3.834 -0.9656  0.5716 -0.2478
   9823SM   H8F13317   0.173   7.822   3.835 -1.1089  0.6411  0.4184
   9823SM   H8G13318   0.143   7.995   3.808 -2.4610 -0.7022  0.4967
   9823SM   C9F13319   0.269   7.958   3.978  0.2800 -0.2348  0.3871
   9823SM   H9F13320   0.188   7.970   4.054  2.0582 -2.4410  2.8217
   9823SM   H9G13321   0.313   8.060   3.966  1.5626 -0.7990  0.1460
   9823SM  C10F13322   0.356   7.848   4.028  0.0862 -0.5337 -0.0490
   9823SM  H10F13323   0.436   7.829   3.953 -0.4591  1.2796 -1.1623
   9823SM  H10G13324   0.302   7.753   4.043  1.8031 -1.7496 -1.1545
   9823SM  C11F13325   0.452   7.882   4.149  0.0412  0.4098 -0.5683
   9823SM  H11F13326   0.513   7.972   4.127 -2.4878  2.2764 -0.3611
   9823SM  H11G13327   0.516   7.792   4.163 -0.7362  0.1648  1.8491
   9823SM  C12F13328   0.366   7.904   4.278  0.1535  0.2671  0.2300
   9823SM  H12F13329   0.298   7.817   4.289  0.9913 -0.5773 -0.9593
   9823SM  H12G13330   0.304   7.991   4.246  0.9293 -0.1544 -2.7939
   9823SM  C13F13331   0.427   7.930   4.416 -0.3344 -0.4420  0.3596
   9823SM  H13F13332   0.486   7.838   4.436  1.2711  0.9007  2.2133
   9823SM  H13G13333   0.342   7.938   4.488  0.6000  0.2289  1.4263
   9823SM  C14F13334   0.524   8.049   4.421  0.3424 -0.6784  0.3438
   9823SM  H14F13335   0.623   8.029   4.375  2.0594  1.2493  2.9561
   9823SM  H14G13336   0.552   8.060   4.528  2.7025 -0.4503 -0.2397
   9823SM  C15F13337   0.465   8.184   4.377 -0.0421  0.0570  0.1103
   9823SM  H15F13338   0.436   8.187   4.270 -2.7036 -0.1166  0.7651
   9823SM  H15G13339   0.547   8.259   4.380  1.1875 -1.2270 -0.0253
   9823SM  C16F13340   0.362   8.232   4.476  0.1996  0.2983  0.5947
   9823SM  H16F13341   0.419   8.249   4.570  0.7070 -1.6406  0.6772
   9823SM  H16G13342   0.294   8.150   4.508 -1.0233  0.8891 -0.4030
   9823SM  C17F13343   0.271   8.345   4.429 -0.1879  0.3165 -0.5011
   9823SM  H17F13344   0.212   8.320   4.338 -2.0402  1.9399  0.1749
   9823SM  H17G13345   0.336   8.433   4.406 -1.1047  1.8820  2.4006
   9823SM  C18F13346   0.173   8.387   4.543  0.0216  0.6836  0.1912
   9823SM  H18F13347   0.107   8.298   4.553 -0.8242  1.2150 -0.4874
   9823SM  H18G13348   0.113   8.474   4.507  1.6008  2.1879  1.0413
   9823SM  C19F13349   0.240   8.433   4.668  0.3717 -0.3520 -0.5618
   9823SM  H19F13350   0.309   8.518   4.648 -1.3540  1.0539 -0.7612
   9823SM  H19G13351   0.293   8.349   4.716  1.8746  1.6575  1.5121
   9823SM  C20F13352   0.150   8.468   4.785  0.3275 -0.3861  0.0659
   9823SM  H20F13353   0.076   8.388   4.806  2.0294 -2.1559 -0.3481
   9823SM  H20G13354   0.089   8.558   4.765 -1.3836 -1.6120 -0.4267
   9823SM  C21F13355   0.230   8.489   4.917  0.3837 -0.3814  0.1757
   9823SM  H21F13356   0.271   8.593   4.910 -0.5126 -0.1304 -2.9829
   9823SM  H21G13357   0.311   8.416   4.936  1.9159  1.4128  0.8533
   9823SM  C22F13358   0.138   8.478   5.039  0.3704 -0.3296 -0.6880
   9823SM  H22F13359   0.066   8.394   5.027  0.5079 -0.3490 -1.4439
   9823SM  H22G13360   0.082   8.572   5.057  0.3796 -0.6004  0.9225
   9823SM  C23F13361   0.219   8.432   5.154  0.5273  0.1377 -0.2500
   9823SM  H23F13362   0.267   8.338   5.121 -0.2289 -0.4323  0.2455
   9823SM  H23G13363   0.151   8.410   5.239 -0.2948 -1.2505 -1.2439
   9823SM  H23H13364   0.296   8.506   5.186  0.8148  0.6979 -2.1330
   9923SM     N13365   0.991   0.408   3.175 -0.0865  0.5159  0.5904
   9923SM   C1513366   0.986   0.461   3.039 -0.3211 -0.1441  0.0995
   9923SM  H15A13367   0.886   0.452   2.999 -0.2319  0.1243 -0.1931
   9923SM  H15B13368   1.057   0.407   2.979 -0.3175  0.4774 -0.4698
   9923SM  H15C13369   1.008   0.567   3.044 -2.0740  0.1997  2.0020
   9923SM   C1413370   0.882   0.475   3.256 -0.4137 -0.3906  0.0841
   9923SM  H14A13371   0.783   0.439   3.232 -0.4924 -2.5532  3.0165
   9923SM  H14B13372   0.893   0.581   3.242  1.3694 -0.8954 -3.1070
   9923SM  H14C13373   0.888   0.456   3.362  0.0884  3.8531  0.9928
   9923SM   C1313374   0.976   0.255   3.183 -0.1187 -0.2573  0.5779
   9923SM  H13A13375   0.876   0.222   3.161 -0.4835  1.2856 -0.1728
   9923SM  H13B13376   0.987   0.228   3.287  1.4783 -2.5152 -0.0863
   9923SM  H13C13377   1.041   0.196   3.120 -2.2016 -2.1495  0.0697
   9923SM   C1213378   1.121   0.449   3.245  0.1827  0.9437  0.3530
   9923SM  H12A13379   1.110   0.415   3.346 -1.8185 -0.7682 -0.3499
   9923SM  H12B13380   1.138   0.556   3.249  2.6301  0.5855  0.5638
   9923SM   C1113381   1.242   0.386   3.192 -0.0978  0.1815 -0.0721
   9923SM  H11A13382   1.246   0.421   3.086 -0.1144 -0.9048 -0.4462
   9923SM  H11B13383   1.240   0.276   3.200  0.5615  0.0842 -1.0997
   9923SM     P13384   1.409   0.383   3.391  0.3504 -0.2359  0.1412
   9923SM   O1313385   1.491   0.265   3.348  0.1295 -0.2002  0.8406
   9923SM   O1413386   1.476   0.487   3.472 -0.3230 -0.3173  0.5860
   9923SM   O1113387   1.291   0.334   3.482 -0.2940  0.4217  0.8431
   9923SM   O1213388   1.347   0.449   3.262  0.3708  0.5473  0.3476
   9923SM   C1S13389   1.328   0.208   3.551  0.2591 -0.4300  0.1800
   9923SM   H1S13390   1.431   0.214   3.593  0.4299  0.1955 -0.3182
   9923SM   H1T13391   1.317   0.112   3.496 -0.8937 -1.2852  1.8308
   9923SM    NF13392   1.288   0.104   3.780 -0.1987 -0.3303  0.1229
   9923SM   HNF13393   1.252   0.010   3.779  1.5047 -1.0077 -0.6561
   9923SM   C2S13394   1.236   0.197   3.676  0.4992 -0.7597  0.4194
   9923SM   H2S13395   1.235   0.294   3.731  0.0316 -0.4763 -0.0885
   9923SM   C3S13396   1.089   0.163   3.633  0.4976 -0.4107  0.2441
   9923SM   H3S13397   1.086   0.055   3.607  0.6255 -0.5725  0.8808
   9923SM    O313398   1.053   0.219   3.506  0.4072 -0.1150 -0.1489
   9923SM   HO313399   1.133   0.262   3.475  0.6191 -1.4671 -1.6489
   9923SM   C4S13400   0.990   0.188   3.747  0.1854  0.5058  0.7971
   9923SM   H4S13401   1.009   0.273   3.813  2.4605  1.6547 -1.1935
   9923SM   C5S13402   0.867   0.135   3.740 -0.0010  0.1099  0.1545
   9923SM   H5S13403   0.840   0.080   3.649  0.4594  1.5878 -0.9207
   9923SM   C6S13404   0.758   0.158   3.835  0.2197 -1.0125  0.0749
   9923SM   H6S13405   0.691   0.069   3.834  0.0086 -0.8533 -0.2875
   9923SM   H6T13406   0.699   0.247   3.805  0.3906 -1.1745 -0.7646
   9923SM   C7S13407   0.793   0.207   3.973  0.1938 -0.7173 -0.6232
   9923SM   H7S13408   0.700   0.222   4.032  2.1696  0.6885  2.4040
   9923SM   H7T13409   0.841   0.307   3.981 -0.5652 -0.5022  2.3758
   9923SM   C8S13410   0.869   0.102   4.057  0.4535  0.1136  0.2982
   9923SM   H8S13411   0.971   0.085   4.015  0.3119 -0.8167  0.3144
   9923SM   H8T13412   0.809   0.009   4.048 -0.4104  0.6308  0.6675
   9923SM   C9S13413   0.885   0.132   4.201  0.9896  0.2783 -0.1385
   9923SM   H9S13414   0.786   0.172   4.231  2.5028  3.1362  1.4372
   9923SM   H9T13415   0.956   0.215   4.216 -0.1103  1.6335 -2.0210
   9923SM  C10S13416   0.921   0.008   4.291 -0.0630  0.7395  0.4287
   9923SM  H10S13417   1.022  -0.027   4.262 -0.2617 -0.6566  1.3161
   9923SM  H10T13418   0.856  -0.082   4.278  0.0639  0.5481  1.0564
   9923SM  C11S13419   0.929   0.058   4.436  0.8833  0.8483  0.2455
   9923SM  H11S13420   0.834   0.108   4.462  0.3909  1.0162 -1.7249
   9923SM  H11T13421   1.021   0.121   4.442  2.1722 -0.9773  0.4789
   9923SM  C12S13422   0.966  -0.057   4.533  0.2913  0.3722  0.0143
   9923SM  H12S13423   1.054  -0.116   4.501  0.6228 -0.2669  1.9743
   9923SM  H12T13424   0.879  -0.125   4.525  1.0273 -0.4728 -1.0727
   9923SM  C13S13425   0.991  -0.003   4.672  0.2232 -0.3426  0.5231
   9923SM  H13S13426   0.907   0.057   4.713 -0.2133  0.7878 -1.8886
   9923SM  H13T13427   1.070   0.075   4.678 -0.9366  1.1261 -2.1544
   9923SM  C14S13428   1.028  -0.122   4.765 -0.1956 -0.3291  0.2344
   9923SM  H14S13429   1.115  -0.167   4.713 -0.4758  2.9257 -3.4997
   9923SM  H14T13430   0.942  -0.191   4.757 -1.1212  0.8478 -0.1627
   9923SM  C15S13431   1.058  -0.094   4.919 -0.1972 -0.3175 -0.3083
   9923SM  H15S13432   0.970  -0.067   4.982  0.1966  0.7597 -0.1961
   9923SM  H15T13433   1.127  -0.007   4.914  1.9285 -1.9662 -0.7984
   9923SM  C16S13434   1.115  -0.217   4.992  0.1369  0.1046  0.2165
   9923SM  H16S13435   1.205  -0.184   5.049 -0.2205  1.5620 -0.0101
   9923SM  H16T13436   1.146  -0.296   4.920 -0.2484 -1.3546  1.6076
   9923SM  C17S13437   1.022  -0.280   5.103  0.0087 -0.5638 -0.1785
   9923SM  H17S13438   1.047  -0.388   5.096  0.0955 -0.7090  1.8473
   9923SM  H17T13439   0.919  -0.248   5.075 -0.2093 -2.4468 -1.7812
   9923SM  C18S13440   1.050  -0.235   5.247 -0.4028  0.0683  0.1809
   9923SM  H18S13441   1.145  -0.281   5.282  0.3838  1.2171 -0.3935
   9923SM  H18T13442   0.959  -0.261   5.305 -0.2381  0.0440  0.4284
   9923SM  H18U13443   1.055  -0.124   5.251  0.6677  0.0140  0.8609
   9923SM   C1F13444   1.401   0.135   3.848 -0.6111 -0.3413  0.8471
   9923SM    OF13445   1.468   0.237   3.820  0.0204  0.3543  0.9248
   9923SM   C2F13446   1.452   0.034   3.948  0.3571  0.5449 -0.0897
   9923SM   H2F13447   1.504  -0.048   3.894 -1.4903 -0.4536 -0.4554
   9923SM   H2G13448   1.365   0.002   4.009  1.7099  1.2065  2.2856
   9923SM   C3F13449   1.561   0.084   4.060 -0.5442 -0.3000  0.0388
   9923SM   H3F13450   1.541   0.190   4.086 -0.9551 -0.5391  0.7244
   9923SM   H3G13451   1.656   0.081   4.003 -0.3956 -0.3123  0.2855
   9923SM   C4F13452   1.563  -0.014   4.184  0.7817  0.1824  0.4280
   9923SM   H4F13453   1.652  -0.010   4.251  1.9479  1.8621 -1.1232
   9923SM   H4G13454   1.558  -0.121   4.156 -0.9046  0.5540 -0.8411
   9923SM   C5F13455   1.433   0.014   4.268  0.6359  0.3436 -0.8211
   9923SM   H5F13456   1.440  -0.074   4.336  0.4516  0.4348 -0.6839
   9923SM   H5G13457   1.334   0.005   4.218 -0.2859 -1.6452  1.1808
   9923SM   C6F13458   1.430   0.145   4.349  0.0569  0.0991 -1.0993
   9923SM   H6F13459   1.379   0.227   4.293  1.6362  1.4812 -0.5983
   9923SM   H6G13460   1.536   0.176   4.360 -0.2409  0.9431 -0.5065
   9923SM   C7F13461   1.365   0.129   4.490  0.2987 -0.2017  0.3436
   9923SM   H7F13462   1.257   0.116   4.470  0.4366 -0.0721 -0.5079
   9923SM   H7G13463   1.371   0.227   4.543  2.5483 -0.3928  0.5589
   9923SM   C8F13464   1.441   0.035   4.583 -0.4898  0.5438 -0.1358
   9923SM   H8F13465   1.542   0.078   4.594  0.4221 -1.2770 -0.9325
   9923SM   H8G13466   1.463  -0.063   4.536  0.2212  0.9309 -0.6190
   9923SM   C9F13467   1.373   0.020   4.718 -0.2100  0.2574 -0.4883
   9923SM   H9F13468   1.284  -0.046   4.706 -0.4112  0.2551  0.8523
   9923SM   H9G13469   1.340   0.121   4.751  0.4213  0.1161  0.6299
   9923SM  C10F13470   1.471  -0.038   4.819  1.0518  0.2306 -0.2470
   9923SM  H10F13471   1.427  -0.043   4.921 -2.4833  2.8231 -1.4643
   9923SM  H10G13472   1.558   0.029   4.831  1.6715 -0.5565 -0.2580
   9923SM  C11F13473   1.509  -0.183   4.786  0.2241  0.0736 -0.2097
   9923SM  H11F13474   1.585  -0.171   4.706 -0.7311  2.4703 -0.8213
   9923SM  H11G13475   1.419  -0.238   4.753  0.6665 -1.2026  0.6183
   9923SM  C12F13476   1.566  -0.260   4.909  0.6537  0.2840  0.0811
   9923SM  H12F13477   1.543  -0.366   4.884  0.8119  0.2550  0.0566
   9923SM  H12G13478   1.512  -0.226   5.000  2.0270  3.8955 -0.2849
   9923SM  C13F13479   1.718  -0.242   4.934 -0.5774  0.5126  0.8292
   9923SM  H13F13480   1.735  -0.142   4.978 -0.2710  0.6518  0.3873
   9923SM  H13G13481   1.764  -0.251   4.834 -0.9918 -1.8281  0.7797
   9923SM  C14F13482   1.775  -0.363   5.018  0.4080 -0.3766  0.5084
   9923SM  H14F13483   1.881  -0.375   4.988  0.2355  1.9915 -1.4022
   9923SM  H14G13484   1.721  -0.451   4.976 -0.4382  0.4179 -0.1338
   9923SM  C15F13485   1.756  -0.345   5.169  0.1671  0.2835  0.4535
   9923SM  H15F13486   1.647  -0.327   5.178  0.4843  3.4411 -0.7131
   9923SM  H15G13487   1.812  -0.256   5.204  1.7733 -0.1850 -0.7632
   9923SM  C16F13488   1.796  -0.471   5.248 -0.4919 -0.0444 -0.0753
   9923SM  H16F13489   1.797  -0.462   5.359 -0.7375  0.8473 -0.1390
   9923SM  H16G13490   1.901  -0.500   5.223 -0.1039  0.5755  0.7684
   9923SM  C17F13491   1.720  -0.601   5.215 -0.0936 -0.5125  0.2314
   9923SM  H17F13492   1.760  -0.645   5.122  1.6674  0.8000  0.3198
   9923SM  H17G13493   1.610  -0.586   5.207 -0.5858 -2.3191  2.5399
   9923SM  C18F13494   1.733  -0.705   5.322  0.5765 -0.1392  0.3640
   9923SM  H18F13495   1.707  -0.652   5.416  0.5049 -1.3226  1.0384
   9923SM  H18G13496   1.835  -0.748   5.331  0.7705  0.1013 -0.5778
   9923SM  C19F13497   1.627  -0.815   5.308 -0.3894 -0.1927 -0.2959
   9923SM  H19F13498   1.525  -0.778   5.281  0.5777  2.7967 -0.1961
   9923SM  H19G13499   1.615  -0.855   5.411  0.9441  0.8365  0.2926
   9923SM  C20F13500   1.669  -0.913   5.200 -0.4944  0.9889  0.5565
   9923SM  H20F13501   1.762  -0.971   5.219 -2.2119 -2.1037  0.1387
   9923SM  H20G13502   1.688  -0.854   5.108  3.0407 -1.5779 -0.5852
   9923SM  C21F13503   1.559  -1.019   5.176  0.3466  0.2788  0.0072
   9923SM  H21F13504   1.471  -0.960   5.142  0.2162  0.8734  1.3315
   9923SM  H21G13505   1.538  -1.070   5.272  1.2848 -0.9687 -0.4245
   9923SM  C22F13506   1.599  -1.124   5.072  0.2932  0.4135  0.2825
   9923SM  H22F13507   1.628  -1.085   4.972 -3.1794 -0.5810 -1.2816
   9923SM  H22G13508   1.513  -1.189   5.043  1.2053 -0.9092  0.4763
   9923SM  C23F13509   1.703  -1.223   5.128 -0.7093  0.5809  0.0015
   9923SM  H23F13510   1.801  -1.174   5.142 -0.2274 -0.9440  2.4318
   9923SM  H23G13511   1.726  -1.308   5.060  2.2032  1.8319 -0.7061
   9923SM  H23H13512   1.673  -1.263   5.227 -0.0353  1.1670  0.4493
  10023SM     N13513   1.269   1.121   3.006  0.4526 -0.0181 -0.0300
  10023SM   C1513514   1.216   1.240   3.075 -0.5298 -1.0502 -0.2787
  10023SM  H15A13515   1.290   1.296   3.130 -0.4275 -0.1280 -1.3019
  10023SM  H15B13516   1.138   1.213   3.144 -0.6508 -0.0876 -0.0260
  10023SM  H15C13517   1.180   1.312   3.003  1.4078  0.6642  0.3536
  10023SM   C1413518   1.375   1.166   2.912 -0.3133  0.3028 -0.5152
  10023SM  H14A13519   1.343   1.240   2.839 -0.7467 -0.8067 -1.4837
  10023SM  H14B13520   1.413   1.078   2.863 -2.1164 -0.5274 -0.5373
  10023SM  H14C13521   1.456   1.211   2.967 -0.1405 -0.3835 -0.2016
  10023SM   C1313522   1.329   1.026   3.110  0.0373 -0.3139 -0.5518
  10023SM  H13A13523   1.327   0.925   3.070 -0.0428 -0.3010 -0.5799
  10023SM  H13B13524   1.272   1.014   3.201  0.4420 -1.2775 -0.4061
  10023SM  H13C13525   1.431   1.047   3.139  0.2765  0.0639 -1.6237
  10023SM   C1213526   1.149   1.056   2.931 -0.6458 -0.4423 -0.1359
  10023SM  H12A13527   1.180   0.963   2.886  0.3954 -0.1071 -0.1432
  10023SM  H12B13528   1.122   1.116   2.845 -2.0409 -0.2960  0.3715
  10023SM   C1113529   1.022   1.024   3.011  0.6172  0.2829  0.2460
  10023SM  H11A13530   0.954   0.962   2.948  0.3844 -0.3590  1.1035
  10023SM  H11B13531   0.954   1.110   3.029 -1.2869 -1.4716  2.1056
  10023SM     P13532   1.011   0.811   3.163 -0.6493  0.2663 -0.2820
  10023SM   O1313533   0.871   0.786   3.128 -0.0789  0.1027  0.0629
  10023SM   O1413534   1.111   0.726   3.094 -0.0049 -0.4750 -0.3449
  10023SM   O1113535   1.032   0.792   3.322  0.3755 -0.2463 -0.2466
  10023SM   O1213536   1.052   0.966   3.139  0.4306  0.4962  0.5663
  10023SM   C1S13537   1.136   0.865   3.387  0.8350  0.2943  0.4318
  10023SM   H1S13538   1.114   0.973   3.398 -1.3637  0.0223 -0.8070
  10023SM   H1T13539   1.235   0.846   3.341  2.1940  3.5206  1.7587
  10023SM    NF13540   1.278   0.888   3.582 -0.4063 -0.5157 -0.1795
  10023SM   HNF13541   1.369   0.851   3.563  0.1200  0.4399  0.4146
  10023SM   C2S13542   1.156   0.819   3.531 -0.5591 -0.3860 -0.5132
  10023SM   H2S13543   1.072   0.848   3.598  0.4995 -1.1846  1.2510
  10023SM   C3S13544   1.174   0.665   3.535  0.3814  0.2212  0.2877
  10023SM   H3S13545   1.252   0.635   3.462 -0.1225  0.6852 -0.4480
  10023SM    O313546   1.062   0.594   3.481 -0.2462  0.2389  0.3498
  10023SM   HO313547   1.050   0.653   3.406  1.9414  0.1370 -0.1610
  10023SM   C4S13548   1.187   0.598   3.678 -0.4238 -0.1274  0.3671
  10023SM   H4S13549   1.092   0.566   3.723 -0.1586 -2.9435 -0.8558
  10023SM   C5S13550   1.300   0.559   3.744  0.1688  0.0545  0.2767
  10023SM   H5S13551   1.399   0.562   3.696 -0.1785  1.1839 -0.4071
  10023SM   C6S13552   1.306   0.518   3.890 -0.1362 -0.3676  0.0214
  10023SM   H6S13553   1.381   0.576   3.948  0.2192 -0.5214 -0.2839
  10023SM   H6T13554   1.345   0.415   3.906  0.6397 -0.2893 -1.3102
  10023SM   C7S13555   1.170   0.506   3.968 -0.7389  0.4898  0.1704
  10023SM   H7S13556   1.121   0.419   3.918 -0.5321  0.2799  0.3310
  10023SM   H7T13557   1.110   0.600   3.973  0.6659  1.3598  1.8514
  10023SM   C8S13558   1.203   0.462   4.115 -0.0996  0.8253 -0.1871
  10023SM   H8S13559   1.290   0.522   4.151  0.2338  0.6018 -0.6087
  10023SM   H8T13560   1.244   0.359   4.118 -3.7968 -0.8541 -1.4228
  10023SM   C9S13561   1.090   0.480   4.217  0.0298 -0.0555 -0.6684
  10023SM   H9S13562   1.006   0.414   4.186 -0.0060 -0.8305  0.9941
  10023SM   H9T13563   1.058   0.587   4.215  0.2049  0.3625  4.5133
  10023SM  C10S13564   1.139   0.437   4.358  0.1172 -0.5539 -0.0728
  10023SM  H10S13565   1.224   0.500   4.392 -1.2739  1.2816  0.1490
  10023SM  H10T13566   1.182   0.335   4.348  0.5319 -0.2272 -2.0936
  10023SM  C11S13567   1.026   0.439   4.461 -0.0014 -0.1254 -0.0655
  10023SM  H11S13568   0.948   0.366   4.430  1.4806 -0.9049 -2.1551
  10023SM  H11T13569   0.967   0.533   4.468  1.1886  0.5549  1.1580
  10023SM  C12S13570   1.079   0.397   4.591 -0.3240  0.3424  0.1598
  10023SM  H12S13571   1.137   0.477   4.642  0.1346 -0.2640  0.5916
  10023SM  H12T13572   1.150   0.312   4.582  0.6526  1.2682 -1.2956
  10023SM  C13S13573   0.971   0.364   4.686 -0.4198  0.4494  0.2381
  10023SM  H13S13574   0.945   0.258   4.668 -2.2496  0.3206  3.0734
  10023SM  H13T13575   0.874   0.416   4.666 -0.5129 -0.3158 -1.4682
  10023SM  C14S13576   0.993   0.376   4.839  0.4707  0.1794 -0.4371
  10023SM  H14S13577   0.993   0.484   4.868  0.0473  1.0494 -3.3518
  10023SM  H14T13578   1.091   0.333   4.869  0.3411  0.1841 -0.0037
  10023SM  C15S13579   0.884   0.300   4.913 -0.1881  0.2438  0.1297
  10023SM  H15S13580   0.911   0.192   4.911  0.9001  0.5195 -0.5599
  10023SM  H15T13581   0.793   0.305   4.850 -1.0633  0.2455  1.3634
  10023SM  C16S13582   0.873   0.338   5.059  0.2174  0.0139 -0.8290
  10023SM  H16S13583   0.776   0.299   5.095 -0.6116 -0.2656 -3.1584
  10023SM  H16T13584   0.854   0.448   5.059 -1.0509 -0.1806  0.2786
  10023SM  C17S13585   0.993   0.319   5.150  0.0718  0.1014 -0.5365
  10023SM  H17S13586   0.966   0.373   5.243  1.4394  0.5027 -0.3425
  10023SM  H17T13587   1.078   0.384   5.119  0.8903 -0.2624  0.8382
  10023SM  C18S13588   1.037   0.180   5.198 -0.4599  0.1988  0.0666
  10023SM  H18S13589   1.097   0.129   5.120 -0.1488  0.9117 -0.1635
  10023SM  H18T13590   0.945   0.123   5.223  0.3404 -0.8517  0.6876
  10023SM  H18U13591   1.093   0.176   5.294 -0.2881  0.7318 -0.0072
  10023SM   C1F13592   1.278   1.012   3.626  0.7506  0.3796  0.0479
  10023SM    OF13593   1.171   1.073   3.626 -0.6127  0.1044  0.1901
  10023SM   C2F13594   1.409   1.082   3.644  0.0222  0.3047 -0.7465
  10023SM   H2F13595   1.389   1.189   3.664 -1.3329  0.0649 -0.7302
  10023SM   H2G13596   1.465   1.084   3.549  1.6720  1.8405  0.2084
  10023SM   C3F13597   1.491   1.018   3.757 -0.0000  0.8280  0.0864
  10023SM   H3F13598   1.587   1.074   3.764  0.7075 -0.4735  1.3331
  10023SM   H3G13599   1.518   0.913   3.735  0.9985  0.9442  0.6890
  10023SM   C4F13600   1.419   1.011   3.888 -0.8924 -0.0808  0.0844
  10023SM   H4F13601   1.311   0.989   3.880 -0.9101 -0.2917  0.7712
  10023SM   H4G13602   1.429   1.118   3.916 -0.7840  0.6849 -2.5958
  10023SM   C5F13603   1.471   0.919   3.986  0.1712  0.7833 -0.5215
  10023SM   H5F13604   1.578   0.949   3.997 -0.0658  0.9376  1.9126
  10023SM   H5G13605   1.453   0.818   3.944  2.0520  1.0646 -2.1492
  10023SM   C6F13606   1.395   0.929   4.124  0.8871 -0.5655 -0.1694
  10023SM   H6F13607   1.356   1.032   4.139  0.3907 -0.7779 -0.0041
  10023SM   H6G13608   1.465   0.907   4.208  0.2865 -0.4851  0.3619
  10023SM   C7F13609   1.274   0.843   4.135  0.1607  0.3248 -0.1078
  10023SM   H7F13610   1.313   0.739   4.120 -3.1747 -1.4140  2.0641
  10023SM   H7G13611   1.207   0.874   4.053  2.5283  1.7650 -1.6288
  10023SM   C8F13612   1.202   0.840   4.267 -0.2005  0.6890 -0.0821
  10023SM   H8F13613   1.103   0.790   4.258  0.1353  0.0849 -0.4369
  10023SM   H8G13614   1.179   0.945   4.296 -0.2939  1.0018 -1.2437
  10023SM   C9F13615   1.277   0.777   4.385 -0.1174 -0.2962  0.6059
  10023SM   H9F13616   1.380   0.819   4.385  0.4870 -1.6617 -0.5988
  10023SM   H9G13617   1.302   0.672   4.358 -1.9469 -0.8915  1.1311
  10023SM  C10F13618   1.222   0.786   4.529 -0.5924 -0.1008  0.8944
  10023SM  H10F13619   1.299   0.744   4.598  0.5481  0.4542 -0.0102
  10023SM  H10G13620   1.130   0.724   4.527 -0.5033 -0.2461  1.2342
  10023SM  C11F13621   1.183   0.927   4.580  0.1781 -0.9498  0.2100
  10023SM  H11F13622   1.132   0.990   4.504  0.0171  2.5337  2.9184
  10023SM  H11G13623   1.274   0.986   4.604 -0.8844  0.8624 -0.0372
  10023SM  C12F13624   1.080   0.923   4.694  0.2479  0.1771 -1.2274
  10023SM  H12F13625   0.988   0.883   4.646  0.5537  1.1459 -2.6520
  10023SM  H12G13626   1.073   1.027   4.731  0.0174 -0.1529 -0.3122
  10023SM  C13F13627   1.117   0.832   4.808  0.0478  0.7488 -0.4444
  10023SM  H13F13628   1.131   0.730   4.767 -1.0399  1.1506 -1.8931
  10023SM  H13G13629   1.028   0.826   4.875  0.2182  1.0763 -0.1831
  10023SM  C14F13630   1.243   0.876   4.884 -0.0614 -0.1155  0.3686
  10023SM  H14F13631   1.218   0.977   4.922 -2.4392 -0.1725 -0.8660
  10023SM  H14G13632   1.327   0.884   4.812  0.4687 -0.5151  0.9291
  10023SM  C15F13633   1.283   0.778   4.991  0.0541 -0.1455  0.1271
  10023SM  H15F13634   1.304   0.676   4.953 -0.5307 -0.2534  0.0962
  10023SM  H15G13635   1.202   0.770   5.066  1.8261 -2.0190  1.9873
  10023SM  C16F13636   1.404   0.826   5.070 -0.2625  0.6507 -0.0832
  10023SM  H16F13637   1.484   0.865   5.003  0.7715  1.9598  1.8036
  10023SM  H16G13638   1.448   0.743   5.130 -1.0705  1.9628  2.4741
  10023SM  C17F13639   1.377   0.943   5.165 -0.5262 -0.1475  0.1950
  10023SM  H17F13640   1.297   0.918   5.238 -2.9867  1.5412 -1.7055
  10023SM  H17G13641   1.344   1.033   5.108  2.9104  2.1229  1.5178
  10023SM  C18F13642   1.503   1.009   5.236  0.1651 -0.5708 -0.2430
  10023SM  H18F13643   1.575   1.037   5.156 -1.4927 -0.8117 -1.9017
  10023SM  H18G13644   1.551   0.934   5.303  1.7045 -0.3225 -1.0041
  10023SM  C19F13645   1.475   1.131   5.328  0.6454  0.6507  0.7293
  10023SM  H19F13646   1.398   1.098   5.401 -0.1770 -0.3937 -0.5644
  10023SM  H19G13647   1.427   1.221   5.284  0.4547  0.5260  0.6794
  10023SM  C20F13648   1.598   1.173   5.411  0.0876  0.2814 -0.2803
  10023SM  H20F13649   1.583   1.278   5.444  1.3958  0.6378 -0.7542
  10023SM  H20G13650   1.678   1.178   5.334  0.3724  1.0661  0.0592
  10023SM  C21F13651   1.641   1.081   5.526 -0.5765  0.0842 -0.6406
  10023SM  H21F13652   1.683   0.990   5.479 -0.5609  0.0814 -0.6211
  10023SM  H21G13653   1.549   1.057   5.583  1.1660 -0.9412  1.9160
  10023SM  C22F13654   1.736   1.144   5.630  0.1736 -0.3258  0.3292
  10023SM  H22F13655   1.705   1.237   5.682  2.0001 -0.6038  2.0345
  10023SM  H22G13656   1.824   1.165   5.566  2.1398 -1.1616  2.6040
  10023SM  C23F13657   1.789   1.035   5.725 -0.1439  0.1809  0.6322
  10023SM  H23F13658   1.867   1.082   5.790  1.1116 -1.1713  0.1651
  10023SM  H23G13659   1.836   0.952   5.668  0.6254  0.0456  1.4357
  10023SM  H23H13660   1.708   1.002   5.793  0.2917  0.6566  1.4018
  101CHL1    C313661   3.677   4.913   6.631 -0.4797  0.6078  0.3883
  101CHL1    H313662   3.762   4.983   6.622  1.0058 -1.2033 -0.4993
  101CHL1    O313663   3.634   4.895   6.765 -0.0546  0.2941 -0.7262
  101CHL1   H3'13664   3.551   4.848   6.756  0.2234 -0.0084 -1.9705
  101CHL1    C413665   3.560   4.951   6.538 -0.0072  0.7760  0.5597
  101CHL1   H4A13666   3.475   4.880   6.550  1.8848 -1.7986 -0.2056
  101CHL1   H4B13667   3.524   5.053   6.559 -1.9858  0.2746 -0.2111
  101CHL1    C513668   3.594   4.944   6.388 -0.7088 -0.2146 -0.6267
  101CHL1    C613669   3.593   5.055   6.315  0.2876 -0.6327 -0.5124
  101CHL1    H613670   3.569   5.152   6.361  3.6464 -0.5257  1.3495
  101CHL1    C713671   3.622   5.062   6.164  0.7261  0.2563 -0.5092
  101CHL1   H7A13672   3.544   5.130   6.121  2.6947  1.9908 -1.5371
  101CHL1   H7B13673   3.722   5.110   6.162  1.4308 -1.1779 -0.6974
  101CHL1    C813674   3.624   4.920   6.106  0.3821  0.3312  0.0583
  101CHL1    H813675   3.517   4.888   6.105 -0.4255  2.8208  0.5903
  101CHL1   C1413676   3.676   4.927   5.968 -0.6323  0.5422  0.7396
  101CHL1   H1413677   3.772   4.982   5.965 -1.0827  1.4327 -3.1156
  101CHL1   C1513678   3.603   5.007   5.857 -0.0332 -0.6428  0.6623
  101CHL1  H15A13679   3.497   4.978   5.845  0.0356  0.0802 -2.9239
  101CHL1  H15B13680   3.607   5.115   5.881  1.8327 -0.5092 -0.0283
  101CHL1   C1613681   3.678   4.970   5.728  0.2788 -0.1436  0.0352
  101CHL1  H16A13682   3.603   4.949   5.649 -2.2808 -1.9485  2.7388
  101CHL1  H16B13683   3.745   5.048   5.687 -0.8819  1.3805  0.9446
  101CHL1   C1713684   3.759   4.840   5.764  0.1519 -0.1384 -0.0309
  101CHL1   H1713685   3.864   4.869   5.784  0.5293 -0.0330 -1.9889
  101CHL1   C1313686   3.698   4.794   5.897 -0.4527  0.5016 -0.8761
  101CHL1   C1813687   3.560   4.725   5.874 -0.1003 -0.7301  0.1922
  101CHL1  H18A13688   3.504   4.779   5.795  0.0478  0.4426  0.8671
  101CHL1  H18B13689   3.584   4.625   5.832 -0.0735 -0.0703 -1.4174
  101CHL1  H18C13690   3.496   4.711   5.964 -0.1561  0.8024  0.4027
  101CHL1   C1213691   3.793   4.712   5.987 -0.0729 -0.1909  0.5807
  101CHL1  H12A13692   3.808   4.610   5.944 -0.5971  0.4357 -1.1871
  101CHL1  H12B13693   3.895   4.756   5.983  0.6885 -1.7465  1.6749
  101CHL1   C1113694   3.739   4.693   6.126  0.4041 -0.1425 -0.6250
  101CHL1  H11A13695   3.645   4.634   6.118  1.2152 -1.7730  1.0656
  101CHL1  H11B13696   3.816   4.632   6.177  1.5518  2.4922  1.0311
  101CHL1    C913697   3.707   4.826   6.197 -0.0065 -0.2388 -0.5848
  101CHL1    H913698   3.806   4.875   6.202  1.2226 -2.4432 -1.8079
  101CHL1   C1013699   3.652   4.812   6.341  0.1759  0.2177  0.7939
  101CHL1   C1913700   3.538   4.709   6.337 -0.1562  0.4655 -0.1188
  101CHL1  H19A13701   3.455   4.747   6.274 -0.3963  1.2436  0.6471
  101CHL1  H19B13702   3.565   4.610   6.293  0.6009 -0.0329  1.3827
  101CHL1  H19C13703   3.493   4.690   6.437 -0.4272  1.6830  0.0027
  101CHL1    C113704   3.778   4.781   6.434  0.0598 -1.2903  0.1263
  101CHL1   H1A13705   3.819   4.687   6.391  1.8641 -0.6385  0.3528
  101CHL1   H1B13706   3.847   4.867   6.424 -2.9317  1.6876  2.7469
  101CHL1    C213707   3.735   4.774   6.586  0.3479  0.1703 -0.0231
  101CHL1   H2A13708   3.824   4.746   6.647  2.8282 -1.6103 -4.0003
  101CHL1   H2B13709   3.655   4.698   6.598  0.2995  0.5128  2.2415
  101CHL1   C2013710   3.769   4.733   5.653  0.3816  0.2173  0.6352
  101CHL1   H2013711   3.672   4.687   5.626  1.2425 -0.8814 -0.7769
  101CHL1   C2113712   3.856   4.610   5.701  0.4812  0.6580 -0.3240
  101CHL1  H21A13713   3.947   4.653   5.747  0.7511 -1.9338  1.8165
  101CHL1  H21B13714   3.896   4.553   5.615 -2.3193  1.3898 -2.2480
  101CHL1  H21C13715   3.806   4.539   5.770 -2.3611  0.4154 -2.4189
  101CHL1   C2213716   3.833   4.787   5.528  0.1290 -0.5730 -0.5133
  101CHL1  H22A13717   3.817   4.897   5.524 -1.1395 -0.7172  0.0080
  101CHL1  H22B13718   3.942   4.768   5.525  1.0158  2.2878  4.1020
  101CHL1   C2313719   3.775   4.717   5.403 -0.7932  0.1759 -0.3934
  101CHL1  H23A13720   3.790   4.609   5.381 -1.5614 -0.2981  1.2373
  101CHL1  H23B13721   3.664   4.726   5.400 -0.7660  1.2652  0.9959
  101CHL1   C2413722   3.807   4.788   5.271  0.4719  0.1919 -1.1806
  101CHL1  H24A13723   3.747   4.881   5.275 -0.1084 -0.2161  1.3329
  101CHL1  H24B13724   3.914   4.818   5.269 -0.1479  2.6868 -0.4529
  101CHL1   C2513725   3.754   4.709   5.150 -0.3904  0.3162  0.0711
  101CHL1   H2513726   3.788   4.604   5.164 -0.7731  0.0903 -0.6495
  101CHL1   C2613727   3.601   4.711   5.127  0.0432  0.1450  0.0044
  101CHL1  H26A13728   3.589   4.805   5.071  1.0887 -0.7193 -1.7668
  101CHL1  H26B13729   3.578   4.636   5.048 -1.1682  0.6888 -0.1667
  101CHL1  H26C13730   3.545   4.694   5.221  1.8960 -2.3476  0.7872
  101CHL1   C2713731   3.829   4.764   5.028 -0.8747 -0.0615  0.9466
  101CHL1  H27A13732   3.939   4.764   5.040 -0.8842  1.5482  1.2043
  101CHL1  H27B13733   3.792   4.721   4.933  1.6108  2.6058 -1.4098
  101CHL1  H27C13734   3.819   4.874   5.021  0.5261  0.0771  0.7727
  102CHL1    C313735   2.822   6.136   6.347 -0.0228  0.5011 -0.2382
  102CHL1    H313736   2.819   6.044   6.285  0.4120  0.5606 -0.3477
  102CHL1    O313737   2.778   6.115   6.482 -0.1502 -0.6786 -0.6945
  102CHL1   H3'13738   2.749   6.201   6.514 -2.8296 -2.0761  1.0081
  102CHL1    C413739   2.965   6.191   6.343  0.4962  0.4910  0.5150
  102CHL1   H4A13740   2.977   6.274   6.416 -0.4849  1.5124 -0.4306
  102CHL1   H4B13741   3.033   6.118   6.390 -0.1964 -0.1932  0.4738
  102CHL1    C513742   3.007   6.233   6.208  0.5890  0.5356  0.1048
  102CHL1    C613743   3.118   6.190   6.162 -0.6296  0.5329  0.3497
  102CHL1    H613744   3.176   6.116   6.220 -1.1537  1.7762  2.5638
  102CHL1    C713745   3.178   6.213   6.028  0.7526  0.0715  0.5732
  102CHL1   H7A13746   3.288   6.231   6.036  1.0547 -0.5041 -1.6470
  102CHL1   H7B13747   3.178   6.121   5.966 -1.2365  0.5826 -0.2355
  102CHL1    C813748   3.108   6.338   5.960 -0.8926 -0.4551  0.8752
  102CHL1    H813749   3.149   6.425   6.015  0.5558 -1.3628  1.2773
  102CHL1   C1413750   3.143   6.352   5.808  0.0265 -0.4160 -0.1080
  102CHL1   H1413751   3.103   6.258   5.765 -1.6787  0.0716  0.3133
  102CHL1   C1513752   3.291   6.351   5.766  0.0753 -0.0096  0.1394
  102CHL1  H15A13753   3.352   6.407   5.841  0.8197  1.2861 -1.3622
  102CHL1  H15B13754   3.331   6.248   5.766  0.7612  0.2435 -0.4929
  102CHL1   C1613755   3.284   6.411   5.625  0.9379 -0.2974  0.6269
  102CHL1  H16A13756   3.360   6.492   5.623  0.3768  0.2368  0.6118
  102CHL1  H16B13757   3.291   6.330   5.550 -1.0881 -0.5231  0.6218
  102CHL1   C1713758   3.141   6.465   5.600  0.0384  0.2948  0.1952
  102CHL1   H1713759   3.095   6.380   5.546  0.1649 -1.4438  2.6784
  102CHL1   C1313760   3.070   6.468   5.741 -0.6655 -0.1529  0.3258
  102CHL1   C1813761   3.103   6.594   5.815  0.2227 -1.5679  0.7059
  102CHL1  H18A13762   3.074   6.597   5.922 -0.4350  0.5032  0.5096
  102CHL1  H18B13763   3.209   6.620   5.796 -0.9333  1.5442 -2.4963
  102CHL1  H18C13764   3.051   6.678   5.764  0.8458 -1.8312 -0.4017
  102CHL1   C1213765   2.921   6.433   5.746 -0.9412  0.3375  0.3249
  102CHL1  H12A13766   2.873   6.518   5.694 -1.1081 -1.4082 -2.6163
  102CHL1  H12B13767   2.917   6.339   5.687  0.6455  0.9964 -0.9084
  102CHL1   C1113768   2.866   6.421   5.883 -0.9144  0.4268 -0.3118
  102CHL1  H11A13769   2.864   6.517   5.938  0.7388  0.2066  0.1808
  102CHL1  H11B13770   2.762   6.381   5.888 -0.8222  0.2958  0.8319
  102CHL1    C913771   2.955   6.330   5.980 -0.2414  0.3349  0.0614
  102CHL1    H913772   2.942   6.226   5.943  2.0458 -0.2270  0.6850
  102CHL1   C1013773   2.914   6.321   6.122  0.1896  0.3255  0.1016
  102CHL1   C1913774   2.928   6.453   6.200 -0.1121 -0.0821 -0.0098
  102CHL1  H19A13775   3.029   6.499   6.190  1.3418 -2.8580  0.9007
  102CHL1  H19B13776   2.846   6.518   6.163 -0.5712  0.4672  1.8698
  102CHL1  H19C13777   2.913   6.445   6.310  3.3146 -0.3983  0.5363
  102CHL1    C113778   2.763   6.272   6.137  0.0541  0.5445 -0.1905
  102CHL1   H1A13779   2.701   6.358   6.105 -1.2026 -0.3066 -0.1090
  102CHL1   H1B13780   2.739   6.180   6.079 -1.8272 -0.1377  1.5169
  102CHL1    C213781   2.723   6.236   6.281 -0.0051 -0.5872  0.5214
  102CHL1   H2A13782   2.623   6.189   6.270  0.3229 -1.4111  0.9649
  102CHL1   H2B13783   2.722   6.329   6.341  1.7666  0.4803 -0.9915
  102CHL1   C2013784   3.108   6.587   5.506 -0.3633 -0.3139  0.0518
  102CHL1   H2013785   3.007   6.629   5.523 -0.1993  1.1666 -2.1981
  102CHL1   C2113786   3.118   6.531   5.361  0.3302  0.1689 -0.2489
  102CHL1  H21A13787   3.201   6.459   5.349 -0.9758 -1.3322 -0.5362
  102CHL1  H21B13788   3.110   6.614   5.287  1.2105 -0.5420 -1.1608
  102CHL1  H21C13789   3.026   6.471   5.345 -0.3258  0.4484  2.1256
  102CHL1   C2213790   3.220   6.695   5.514 -0.0445  0.5705 -0.3982
  102CHL1  H22A13791   3.219   6.721   5.622  1.2382  0.0337 -0.2378
  102CHL1  H22B13792   3.316   6.655   5.478 -0.0101  0.5082 -0.2388
  102CHL1   C2313793   3.178   6.831   5.449 -0.6349  1.1863 -0.0358
  102CHL1  H23A13794   3.170   6.809   5.340  0.6858 -1.5966  0.3520
  102CHL1  H23B13795   3.078   6.865   5.482 -0.9087  1.6458 -1.2722
  102CHL1   C2413796   3.286   6.932   5.477  0.1206 -0.9380  0.0206
  102CHL1  H24A13797   3.334   6.906   5.573  1.1606 -0.9361 -0.4840
  102CHL1  H24B13798   3.361   6.921   5.396 -2.5659 -0.8624 -2.6675
  102CHL1   C2513799   3.230   7.075   5.474  0.4336  0.7884  0.4650
  102CHL1   H2513800   3.142   7.075   5.541 -1.4547  3.1968 -1.7662
  102CHL1   C2613801   3.317   7.185   5.538  0.3818  0.1203  0.0274
  102CHL1  H26A13802   3.422   7.184   5.504  0.4019 -2.0436  0.0040
  102CHL1  H26B13803   3.286   7.290   5.525  1.6223  0.8380  2.2332
  102CHL1  H26C13804   3.313   7.183   5.649 -1.0640  1.6103  0.0336
  102CHL1   C2713805   3.196   7.123   5.334  0.0823 -0.8077 -0.1572
  102CHL1  H27A13806   3.288   7.112   5.272 -0.7284 -0.0967 -1.5563
  102CHL1  H27B13807   3.117   7.060   5.288 -1.9560  0.7706  1.0084
  102CHL1  H27C13808   3.162   7.229   5.335  0.6105 -0.6023 -1.5663
  103CHL1    C313809   4.152   3.633   6.770  0.4046  1.0672  0.3978
  103CHL1    H313810   4.093   3.716   6.726  1.9201  1.5413 -0.7993
  103CHL1    O313811   4.182   3.654   6.908  0.3199  0.2711  0.1727
  103CHL1   H3'13812   4.196   3.564   6.938  1.8338 -0.4082 -2.2271
  103CHL1    C413813   4.100   3.488   6.754  0.7882 -0.6792  0.3010
  103CHL1   H4A13814   4.177   3.417   6.791  0.8956 -1.2952 -1.0561
  103CHL1   H4B13815   4.013   3.481   6.824  1.5246 -0.4743  1.2642
  103CHL1    C513816   4.064   3.448   6.610  0.3640 -0.5999  0.6997
  103CHL1    C613817   3.945   3.407   6.569  0.3400  0.6259  0.4185
  103CHL1    H613818   3.861   3.383   6.635 -0.1442  0.9874 -0.0624
  103CHL1    C713819   3.921   3.357   6.424  0.0981 -0.1075  0.2662
  103CHL1   H7A13820   3.872   3.258   6.426 -0.1120 -0.0069  0.1229
  103CHL1   H7B13821   3.844   3.414   6.367  0.7139  0.6406  0.1571
  103CHL1    C813822   4.050   3.336   6.343  0.5961 -0.3050  0.6880
  103CHL1    H813823   4.095   3.240   6.375 -0.2440 -1.1851 -0.6985
  103CHL1   C1413824   4.016   3.337   6.192 -0.2082 -0.6138  0.4224
  103CHL1   H1413825   3.975   3.439   6.174 -2.0939 -1.1074  1.6393
  103CHL1   C1513826   3.910   3.249   6.134 -0.2176  0.3790 -0.2622
  103CHL1  H15A13827   3.920   3.147   6.177 -0.8189  0.3185 -0.2598
  103CHL1  H15B13828   3.808   3.284   6.162 -0.1862 -0.3945  0.8986
  103CHL1   C1613829   3.942   3.225   5.986 -0.5124  0.1839  0.0753
  103CHL1  H16A13830   3.979   3.121   5.974 -0.5690  0.1461  0.2275
  103CHL1  H16B13831   3.849   3.227   5.924 -2.0057 -2.5786  2.0075
  103CHL1   C1713832   4.070   3.317   5.963  0.9471 -0.0619 -0.5140
  103CHL1   H1713833   4.036   3.422   5.953 -0.2814 -0.1936  1.6577
  103CHL1   C1313834   4.138   3.324   6.097 -0.1639 -0.1481 -0.2133
  103CHL1   C1813835   4.204   3.183   6.130  0.8620  0.3509  0.0835
  103CHL1  H18A13836   4.129   3.105   6.155  1.4835 -0.1821  0.3160
  103CHL1  H18B13837   4.257   3.152   6.037  1.8170  0.2403  0.6483
  103CHL1  H18C13838   4.281   3.190   6.210 -1.5995  2.3790  2.4602
  103CHL1   C1213839   4.228   3.439   6.123 -0.1421 -0.1831 -0.1716
  103CHL1  H12A13840   4.320   3.421   6.064  0.6230 -0.3208  1.0267
  103CHL1  H12B13841   4.183   3.537   6.095  1.8935  0.4712 -1.3117
  103CHL1   C1113842   4.275   3.453   6.268  0.6071  0.5602  0.0121
  103CHL1  H11A13843   4.348   3.374   6.292 -0.9423 -0.6478  0.9815
  103CHL1  H11B13844   4.319   3.555   6.275 -0.1799  0.9052  0.1063
  103CHL1    C913845   4.151   3.452   6.367  0.1052 -0.4138  0.8493
  103CHL1    H913846   4.100   3.544   6.331  2.7729  1.2026  0.8957
  103CHL1   C1013847   4.184   3.476   6.514  0.4272  0.0184  0.0634
  103CHL1   C1913848   4.286   3.369   6.551  0.1724 -0.4398  0.1220
  103CHL1  H19A13849   4.293   3.361   6.661 -2.8331 -2.7189  0.2877
  103CHL1  H19B13850   4.263   3.266   6.515 -0.7101 -0.4145  0.5923
  103CHL1  H19C13851   4.387   3.379   6.506  0.2603  0.5853  0.5253
  103CHL1    C113852   4.253   3.617   6.536  0.1827  0.8281 -0.0537
  103CHL1   H1A13853   4.346   3.632   6.476  1.4682  0.9585  1.8692
  103CHL1   H1B13854   4.179   3.693   6.505  0.2015  1.0022  0.3131
  103CHL1    C213855   4.277   3.636   6.691 -0.1918  0.0530  0.2931
  103CHL1   H2A13856   4.330   3.733   6.703  0.2355  0.1054 -1.6904
  103CHL1   H2B13857   4.350   3.559   6.723  1.2000  2.0219  2.2188
  103CHL1   C2013858   4.145   3.296   5.835 -0.1181 -0.2289 -0.3635
  103CHL1   H2013859   4.243   3.244   5.848 -0.3328 -0.1049  2.1160
  103CHL1   C2113860   4.190   3.435   5.783 -0.6877  0.4892  0.2958
  103CHL1  H21A13861   4.259   3.415   5.698 -0.7272 -0.5542  0.4930
  103CHL1  H21B13862   4.262   3.496   5.841  0.9349  2.6311 -3.6269
  103CHL1  H21C13863   4.097   3.486   5.750 -1.4325 -0.0705  1.4586
  103CHL1   C2213864   4.072   3.220   5.728 -0.4719  0.7142 -0.2113
  103CHL1  H22A13865   3.964   3.205   5.749 -0.1614 -0.8787  0.3679
  103CHL1  H22B13866   4.085   3.266   5.627  0.5326  0.5314 -0.1717
  103CHL1   C2313867   4.131   3.078   5.712 -0.0848  0.6237 -0.2940
  103CHL1  H23A13868   4.239   3.079   5.685  0.0956  2.0819  0.3500
  103CHL1  H23B13869   4.125   3.032   5.813  0.3664 -0.2294 -0.6477
  103CHL1   C2413870   4.046   2.990   5.620  0.1129 -0.5611  0.5949
  103CHL1  H24A13871   3.937   2.997   5.643  0.4257 -2.1909  2.9198
  103CHL1  H24B13872   4.065   3.004   5.511 -0.6837 -1.1982  0.3632
  103CHL1   C2513873   4.076   2.840   5.624 -0.9127  0.1728  0.5116
  103CHL1   H2513874   4.029   2.801   5.718 -0.0043  1.6547  1.6272
  103CHL1   C2613875   4.000   2.767   5.512  0.4594 -0.9660 -0.2428
  103CHL1  H26A13876   4.052   2.787   5.416  1.8594 -0.6644  0.5438
  103CHL1  H26B13877   4.002   2.657   5.528 -3.1934 -1.4213 -1.9137
  103CHL1  H26C13878   3.893   2.796   5.506 -0.0053 -2.3604  0.8517
  103CHL1   C2713879   4.231   2.808   5.623 -0.2848 -0.2048  0.4602
  103CHL1  H27A13880   4.276   2.868   5.541 -1.3893 -0.5420 -0.4257
  103CHL1  H27B13881   4.277   2.830   5.722 -0.1335 -0.3734  0.4274
  103CHL1  H27C13882   4.239   2.699   5.601  0.1693 -0.1421  0.3098
  104CHL1    C313883   5.743   5.857   6.334 -0.3536  0.2695 -0.1908
  104CHL1    H313884   5.643   5.807   6.329 -0.7364  1.0721 -0.7642
  104CHL1    O313885   5.784   5.898   6.464 -0.0342  0.4811  0.0526
  104CHL1   H3'13886   5.875   5.929   6.456 -0.0325  0.4328 -0.1261
  104CHL1    C413887   5.842   5.747   6.292  1.0014 -0.0109  0.2410
  104CHL1   H4A13888   5.949   5.775   6.304  0.9747  0.6500 -0.9260
  104CHL1   H4B13889   5.806   5.662   6.355 -1.5550  2.1754  1.9308
  104CHL1    C513890   5.831   5.705   6.143 -0.3397  0.2384 -0.3346
  104CHL1    C613891   5.827   5.575   6.117  0.4842 -0.3619 -0.1352
  104CHL1    H613892   5.838   5.504   6.201 -0.3286 -0.2769  0.0544
  104CHL1    C713893   5.831   5.530   5.980 -0.3648  0.2614  0.2580
  104CHL1   H7A13894   5.890   5.437   5.966  1.8717  1.4394  1.2202
  104CHL1   H7B13895   5.724   5.506   5.965 -0.3006  0.7053 -1.0044
  104CHL1    C813896   5.866   5.636   5.872  0.2089 -0.5829 -0.2899
  104CHL1    H813897   5.975   5.661   5.877  0.2289 -0.7138 -0.0729
  104CHL1   C1413898   5.820   5.594   5.734  0.1989  0.7799  0.6032
  104CHL1   H1413899   5.709   5.588   5.735  0.0192 -1.0422 -4.1951
  104CHL1   C1513900   5.859   5.454   5.691  0.5146 -0.2055  0.0051
  104CHL1  H15A13901   5.967   5.430   5.702  0.2476 -1.2651  0.4994
  104CHL1  H15B13902   5.796   5.374   5.736  0.7070  0.0452  0.7282
  104CHL1   C1613903   5.821   5.458   5.544 -0.6371  0.4606  0.1576
  104CHL1  H16A13904   5.902   5.426   5.474 -1.7241 -1.8977 -0.1290
  104CHL1  H16B13905   5.726   5.404   5.522 -0.3332  0.1887 -0.5467
  104CHL1   C1713906   5.785   5.606   5.503 -0.9640  0.2236  0.1439
  104CHL1   H1713907   5.675   5.623   5.506 -1.0335 -0.0370 -0.6845
  104CHL1   C1313908   5.845   5.692   5.619 -0.5236 -0.1021 -0.3282
  104CHL1   C1813909   5.998   5.713   5.603  0.0560 -0.4156 -0.4102
  104CHL1  H18A13910   6.039   5.781   5.525  3.2773 -1.2566  0.3956
  104CHL1  H18B13911   6.046   5.761   5.690  0.3237  0.3527 -0.9705
  104CHL1  H18C13912   6.046   5.614   5.588 -2.0867 -1.3218 -1.7846
  104CHL1   C1213913   5.773   5.821   5.656  0.9544 -0.3275  0.0333
  104CHL1  H12A13914   5.763   5.904   5.583 -1.4373 -0.5258  0.0730
  104CHL1  H12B13915   5.667   5.792   5.670  0.4417  0.7361 -1.4491
  104CHL1   C1113916   5.821   5.871   5.795 -0.5799  0.1049 -0.0974
  104CHL1  H11A13917   5.931   5.885   5.793 -0.5551 -0.0845 -0.0671
  104CHL1  H11B13918   5.766   5.963   5.825  0.1635  0.5944 -0.1961
  104CHL1    C913919   5.801   5.771   5.905  0.2434 -0.4505 -0.3119
  104CHL1    H913920   5.692   5.747   5.910  0.1606  0.0598  0.3511
  104CHL1   C1013921   5.834   5.820   6.050  0.3943 -0.1566  0.9539
  104CHL1   C1913922   5.971   5.887   6.053 -0.4528 -0.2801 -0.3646
  104CHL1  H19A13923   6.044   5.816   6.008 -0.8732  0.4234 -2.2191
  104CHL1  H19B13924   5.957   5.972   5.982  1.3374 -1.4846 -2.2684
  104CHL1  H19C13925   6.000   5.925   6.154 -2.8405 -1.3903  0.8170
  104CHL1    C113926   5.719   5.927   6.096 -0.5589 -0.5679  0.1415
  104CHL1   H1A13927   5.699   6.020   6.038 -1.4146 -0.6044  0.3626
  104CHL1   H1B13928   5.620   5.877   6.090 -1.7539  1.5286  1.3533
  104CHL1    C213929   5.746   5.979   6.236  0.2265  0.0604 -0.0216
  104CHL1   H2A13930   5.661   6.041   6.272 -1.6283 -2.1962 -0.3220
  104CHL1   H2B13931   5.839   6.040   6.239  0.2046  0.1972 -1.6596
  104CHL1   C2013932   5.833   5.642   5.356  0.4579  0.7217  0.8158
  104CHL1   H2013933   5.944   5.634   5.349  0.4903  0.9245  1.0876
  104CHL1   C2113934   5.815   5.790   5.325  0.3989 -0.5430  0.1683
  104CHL1  H21A13935   5.838   5.811   5.218 -0.6944 -1.1674 -0.2118
  104CHL1  H21B13936   5.903   5.838   5.372 -0.6382  2.3610 -0.6267
  104CHL1  H21C13937   5.723   5.842   5.359  0.5122  2.7563 -3.7388
  104CHL1   C2213938   5.752   5.565   5.243  0.0749  0.0429 -0.4526
  104CHL1  H22A13939   5.728   5.461   5.273 -0.9725  0.1005 -1.0506
  104CHL1  H22B13940   5.648   5.598   5.220 -0.1284  0.1069  0.5414
  104CHL1   C2313941   5.829   5.553   5.114  0.0423 -0.2286 -0.2084
  104CHL1  H23A13942   5.831   5.656   5.072 -0.7439  1.8430  4.2516
  104CHL1  H23B13943   5.938   5.535   5.127 -0.0134 -0.1150  0.4425
  104CHL1   C2413944   5.754   5.465   5.009  0.8260 -0.2045  0.0534
  104CHL1  H24A13945   5.709   5.376   5.058  0.6422  0.1071  0.4550
  104CHL1  H24B13946   5.670   5.533   4.980  1.6345  1.0276  0.5470
  104CHL1   C2513947   5.847   5.416   4.895  0.1050 -1.0466 -0.3034
  104CHL1   H2513948   5.898   5.506   4.855  1.6821 -1.2144  1.2204
  104CHL1   C2613949   5.949   5.316   4.948 -0.9545 -0.8208 -0.1669
  104CHL1  H26A13950   6.024   5.376   5.004 -1.8293 -0.3096  0.4947
  104CHL1  H26B13951   5.895   5.245   5.015 -0.9315 -0.8822 -0.2139
  104CHL1  H26C13952   5.999   5.266   4.863 -0.5715  0.4237 -0.6960
  104CHL1   C2713953   5.752   5.360   4.781 -0.6504  0.0818  0.2753
  104CHL1  H27A13954   5.704   5.264   4.810  2.9000 -1.4178  1.8013
  104CHL1  H27B13955   5.667   5.431   4.771 -0.2387  0.8033  1.5090
  104CHL1  H27C13956   5.803   5.368   4.683 -0.7602 -0.3127  0.1850
  105CHL1    C313957   6.572   4.606   6.399  0.0503  0.7827  1.2149
  105CHL1    H313958   6.544   4.714   6.399 -1.5365  0.4444 -1.4752
  105CHL1    O313959   6.673   4.579   6.498  0.2592  0.1646 -0.1446
  105CHL1   H3'13960   6.742   4.640   6.468 -0.6006  1.0691 -0.3302
  105CHL1    C413961   6.447   4.535   6.446  0.1427 -0.3652  0.3853
  105CHL1   H4A13962   6.474   4.430   6.467 -2.0806 -0.7385  1.7054
  105CHL1   H4B13963   6.420   4.570   6.548 -1.4263  0.6146 -0.3311
  105CHL1    C513964   6.332   4.542   6.346 -0.0298  0.2718  0.0107
  105CHL1    C613965   6.222   4.599   6.379 -0.2784 -0.0993  0.6253
  105CHL1    H613966   6.194   4.636   6.479 -2.2474  2.5094 -0.7481
  105CHL1    C713967   6.117   4.628   6.280 -0.2151  0.0345  0.8903
  105CHL1   H7A13968   6.018   4.624   6.331 -0.9897 -0.3579 -0.5837
  105CHL1   H7B13969   6.134   4.728   6.235  1.3795 -0.3449  0.6101
  105CHL1    C813970   6.123   4.526   6.162  0.1336  0.7600  0.1139
  105CHL1    H813971   6.096   4.430   6.210 -0.5083  1.2709  0.8002
  105CHL1   C1413972   6.019   4.561   6.054 -0.3783  0.4039  0.0856
  105CHL1   H1413973   6.049   4.656   6.006  2.9261  0.4921  2.0381
  105CHL1   C1513974   5.875   4.579   6.098 -0.1091  0.4406  0.0323
  105CHL1  H15A13975   5.855   4.508   6.181  0.1417 -1.6855 -1.6405
  105CHL1  H15B13976   5.858   4.680   6.140  0.6075  1.7492 -2.6049
  105CHL1   C1613977   5.793   4.552   5.973  0.6058 -0.7226  0.3926
  105CHL1  H16A13978   5.722   4.471   5.997 -1.0668 -0.3401 -2.7757
  105CHL1  H16B13979   5.740   4.647   5.949  4.1046  1.1790 -0.4886
  105CHL1   C1713980   5.895   4.521   5.858  0.2334  0.4952  0.2603
  105CHL1   H1713981   5.926   4.621   5.820 -1.2951 -0.0528 -2.7620
  105CHL1   C1313982   6.018   4.465   5.935 -0.1548 -0.4620 -0.2840
  105CHL1   C1813983   5.983   4.317   5.993  0.0834  0.2515  0.0804
  105CHL1  H18A13984   5.896   4.322   6.062  0.5220  0.0725  0.6585
  105CHL1  H18B13985   5.968   4.255   5.902  1.0298 -0.8638  0.6609
  105CHL1  H18C13986   6.067   4.275   6.052 -0.0956  0.1924  0.2968
  105CHL1   C1213987   6.151   4.459   5.864 -0.0034 -0.0932 -0.5830
  105CHL1  H12A13988   6.136   4.379   5.789  0.9261 -1.4507  0.6272
  105CHL1  H12B13989   6.168   4.561   5.822 -1.2676  0.0761 -0.7232
  105CHL1   C1113990   6.273   4.429   5.959  0.6028  0.3380 -0.3919
  105CHL1  H11A13991   6.274   4.320   5.983  2.8043  0.2511 -0.7148
  105CHL1  H11B13992   6.368   4.452   5.907  1.2119 -0.0196  0.5434
  105CHL1    C913993   6.262   4.511   6.093 -0.8827 -0.0623  0.3651
  105CHL1    H913994   6.290   4.610   6.051  1.7429 -0.9103 -0.0237
  105CHL1   C1013995   6.369   4.493   6.204  0.1008  0.2014  0.2724
  105CHL1   C1913996   6.393   4.340   6.201  0.1216 -0.0244 -0.1927
  105CHL1  H19A13997   6.310   4.266   6.200 -0.3677  0.5179 -1.1078
  105CHL1  H19B13998   6.451   4.313   6.110 -0.2281 -1.9147  0.1098
  105CHL1  H19C13999   6.461   4.302   6.280 -0.3642  0.3574  0.4142
  105CHL1    C114000   6.498   4.567   6.158  0.3282  0.7776 -0.0322
  105CHL1   H1A14001   6.540   4.525   6.064  1.0221  1.4975 -0.0477
  105CHL1   H1B14002   6.464   4.671   6.141  0.1977  0.5063 -1.6390
  105CHL1    C214003   6.617   4.561   6.260 -0.2897 -0.0677 -0.3764
  105CHL1   H2A14004   6.699   4.630   6.230 -0.5976 -0.0853 -1.2669
  105CHL1   H2B14005   6.649   4.454   6.266 -3.8894 -1.4592 -2.9746
  105CHL1   C2014006   5.812   4.442   5.747 -0.1161  0.0437 -0.2113
  105CHL1   H2014007   5.774   4.347   5.790  0.9489 -0.3885 -0.1985
  105CHL1   C2114008   5.907   4.413   5.623  0.3024 -0.6224  0.0448
  105CHL1  H21A14009   5.845   4.392   5.533 -0.2737  2.5110 -0.3715
  105CHL1  H21B14010   5.960   4.318   5.646  0.9493 -0.3509 -0.3105
  105CHL1  H21C14011   5.983   4.493   5.613  1.1604 -1.4613 -0.3030
  105CHL1   C2214012   5.684   4.509   5.706  0.0227 -0.2550  0.6580
  105CHL1  H22A14013   5.625   4.530   5.798 -0.2077 -0.1330  0.4834
  105CHL1  H22B14014   5.699   4.605   5.654 -2.3903  0.2363  0.7829
  105CHL1   C2314015   5.595   4.426   5.620  0.2499  0.2391 -0.1514
  105CHL1  H23A14016   5.642   4.420   5.519 -0.6871  1.0196 -0.6542
  105CHL1  H23B14017   5.581   4.324   5.660  0.2608 -0.1437 -1.0828
  105CHL1   C2414018   5.458   4.485   5.602 -0.7916  0.1979  0.1734
  105CHL1  H24A14019   5.416   4.508   5.702 -0.4863  2.5553 -0.1739
  105CHL1  H24B14020   5.449   4.580   5.545 -2.1938  0.1857  0.3356
  105CHL1   C2514021   5.355   4.404   5.519 -0.3895  0.8142 -0.2278
  105CHL1   H2514022   5.328   4.312   5.575 -0.5713  1.3479  0.5860
  105CHL1   C2614023   5.229   4.487   5.492  0.4124 -0.1778 -0.4330
  105CHL1  H26A14024   5.189   4.546   5.578 -0.0140  0.7678 -1.2636
  105CHL1  H26B14025   5.256   4.574   5.429 -0.5549  0.5455  0.1183
  105CHL1  H26C14026   5.149   4.435   5.436 -0.9958  1.1882  0.2382
  105CHL1   C2714027   5.416   4.373   5.379  0.6137  0.7597 -0.6082
  105CHL1  H27A14028   5.517   4.328   5.393  1.2168  1.8782 -1.1700
  105CHL1  H27B14029   5.348   4.297   5.335 -1.1081  0.0355  3.0026
  105CHL1  H27C14030   5.420   4.469   5.322  0.8220  0.4512 -1.1177
  106CHL1    C314031   3.901   3.862   6.530  0.0174 -0.0739  0.9381
  106CHL1    H314032   3.994   3.801   6.526  0.0370 -0.1078  1.6850
  106CHL1    O314033   3.905   3.932   6.651  0.0106  0.0542 -0.1667
  106CHL1   H3'14034   3.815   3.933   6.684  0.5063  0.3037  1.2563
  106CHL1    C414035   3.901   3.958   6.408  0.3694 -0.2009  0.3979
  106CHL1   H4A14036   3.818   4.030   6.419  0.3404 -0.5333  2.7922
  106CHL1   H4B14037   3.997   4.014   6.399  0.9529 -1.4769 -2.5389
  106CHL1    C514038   3.890   3.890   6.271  0.3236  0.2563 -0.4118
  106CHL1    C614039   3.980   3.912   6.171  0.2719  0.3713  0.2428
  106CHL1    H614040   4.060   3.986   6.186 -0.4340  0.9484  1.2787
  106CHL1    C714041   3.964   3.844   6.040 -0.4912 -0.3391  0.8032
  106CHL1   H7A14042   3.973   3.910   5.951 -0.8679 -2.3089 -0.7704
  106CHL1   H7B14043   4.046   3.770   6.023 -1.3129 -1.2409  0.6751
  106CHL1    C814044   3.831   3.777   6.017 -0.4290 -0.1217  0.4368
  106CHL1    H814045   3.749   3.848   5.995  0.2701  0.2777 -0.9838
  106CHL1   C1414046   3.833   3.681   5.892  0.4932 -0.3575  0.6218
  106CHL1   H1414047   3.914   3.610   5.917  2.0330  1.6011  1.4796
  106CHL1   C1514048   3.876   3.741   5.757  0.5974 -0.1493  0.3011
  106CHL1  H15A14049   3.816   3.832   5.738 -1.6107 -1.2417  1.6645
  106CHL1  H15B14050   3.982   3.773   5.762  0.6436 -0.3123  0.3993
  106CHL1   C1614051   3.850   3.639   5.649 -0.6008  0.2815  0.1707
  106CHL1  H16A14052   3.776   3.682   5.578 -3.0957 -1.0001  1.8390
  106CHL1  H16B14053   3.953   3.619   5.612 -0.6152  0.6000 -0.0515
  106CHL1   C1714054   3.776   3.526   5.733  0.0402  0.5899  0.4058
  106CHL1   H1714055   3.866   3.469   5.766  0.8682  2.4112  1.4352
  106CHL1   C1314056   3.714   3.590   5.859 -0.4718  0.1410 -0.8432
  106CHL1   C1814057   3.591   3.675   5.812 -0.4188  0.0398  0.1787
  106CHL1  H18A14058   3.574   3.759   5.883  1.0164 -0.2588  0.9101
  106CHL1  H18B14059   3.614   3.723   5.714  1.1421 -0.3272  0.3294
  106CHL1  H18C14060   3.503   3.608   5.807 -0.7229  0.3322  1.3335
  106CHL1   C1214061   3.685   3.508   5.989 -0.2467 -0.0956 -0.1559
  106CHL1  H12A14062   3.603   3.434   5.984  0.0387 -0.4471  0.2981
  106CHL1  H12B14063   3.776   3.446   6.006 -0.9113 -1.6548 -1.8547
  106CHL1   C1114064   3.665   3.606   6.108 -0.0929  0.3454  0.1502
  106CHL1  H11A14065   3.574   3.664   6.084 -0.7334  0.5342  2.7418
  106CHL1  H11B14066   3.641   3.549   6.201  0.7526 -0.7235 -0.2572
  106CHL1    C914067   3.789   3.698   6.140 -0.6204 -0.0083  1.2664
  106CHL1    H914068   3.868   3.623   6.158  1.1200  1.4009 -0.0667
  106CHL1   C1014069   3.772   3.788   6.264 -0.1705 -0.2167  0.6789
  106CHL1   C1914070   3.646   3.873   6.253 -0.1046 -0.5776 -0.6929
  106CHL1  H19A14071   3.650   3.944   6.168  0.0291  0.8711  0.4822
  106CHL1  H19B14072   3.560   3.807   6.227 -1.1115  0.4675 -0.1510
  106CHL1  H19C14073   3.613   3.922   6.347 -1.5411  0.1478 -1.5381
  106CHL1    C114074   3.764   3.698   6.395  0.2240 -0.3854  1.2597
  106CHL1   H1A14075   3.669   3.640   6.389  0.0390  0.0552 -1.1896
  106CHL1   H1B14076   3.846   3.623   6.395 -0.7938 -1.5648 -0.4497
  106CHL1    C214077   3.776   3.776   6.520 -0.4464 -0.2236  0.3410
  106CHL1   H2A14078   3.782   3.713   6.612  1.1364  0.4976  0.7657
  106CHL1   H2B14079   3.696   3.852   6.535 -0.6880 -0.6748  1.4487
  106CHL1   C2014080   3.684   3.446   5.636 -0.3869  1.0575 -0.4204
  106CHL1   H2014081   3.596   3.513   5.620 -0.3293  1.2115 -0.1023
  106CHL1   C2114082   3.633   3.321   5.713  0.2162  0.5055 -0.1969
  106CHL1  H21A14083   3.556   3.267   5.654  0.9890  0.8652 -1.5748
  106CHL1  H21B14084   3.587   3.351   5.809 -2.3573 -0.5990 -1.0051
  106CHL1  H21C14085   3.722   3.258   5.732 -0.8907 -0.4947  2.0413
  106CHL1   C2214086   3.752   3.405   5.501  0.2401  0.4416  0.0948
  106CHL1  H22A14087   3.776   3.491   5.435  0.0557  1.3551  1.1844
  106CHL1  H22B14088   3.853   3.363   5.517  0.4048  0.5488 -0.6260
  106CHL1   C2314089   3.660   3.315   5.415  0.0353  0.1955  0.2743
  106CHL1  H23A14090   3.630   3.217   5.457 -0.2285 -0.4204 -1.2751
  106CHL1  H23B14091   3.567   3.366   5.383  0.8025  2.6181  1.7004
  106CHL1   C2414092   3.729   3.280   5.279 -0.4926 -1.1729 -0.4964
  106CHL1  H24A14093   3.778   3.364   5.226 -0.1851 -0.6967  0.5131
  106CHL1  H24B14094   3.812   3.208   5.299  0.3573 -0.1655 -0.3129
  106CHL1   C2514095   3.629   3.219   5.176 -0.4509 -0.4602  0.2647
  106CHL1   H2514096   3.553   3.296   5.151 -0.7901 -0.1480  2.1062
  106CHL1   C2614097   3.702   3.204   5.039  0.4816 -0.1854 -0.0832
  106CHL1  H26A14098   3.796   3.147   5.055  0.7674  0.2909 -0.0371
  106CHL1  H26B14099   3.635   3.144   4.974  0.1534 -0.8223  0.8136
  106CHL1  H26C14100   3.723   3.306   5.001 -0.7085 -0.7333 -2.3995
  106CHL1   C2714101   3.554   3.089   5.215  0.1537 -0.5530 -0.8111
  106CHL1  H27A14102   3.480   3.064   5.136 -1.7747  1.4316  0.2428
  106CHL1  H27B14103   3.623   3.007   5.244 -0.3165 -0.6709  0.0151
  106CHL1  H27C14104   3.490   3.118   5.301 -1.0587  1.1536 -2.2112
  107CHL1    C314105   4.251   6.694   6.383 -0.7109  0.2587  0.0315
  107CHL1    H314106   4.173   6.756   6.335 -1.2448 -0.8105 -0.5424
  107CHL1    O314107   4.204   6.674   6.516 -0.1753  0.0610  0.2849
  107CHL1   H3'14108   4.247   6.592   6.540  0.2496 -0.0459 -0.7532
  107CHL1    C414109   4.254   6.562   6.312 -0.1151  0.9933 -0.1518
  107CHL1   H4A14110   4.312   6.494   6.378  0.4773  1.8266  0.1989
  107CHL1   H4B14111   4.153   6.515   6.313  0.7293 -0.9248 -0.2406
  107CHL1    C514112   4.320   6.569   6.177  0.6896 -0.1956  0.0104
  107CHL1    C614113   4.256   6.523   6.071  0.2796 -0.5224  0.4514
  107CHL1    H614114   4.161   6.471   6.087  0.0589 -0.5992 -1.0327
  107CHL1    C714115   4.299   6.547   5.933  0.7091 -0.9446  0.2375
  107CHL1   H7A14116   4.286   6.460   5.866 -0.2975  0.3903 -1.3929
  107CHL1   H7B14117   4.242   6.635   5.895 -0.8400 -1.6514  0.8466
  107CHL1    C814118   4.448   6.589   5.917  0.7247 -0.3157 -0.0802
  107CHL1    H814119   4.512   6.503   5.946  2.4572 -0.0540 -2.7905
  107CHL1   C1414120   4.484   6.630   5.779 -1.0942  0.1642 -0.5051
  107CHL1   H1414121   4.435   6.729   5.764 -1.2182  0.1375 -0.2634
  107CHL1   C1514122   4.442   6.542   5.664  0.5790 -0.1944  0.1389
  107CHL1  H15A14123   4.453   6.433   5.680 -0.0162 -0.2831 -0.0329
  107CHL1  H15B14124   4.336   6.548   5.634  0.9934  0.0870 -1.3605
  107CHL1   C1614125   4.531   6.590   5.545 -0.6073  0.5567 -0.6966
  107CHL1  H16A14126   4.590   6.503   5.508 -0.2572  0.9457 -1.0703
  107CHL1  H16B14127   4.471   6.640   5.466  0.9114 -1.0492 -3.0167
  107CHL1   C1714128   4.626   6.691   5.607 -1.1465 -0.7884  0.1345
  107CHL1   H1714129   4.580   6.792   5.591 -0.5429 -0.8457 -2.4126
  107CHL1   C1314130   4.630   6.658   5.755 -0.0657  0.6318 -1.0504
  107CHL1   C1814131   4.712   6.529   5.782 -0.5038  0.0083  0.2491
  107CHL1  H18A14132   4.712   6.515   5.892  1.5253 -0.2629  0.2563
  107CHL1  H18B14133   4.685   6.434   5.730 -0.6079 -1.2558  2.4661
  107CHL1  H18C14134   4.819   6.552   5.764 -1.1665  2.7645 -0.5177
  107CHL1   C1214135   4.662   6.786   5.845 -0.0766  0.6904 -0.5489
  107CHL1  H12A14136   4.773   6.791   5.839 -0.0447  1.0223  0.1541
  107CHL1  H12B14137   4.611   6.876   5.806  0.4201  1.5911  0.8010
  107CHL1   C1114138   4.623   6.757   5.994  0.1744 -0.0855  0.2138
  107CHL1  H11A14139   4.692   6.675   6.026  1.1456 -0.0816 -1.6943
  107CHL1  H11B14140   4.645   6.842   6.062 -0.1203  0.4977 -0.4016
  107CHL1    C914141   4.480   6.701   6.018  0.2425 -0.4765  0.2514
  107CHL1    H914142   4.411   6.786   5.999  0.3115 -0.3690  0.4886
  107CHL1   C1014143   4.451   6.656   6.162  0.0045 -0.0611 -0.3732
  107CHL1   C1914144   4.556   6.554   6.219  0.2548  0.4866 -0.5699
  107CHL1  H19A14145   4.576   6.467   6.152  0.8286 -0.5566  0.9127
  107CHL1  H19B14146   4.659   6.597   6.222  0.9748 -1.2098  0.1433
  107CHL1  H19C14147   4.525   6.515   6.318 -0.9305 -1.5598 -1.6817
  107CHL1    C114148   4.444   6.786   6.249 -0.2385 -0.3713 -0.4561
  107CHL1   H1A14149   4.550   6.814   6.268  0.4116 -2.7524 -0.2753
  107CHL1   H1B14150   4.390   6.862   6.189 -1.0258  0.3644  1.1171
  107CHL1    C214151   4.389   6.766   6.390  0.9128  1.1942  1.0699
  107CHL1   H2A14152   4.384   6.855   6.456 -1.1145  2.0821 -0.2103
  107CHL1   H2B14153   4.458   6.697   6.444 -0.5800 -0.6206  0.7669
  107CHL1   C2014154   4.764   6.685   5.535 -0.5724  0.6139 -0.6114
  107CHL1   H2014155   4.817   6.588   5.542  0.6874  1.2389 -1.1071
  107CHL1   C2114156   4.858   6.791   5.589 -0.3527 -0.5028 -0.1697
  107CHL1  H21A14157   4.905   6.752   5.682 -1.3855 -0.1228  0.5180
  107CHL1  H21B14158   4.810   6.890   5.587  0.4540 -0.0356  1.4521
  107CHL1  H21C14159   4.946   6.807   5.523 -0.7177  3.1242  0.0352
  107CHL1   C2214160   4.748   6.698   5.381  0.8071  0.6330  0.1978
  107CHL1  H22A14161   4.849   6.687   5.337  1.2575 -1.6365  1.6214
  107CHL1  H22B14162   4.701   6.613   5.327 -0.2106  1.5538 -0.4000
  107CHL1   C2314163   4.694   6.835   5.345  0.4360 -0.3776  0.1388
  107CHL1  H23A14164   4.586   6.833   5.370 -0.5518  1.5516 -3.2930
  107CHL1  H23B14165   4.744   6.916   5.402  0.5528  0.7071 -1.4312
  107CHL1   C2414166   4.701   6.849   5.192 -0.1216 -0.1951  0.0751
  107CHL1  H24A14167   4.806   6.851   5.156  0.0533  0.0388  0.5795
  107CHL1  H24B14168   4.642   6.764   5.151 -2.6658  1.2907  0.4643
  107CHL1   C2514169   4.631   6.975   5.131 -0.6616 -0.1874  0.0842
  107CHL1   H2514170   4.658   6.985   5.023 -0.1000  0.4943  0.2836
  107CHL1   C2614171   4.479   6.963   5.138  0.1372  0.1701 -0.1591
  107CHL1  H26A14172   4.456   6.934   5.243 -1.3343  0.6004 -0.3449
  107CHL1  H26B14173   4.433   7.054   5.095  2.9034  1.7751  0.0133
  107CHL1  H26C14174   4.449   6.895   5.056  1.4263  0.4076 -0.8578
  107CHL1   C2714175   4.676   7.104   5.202 -0.8432 -0.7189  0.5534
  107CHL1  H27A14176   4.787   7.101   5.204 -0.8478 -2.0346 -0.0742
  107CHL1  H27B14177   4.654   7.189   5.134 -3.0715  0.5279  2.6454
  107CHL1  H27C14178   4.627   7.122   5.300 -0.8445  2.2795  0.1009
  108CHL1    C314179   5.969   3.305   6.447  0.6416  0.0468  0.7910
  108CHL1    H314180   6.046   3.226   6.463  0.4881 -0.0242  1.1935
  108CHL1    O314181   5.922   3.354   6.576  0.1503 -0.0030  0.1465
  108CHL1   H3'14182   5.831   3.383   6.567  1.0164  3.2923  0.6001
  108CHL1    C414183   6.031   3.416   6.363 -1.0799  0.5061  0.0031
  108CHL1   H4A14184   5.956   3.496   6.343 -1.3320  0.4364  0.6366
  108CHL1   H4B14185   6.120   3.451   6.419  0.3230 -4.1030  1.0863
  108CHL1    C514186   6.078   3.352   6.230  0.4313 -0.2722 -0.1707
  108CHL1    C614187   6.211   3.350   6.199  0.1453 -0.6082  0.3597
  108CHL1    H614188   6.287   3.394   6.265 -2.1671 -0.6391  3.2577
  108CHL1    C714189   6.265   3.295   6.067 -0.3452  0.3339 -0.0728
  108CHL1   H7A14190   6.349   3.355   6.027  0.1685 -2.0078 -2.8538
  108CHL1   H7B14191   6.300   3.194   6.098 -0.2314  0.3220 -0.2380
  108CHL1    C814192   6.154   3.281   5.967 -0.2164 -0.3311  0.2048
  108CHL1    H814193   6.135   3.386   5.936 -1.2749 -1.0887 -1.9274
  108CHL1   C1414194   6.208   3.216   5.842 -0.4418  0.1888  0.1705
  108CHL1   H1414195   6.242   3.118   5.883 -0.4402  0.9699  2.1444
  108CHL1   C1514196   6.335   3.265   5.775  0.0514 -0.7401 -0.1350
  108CHL1  H15A14197   6.317   3.373   5.761  1.6624 -0.6143 -1.4810
  108CHL1  H15B14198   6.429   3.245   5.830  0.7716 -1.2641 -1.5092
  108CHL1   C1614199   6.335   3.212   5.631 -0.2291  0.0145  0.2918
  108CHL1  H16A14200   6.330   3.304   5.568  1.6467  1.7727  2.5254
  108CHL1  H16B14201   6.424   3.152   5.603  0.5896  0.7177  1.3388
  108CHL1   C1714202   6.207   3.113   5.632 -0.1083  0.7732  0.3901
  108CHL1   H1714203   6.238   3.016   5.678 -2.7292 -0.5496 -0.4486
  108CHL1   C1314204   6.105   3.174   5.734 -0.5557  0.5133  0.8682
  108CHL1   C1814205   6.049   3.302   5.665  0.3402  0.5679  0.1591
  108CHL1  H18A14206   5.972   3.280   5.587  2.2082  1.4039 -2.0154
  108CHL1  H18B14207   5.995   3.357   5.745  0.3793 -1.0057  1.3031
  108CHL1  H18C14208   6.125   3.361   5.610 -0.2625  1.6389  0.4511
  108CHL1   C1214209   5.997   3.086   5.790  0.0636 -0.1769 -0.2888
  108CHL1  H12A14210   5.914   3.072   5.717 -0.2127  1.2335 -0.2825
  108CHL1  H12B14211   6.040   2.988   5.821 -1.6129 -0.0770  2.7661
  108CHL1   C1114212   5.928   3.153   5.915 -0.4965 -0.6171 -0.7451
  108CHL1  H11A14213   5.876   3.243   5.874 -0.1575  0.5898  1.3162
  108CHL1  H11B14214   5.856   3.081   5.960  2.5879 -3.4804 -0.0032
  108CHL1    C914215   6.031   3.210   6.027 -0.2040 -0.4179  0.2591
  108CHL1    H914216   6.074   3.115   6.066  1.2620 -0.8104 -2.1433
  108CHL1   C1014217   5.967   3.292   6.148  0.0241 -0.0148  1.2443
  108CHL1   C1914218   5.879   3.415   6.104 -0.0686  0.4745 -0.1527
  108CHL1  H19A14219   5.809   3.373   6.028 -0.6911 -2.1071  1.6984
  108CHL1  H19B14220   5.822   3.458   6.189 -1.2581 -1.0612 -0.1211
  108CHL1  H19C14221   5.940   3.491   6.050 -1.2617 -0.2807 -2.6930
  108CHL1    C114222   5.874   3.197   6.233  0.0501 -0.1323  0.5524
  108CHL1   H1A14223   5.777   3.189   6.180  0.1281 -0.6525  0.4880
  108CHL1   H1B14224   5.932   3.103   6.230  0.5394  0.1832 -0.7827
  108CHL1    C214225   5.844   3.244   6.372  0.9153  0.4402 -0.0734
  108CHL1   H2A14226   5.817   3.159   6.438 -0.8669  0.8157 -0.2668
  108CHL1   H2B14227   5.761   3.317   6.367 -1.5368 -2.1278  0.2101
  108CHL1   C2014228   6.145   3.077   5.500 -0.1810 -0.6524 -0.4075
  108CHL1   H2014229   6.047   3.125   5.481 -0.9154 -1.2727  1.5549
  108CHL1   C2114230   6.115   2.928   5.516 -0.4876  0.4196  0.1713
  108CHL1  H21A14231   6.049   2.893   5.599  0.6023 -1.6934  0.2169
  108CHL1  H21B14232   6.207   2.866   5.517  0.2517  1.4920  0.1204
  108CHL1  H21C14233   6.053   2.900   5.428 -1.2413  2.1743  0.1179
  108CHL1   C2214234   6.241   3.111   5.383 -0.6170 -0.0168  0.1987
  108CHL1  H22A14235   6.245   3.219   5.358  0.7632 -0.1898 -0.4384
  108CHL1  H22B14236   6.345   3.072   5.395  0.0279  1.2044 -1.1226
  108CHL1   C2314237   6.184   3.046   5.254  0.2629 -0.4018 -0.8790
  108CHL1  H23A14238   6.194   2.936   5.266 -0.5648 -0.3793  0.1638
  108CHL1  H23B14239   6.078   3.066   5.227  0.2722 -0.9829 -1.3704
  108CHL1   C2414240   6.270   3.077   5.128  0.3842  0.6603  0.2412
  108CHL1  H24A14241   6.245   3.180   5.098 -0.4527  0.4944  0.3145
  108CHL1  H24B14242   6.374   3.070   5.165  0.3182 -0.3208  0.2899
  108CHL1   C2514243   6.244   2.978   5.013  0.0709 -0.1891 -0.9343
  108CHL1   H2514244   6.281   2.877   5.041 -1.0765 -0.8415 -1.6924
  108CHL1   C2614245   6.095   2.962   4.977 -0.2389 -0.0483  0.2972
  108CHL1  H26A14246   6.053   3.063   4.992  1.3963  0.4977  1.5096
  108CHL1  H26B14247   6.088   2.936   4.869  0.4534  2.0902 -0.3013
  108CHL1  H26C14248   6.047   2.897   5.053  0.2503 -0.2929  0.3981
  108CHL1   C2714249   6.322   3.026   4.884  0.6703 -0.2984 -0.0517
  108CHL1  H27A14250   6.307   2.949   4.806 -0.4310  0.0424 -0.2051
  108CHL1  H27B14251   6.277   3.126   4.862  0.3167 -0.4654 -0.0938
  108CHL1  H27C14252   6.427   3.045   4.914  0.5645  0.8303 -0.3223
  109CHL1    C314253   3.714   6.241   6.718  0.2656 -0.1401 -0.6152
  109CHL1    H314254   3.627   6.307   6.699  0.0506 -0.2417 -0.0100
  109CHL1    O314255   3.719   6.212   6.858 -0.0797  0.0320  0.2501
  109CHL1   H3'14256   3.798   6.159   6.866  0.7258  0.9497 -1.1049
  109CHL1    C414257   3.682   6.104   6.648 -0.3720  0.1368 -0.9295
  109CHL1   H4A14258   3.760   6.032   6.681 -0.2109  0.2057 -1.1567
  109CHL1   H4B14259   3.586   6.063   6.686  0.1800 -2.3510 -2.0229
  109CHL1    C514260   3.683   6.110   6.495  0.7019  0.2153 -0.3455
  109CHL1    C614261   3.575   6.096   6.412  0.3866  0.0297 -0.1911
  109CHL1    H614262   3.476   6.079   6.456 -0.0778  0.4260 -1.0619
  109CHL1    C714263   3.585   6.112   6.266  0.4518  0.1045 -0.4785
  109CHL1   H7A14264   3.527   6.039   6.205 -1.7228  1.3318  0.0095
  109CHL1   H7B14265   3.540   6.207   6.231  1.5141  0.7894 -0.0296
  109CHL1    C814266   3.729   6.101   6.213  0.5066  1.0420 -0.0932
  109CHL1    H814267   3.780   6.004   6.232 -2.7763 -0.9618 -0.6634
  109CHL1   C1414268   3.724   6.139   6.064 -0.1945  0.0598 -0.6991
  109CHL1   H1414269   3.665   6.233   6.060 -1.2274 -0.3657  2.1285
  109CHL1   C1514270   3.645   6.059   5.962 -0.4914  0.8393 -0.3672
  109CHL1  H15A14271   3.671   5.952   5.972  1.6140  1.5061  3.0593
  109CHL1  H15B14272   3.536   6.075   5.971 -0.7755 -1.2727  0.4420
  109CHL1   C1614273   3.689   6.114   5.830  0.1603  0.4506  0.1837
  109CHL1  H16A14274   3.730   6.039   5.759 -2.1949  0.2975 -1.1146
  109CHL1  H16B14275   3.606   6.150   5.765 -0.5279  0.0457  0.8278
  109CHL1   C1714276   3.803   6.214   5.863  0.1981  0.3820 -0.1348
  109CHL1   H1714277   3.755   6.314   5.872  0.2050  0.4406 -0.6922
  109CHL1   C1314278   3.855   6.173   6.003  0.0846 -0.1171 -0.4887
  109CHL1   C1814279   3.951   6.058   5.995 -0.1853  0.8149 -0.3579
  109CHL1  H18A14280   4.054   6.089   5.967  0.8593 -1.1309  1.0721
  109CHL1  H18B14281   3.945   6.013   6.097 -2.7991  0.3864 -0.6193
  109CHL1  H18C14282   3.906   5.987   5.923 -1.0815  0.4194  0.5543
  109CHL1   C1214283   3.922   6.285   6.083 -0.1785  0.1358  0.1243
  109CHL1  H12A14284   4.016   6.314   6.032 -0.1933 -0.2914 -0.1428
  109CHL1  H12B14285   3.859   6.377   6.079  0.7810  0.8418  0.8687
  109CHL1   C1114286   3.945   6.242   6.227 -0.0389  0.0991  0.0887
  109CHL1  H11A14287   4.017   6.159   6.236 -1.1352 -0.7575  1.3822
  109CHL1  H11B14288   3.993   6.321   6.290  0.3492 -1.0840  1.3186
  109CHL1    C914289   3.811   6.208   6.292 -0.2349  0.4853 -0.0900
  109CHL1    H914290   3.745   6.297   6.290  0.9948  1.4058 -1.2770
  109CHL1   C1014291   3.817   6.170   6.441 -0.2609  0.3844 -0.0178
  109CHL1   C1914292   3.926   6.059   6.465 -0.4668  0.0316  0.5430
  109CHL1  H19A14293   3.938   6.036   6.573  2.0311  0.8636  0.5066
  109CHL1  H19B14294   3.895   5.967   6.411  0.0720  0.6641 -0.8940
  109CHL1  H19C14295   4.022   6.102   6.429 -0.5868  0.1546  0.3640
  109CHL1    C114296   3.855   6.307   6.516 -0.2202  0.7232  0.0144
  109CHL1   H1A14297   3.956   6.346   6.489  0.2761  0.6949  1.6874
  109CHL1   H1B14298   3.783   6.384   6.483 -0.3225  1.2474  1.4132
  109CHL1    C214299   3.843   6.297   6.673 -0.5987 -0.6643  0.1281
  109CHL1   H2A14300   3.872   6.398   6.707  0.3345 -1.3303  1.3939
  109CHL1   H2B14301   3.925   6.223   6.685  0.1285 -0.0438 -0.7959
  109CHL1   C2014302   3.907   6.229   5.752  0.7745  0.8361 -0.1629
  109CHL1   H2014303   3.965   6.135   5.741 -1.0440 -0.2556 -0.7784
  109CHL1   C2114304   4.014   6.339   5.773  0.2647  0.2734 -0.0955
  109CHL1  H21A14305   4.093   6.303   5.842  2.9311  2.7541 -1.6108
  109CHL1  H21B14306   3.976   6.433   5.819 -1.5663 -0.7055  0.5338
  109CHL1  H21C14307   4.059   6.365   5.675 -1.7848  0.6936 -0.9863
  109CHL1   C2214308   3.839   6.261   5.614  0.1508 -0.2478 -0.2208
  109CHL1  H22A14309   3.920   6.266   5.538  0.2085 -2.7131 -0.3829
  109CHL1  H22B14310   3.770   6.182   5.577 -0.2638  0.5398 -1.1708
  109CHL1   C2314311   3.771   6.400   5.601  0.2746 -0.1045 -0.2161
  109CHL1  H23A14312   3.708   6.409   5.692 -0.0729 -1.4218 -0.3156
  109CHL1  H23B14313   3.846   6.482   5.608 -0.8709  0.8609  1.7505
  109CHL1   C2414314   3.703   6.412   5.458 -0.2624  0.4911  0.0073
  109CHL1  H24A14315   3.787   6.415   5.385  1.3197  0.5215  1.7372
  109CHL1  H24B14316   3.634   6.326   5.443 -0.7580  0.8268  0.3508
  109CHL1   C2514317   3.626   6.543   5.430 -0.4386 -0.4970 -0.1330
  109CHL1   H2514318   3.547   6.550   5.508 -1.5144  1.2046 -1.3029
  109CHL1   C2614319   3.715   6.670   5.450  0.2997 -0.3806  0.7029
  109CHL1  H26A14320   3.783   6.674   5.362 -0.1406 -0.5391  0.3477
  109CHL1  H26B14321   3.655   6.764   5.448  2.0371  0.7493 -0.4430
  109CHL1  H26C14322   3.774   6.663   5.543  0.4584  2.4927  0.8963
  109CHL1   C2714323   3.553   6.536   5.293 -0.4923  0.0064  0.4216
  109CHL1  H27A14324   3.481   6.451   5.279  1.8598 -2.3485  1.6943
  109CHL1  H27B14325   3.499   6.632   5.283  0.7702  1.0804  3.0830
  109CHL1  H27C14326   3.635   6.542   5.218  0.0738  2.4475  1.1663
  110CHL1    C314327   1.982   5.292   6.566 -0.5622 -0.1013  0.3430
  110CHL1    H314328   1.901   5.359   6.531  1.8032  1.0752 -3.5870
  110CHL1    O314329   1.933   5.230   6.688 -0.5877  0.3405 -0.0071
  110CHL1   H3'14330   1.957   5.293   6.756  1.8338 -1.1395  0.6472
  110CHL1    C414331   2.004   5.187   6.458 -0.0086 -0.4447 -0.3868
  110CHL1   H4A14332   2.087   5.115   6.477 -0.3426 -0.4712  1.1072
  110CHL1   H4B14333   1.915   5.121   6.460 -1.1264  1.0316 -0.1947
  110CHL1    C514334   2.039   5.254   6.327  0.0835  0.2462  0.2444
  110CHL1    C614335   1.967   5.228   6.217  0.5011 -0.6376  0.1985
  110CHL1    H614336   1.876   5.169   6.232 -0.6519  0.8368 -0.7116
  110CHL1    C714337   2.000   5.284   6.087 -0.5224 -0.1206 -0.1094
  110CHL1   H7A14338   1.980   5.211   6.005 -1.5494  0.4812 -0.4153
  110CHL1   H7B14339   1.942   5.378   6.076  0.1481  0.4663  1.2697
  110CHL1    C814340   2.146   5.343   6.075  0.2403  0.0931 -0.5422
  110CHL1    H814341   2.214   5.256   6.064 -0.7559 -0.9690  1.1956
  110CHL1   C1414342   2.165   5.435   5.958 -0.4350 -0.2290 -0.0236
  110CHL1   H1414343   2.101   5.525   5.961  1.8121  1.4216  1.2872
  110CHL1   C1514344   2.120   5.379   5.820  0.6790  0.0593 -0.4295
  110CHL1  H15A14345   2.136   5.269   5.822 -1.6614 -0.3851  3.0223
  110CHL1  H15B14346   2.011   5.394   5.804  0.0444 -1.3820  2.0396
  110CHL1   C1614347   2.208   5.454   5.722  0.2718  0.1213 -0.2946
  110CHL1  H16A14348   2.265   5.372   5.672 -0.4439  0.2293 -1.3144
  110CHL1  H16B14349   2.152   5.499   5.637  0.1627  0.9971  0.2331
  110CHL1   C1714350   2.296   5.553   5.803 -1.1693 -1.2071 -0.3991
  110CHL1   H1714351   2.236   5.645   5.821  0.2006  0.5616 -3.8346
  110CHL1   C1314352   2.308   5.487   5.940  0.7416 -0.5152  0.3774
  110CHL1   C1814353   2.418   5.377   5.929  0.2977  0.1512 -0.8372
  110CHL1  H18A14354   2.408   5.323   5.832  1.6390  0.1801 -1.0023
  110CHL1  H18B14355   2.518   5.424   5.920 -0.8926  2.6487 -2.2160
  110CHL1  H18C14356   2.420   5.301   6.010  0.8914 -2.4897 -3.1647
  110CHL1   C1214357   2.336   5.581   6.056 -0.3259  0.2241 -0.6903
  110CHL1  H12A14358   2.446   5.596   6.057 -0.2019 -0.3539 -2.4794
  110CHL1  H12B14359   2.276   5.674   6.049  0.2855  0.6675 -0.0834
  110CHL1   C1114360   2.302   5.507   6.191 -0.6856 -0.6190 -0.3060
  110CHL1  H11A14361   2.394   5.448   6.213 -0.7092 -0.1621  1.0655
  110CHL1  H11B14362   2.307   5.582   6.273  1.7281  0.7044 -1.5459
  110CHL1    C914363   2.174   5.423   6.201 -0.1229 -0.6426  0.0385
  110CHL1    H914364   2.098   5.504   6.206  0.4721  0.1755 -2.7560
  110CHL1   C1014365   2.162   5.347   6.334 -0.2444 -0.2859  0.2564
  110CHL1   C1914366   2.302   5.272   6.358  0.8643 -0.2105  0.3171
  110CHL1  H19A14367   2.297   5.188   6.431  1.3192 -1.3308 -0.9066
  110CHL1  H19B14368   2.330   5.220   6.264  2.1226 -2.7580  1.9461
  110CHL1  H19C14369   2.381   5.341   6.395 -1.4386  3.6469 -1.4130
  110CHL1    C114370   2.151   5.442   6.454  0.0765 -0.4558 -0.7749
  110CHL1   H1A14371   2.243   5.495   6.487 -1.2002  1.1456  0.3448
  110CHL1   H1B14372   2.075   5.520   6.438  0.0114 -0.1663  0.8449
  110CHL1    C214373   2.109   5.370   6.588  0.3342  0.1583  0.2964
  110CHL1   H2A14374   2.101   5.449   6.665 -0.6708  0.7661 -0.4081
  110CHL1   H2B14375   2.196   5.313   6.626 -0.2629 -0.4759  0.7264
  110CHL1   C2014376   2.417   5.604   5.722 -0.0670 -1.1316  0.1966
  110CHL1   H2014377   2.475   5.513   5.695  2.5797  0.5565 -0.2249
  110CHL1   C2114378   2.487   5.709   5.814  0.7983  0.8823  0.1852
  110CHL1  H21A14379   2.550   5.664   5.893  0.6288 -1.9671 -1.1811
  110CHL1  H21B14380   2.406   5.771   5.857  1.2391  0.2956  1.9372
  110CHL1  H21C14381   2.558   5.774   5.759  0.0462 -0.8381 -3.0565
  110CHL1   C2214382   2.380   5.659   5.582  0.3170 -0.2319  0.2642
  110CHL1  H22A14383   2.332   5.577   5.523  0.9003 -1.8780  1.9816
  110CHL1  H22B14384   2.320   5.751   5.598  0.5431  0.4653 -2.3728
  110CHL1   C2314385   2.504   5.710   5.508 -0.1948 -0.4584 -0.1293
  110CHL1  H23A14386   2.542   5.803   5.555  0.1292 -1.0870  0.8821
  110CHL1  H23B14387   2.570   5.622   5.510 -0.4486 -0.6599 -0.4923
  110CHL1   C2414388   2.477   5.732   5.357 -0.3665  0.2818 -0.3082
  110CHL1  H24A14389   2.413   5.642   5.340 -0.5318  0.6709 -1.8852
  110CHL1  H24B14390   2.422   5.828   5.346 -1.8882 -0.5317 -0.1620
  110CHL1   C2514391   2.597   5.729   5.262  0.6944  0.9651  0.5189
  110CHL1   H2514392   2.643   5.629   5.252 -2.4769 -0.3820 -2.2789
  110CHL1   C2614393   2.540   5.766   5.123  0.6828  0.6803 -0.1024
  110CHL1  H26A14394   2.479   5.858   5.120  1.8829  1.6304  2.0552
  110CHL1  H26B14395   2.617   5.762   5.044 -0.5677  0.3216 -1.3543
  110CHL1  H26C14396   2.465   5.690   5.090 -0.1664  1.3308  0.2809
  110CHL1   C2714397   2.705   5.824   5.308  0.4742  0.3036  0.6869
  110CHL1  H27A14398   2.786   5.825   5.231  0.7319  0.3675  0.9594
  110CHL1  H27B14399   2.667   5.927   5.318 -0.2064  0.1568 -0.2057
  110CHL1  H27C14400   2.753   5.784   5.400  1.1657 -0.2283  0.1106
  111CHL1    C314401   4.694   1.060   6.613  0.4961  0.6348  0.9752
  111CHL1    H314402   4.741   1.150   6.567  0.4471  0.3768  0.4139
  111CHL1    O314403   4.719   1.060   6.750  0.0882 -0.1942 -0.6602
  111CHL1   H3'14404   4.814   1.060   6.743  0.2678 -1.1323  1.2276
  111CHL1    C414405   4.537   1.073   6.595 -0.6755  0.2285 -0.1839
  111CHL1   H4A14406   4.494   0.986   6.649 -0.2220 -0.3223 -0.6943
  111CHL1   H4B14407   4.493   1.159   6.649 -0.9106  1.3766 -2.1103
  111CHL1    C514408   4.504   1.063   6.445  0.5032 -0.2475  0.0878
  111CHL1    C614409   4.450   1.163   6.373  0.6077 -0.7572  0.1279
  111CHL1    H614410   4.410   1.250   6.427 -2.5445 -1.4473 -0.8882
  111CHL1    C714411   4.400   1.162   6.232  0.4044 -1.1215 -0.2382
  111CHL1   H7A14412   4.292   1.185   6.245  0.4911  0.8521 -2.3451
  111CHL1   H7B14413   4.433   1.247   6.169 -3.0043  0.4163 -0.1384
  111CHL1    C814414   4.408   1.024   6.161  0.2706  0.3475 -0.0784
  111CHL1    H814415   4.322   0.962   6.194  0.6504  0.9540  2.3058
  111CHL1   C1414416   4.414   1.039   6.007  0.0460  0.6714  0.1380
  111CHL1   H1414417   4.501   1.105   5.988  1.4226 -0.8980  0.7925
  111CHL1   C1514418   4.287   1.104   5.953 -0.2551  0.7196  0.0157
  111CHL1  H15A14419   4.202   1.050   6.000  1.8729 -2.6215  0.3005
  111CHL1  H15B14420   4.296   1.214   5.964  3.9977  0.6462 -1.0188
  111CHL1   C1614421   4.301   1.060   5.800 -0.0854  0.1377 -0.1565
  111CHL1  H16A14422   4.205   1.016   5.766 -0.2022 -1.3993  1.9508
  111CHL1  H16B14423   4.324   1.152   5.741  0.0578  0.4008  0.3020
  111CHL1   C1714424   4.417   0.953   5.787  0.0472  0.1810  0.3087
  111CHL1   H1714425   4.507   1.013   5.760 -0.0420  0.5263  0.7518
  111CHL1   C1314426   4.446   0.908   5.932  0.2054  0.5767  0.9731
  111CHL1   C1814427   4.351   0.784   5.961  0.3421 -0.2337 -0.1004
  111CHL1  H18A14428   4.386   0.692   5.910 -2.6541 -1.8565  0.5143
  111CHL1  H18B14429   4.358   0.765   6.070  2.0968  3.9327  0.7028
  111CHL1  H18C14430   4.248   0.809   5.929  0.2306 -1.3598 -0.6639
  111CHL1   C1214431   4.592   0.864   5.969  0.4048  0.2187  0.1204
  111CHL1  H12A14432   4.628   0.774   5.914  3.0976  1.9193 -1.1643
  111CHL1  H12B14433   4.657   0.947   5.933  0.9932 -0.4001 -0.2810
  111CHL1   C1114434   4.599   0.841   6.121 -0.1508  0.3346 -0.2942
  111CHL1  H11A14435   4.544   0.747   6.144 -0.1805  0.1967 -0.9297
  111CHL1  H11B14436   4.706   0.834   6.151 -0.2956  2.0952  0.8515
  111CHL1    C914437   4.539   0.961   6.211 -0.7538  0.6597  0.4649
  111CHL1    H914438   4.617   1.039   6.204 -0.8628  0.8107  0.8769
  111CHL1   C1014439   4.554   0.942   6.361 -0.5377 -0.2053  0.5726
  111CHL1   C1914440   4.456   0.833   6.411  0.8561  0.1601  0.5453
  111CHL1  H19A14441   4.463   0.743   6.347 -0.6554  1.6020 -1.7578
  111CHL1  H19B14442   4.461   0.807   6.519  0.3433 -0.1077  0.5065
  111CHL1  H19C14443   4.351   0.869   6.406  0.6894 -0.4907 -2.5459
  111CHL1    C114444   4.709   0.910   6.398  0.4602 -0.3149  0.1337
  111CHL1   H1A14445   4.725   0.803   6.372  1.2080 -0.6554  1.9108
  111CHL1   H1B14446   4.775   0.980   6.342  0.5132  0.7331  1.4651
  111CHL1    C214447   4.747   0.928   6.546  0.2304  0.1368  0.2041
  111CHL1   H2A14448   4.854   0.917   6.573 -0.0105 -2.8398  0.2020
  111CHL1   H2B14449   4.696   0.841   6.592 -1.8424 -0.7594 -3.4732
  111CHL1   C2014450   4.392   0.854   5.667 -0.6292 -0.1040  0.0218
  111CHL1   H2014451   4.317   0.776   5.694  0.0689 -0.3410  1.3369
  111CHL1   C2114452   4.515   0.766   5.633  0.0504 -0.6567 -0.2870
  111CHL1  H21A14453   4.490   0.707   5.542 -1.0856  0.9155 -1.0395
  111CHL1  H21B14454   4.538   0.681   5.701 -1.2586 -3.9202 -3.5776
  111CHL1  H21C14455   4.605   0.828   5.615 -0.0728 -0.1771  0.7013
  111CHL1   C2214456   4.348   0.920   5.536 -0.3137  0.1248 -0.5461
  111CHL1  H22A14457   4.337   0.846   5.454 -2.8448 -0.8784  0.5777
  111CHL1  H22B14458   4.246   0.957   5.558 -0.9588 -2.4047  1.2586
  111CHL1   C2314459   4.445   1.033   5.487 -0.3180  0.1997 -0.1239
  111CHL1  H23A14460   4.452   1.104   5.573  2.0151  0.1645 -0.2095
  111CHL1  H23B14461   4.539   0.978   5.464 -1.0092 -1.3323  0.6384
  111CHL1   C2414462   4.384   1.097   5.359  0.4580 -0.4990  0.1255
  111CHL1  H24A14463   4.357   1.015   5.288  1.7847 -0.8121 -0.0283
  111CHL1  H24B14464   4.285   1.143   5.381  0.4999 -0.4200  0.1447
  111CHL1   C2514465   4.477   1.200   5.290  0.3931 -0.2219 -0.6287
  111CHL1   H2514466   4.515   1.273   5.365 -1.3742  0.2327 -0.1305
  111CHL1   C2614467   4.596   1.114   5.237 -0.9174  0.1801  0.0880
  111CHL1  H26A14468   4.555   1.036   5.169  0.0970 -1.4160  1.2363
  111CHL1  H26B14469   4.669   1.173   5.178  1.9341 -0.8012  2.3737
  111CHL1  H26C14470   4.658   1.058   5.310  0.9547  0.7601 -1.0019
  111CHL1   C2714471   4.407   1.284   5.192 -0.2610 -1.2285 -0.3527
  111CHL1  H27A14472   4.477   1.355   5.143 -0.3463  0.7821  2.2179
  111CHL1  H27B14473   4.350   1.229   5.114 -3.9304  1.4946  0.1256
  111CHL1  H27C14474   4.324   1.351   5.222 -0.9173 -1.2431 -2.0106
  112CHL1    C314475   6.891   0.397   6.567 -0.0999 -0.2197 -0.4257
  112CHL1    H314476   6.786   0.383   6.534  0.6185 -0.9548 -2.5634
  112CHL1    O314477   6.880   0.378   6.705 -0.6110  1.0120  0.0016
  112CHL1   H3'14478   6.932   0.446   6.748  1.2483 -0.7937  0.7961
  112CHL1    C414479   6.982   0.299   6.503  0.4796  0.1310  0.7414
  112CHL1   H4A14480   7.082   0.315   6.549  0.2244  1.3482  0.9013
  112CHL1   H4B14481   6.947   0.196   6.527  0.0093  0.0998 -0.0325
  112CHL1    C514482   6.995   0.310   6.354 -0.0042  0.2641 -0.1796
  112CHL1    C614483   6.960   0.214   6.273  0.2119 -0.0684  0.3528
  112CHL1    H614484   6.924   0.122   6.322 -0.9447  0.8123  1.1995
  112CHL1    C714485   6.968   0.217   6.123 -0.7014 -0.0162 -0.7003
  112CHL1   H7A14486   7.024   0.128   6.086 -3.5041 -1.4261 -1.8366
  112CHL1   H7B14487   6.866   0.198   6.085 -0.7792 -1.6025  0.2085
  112CHL1    C814488   7.042   0.340   6.079 -0.7839  0.6470  0.3730
  112CHL1    H814489   7.147   0.312   6.103 -1.0229 -1.9877 -1.3301
  112CHL1   C1414490   7.019   0.357   5.931  0.3406 -0.3340  0.3501
  112CHL1   H1414491   6.913   0.387   5.918 -0.7437 -2.3032  3.4152
  112CHL1   C1514492   7.046   0.230   5.848  0.2214  0.7961 -0.3758
  112CHL1  H15A14493   7.138   0.174   5.874 -1.0114 -1.3960 -0.5103
  112CHL1  H15B14494   6.959   0.162   5.856  0.1048  0.8467 -1.1073
  112CHL1   C1614495   7.063   0.287   5.707  0.1497  0.3909  0.6768
  112CHL1  H16A14496   7.156   0.250   5.658  0.2819 -0.5629  1.6094
  112CHL1  H16B14497   6.978   0.253   5.643 -1.5084 -0.3980  3.1397
  112CHL1   C1714498   7.070   0.445   5.714 -0.2702  0.2589  0.0691
  112CHL1   H1714499   6.976   0.502   5.703 -1.1362 -0.8160  1.5082
  112CHL1   C1314500   7.101   0.473   5.862  0.3204  0.1516  0.1513
  112CHL1   C1814501   7.250   0.459   5.893  0.5142 -0.6219 -0.8777
  112CHL1  H18A14502   7.298   0.367   5.852  2.4810 -0.6798  1.3505
  112CHL1  H18B14503   7.318   0.542   5.865  1.5829 -0.7992  0.9881
  112CHL1  H18C14504   7.265   0.446   6.003  0.7201  0.7022 -0.7319
  112CHL1   C1214505   7.039   0.600   5.923 -0.0414 -0.5524 -0.6949
  112CHL1  H12A14506   7.091   0.688   5.880 -0.9151 -0.3296 -1.3216
  112CHL1  H12B14507   6.930   0.599   5.905 -0.1710 -0.9480  0.0889
  112CHL1   C1114508   7.059   0.594   6.081  0.5244 -0.1626 -0.6744
  112CHL1  H11A14509   7.165   0.623   6.098  0.6202 -1.6917  1.9271
  112CHL1  H11B14510   6.998   0.677   6.123  3.3400  1.0475  1.3873
  112CHL1    C914511   7.010   0.463   6.153  0.7112 -0.2866  0.6889
  112CHL1    H914512   6.900   0.467   6.139  0.7026 -0.2555  0.7603
  112CHL1   C1014513   7.039   0.448   6.305  0.6273  0.4314 -0.3195
  112CHL1   C1914514   7.191   0.466   6.338 -0.0507 -0.8341 -0.3293
  112CHL1  H19A14515   7.222   0.568   6.305  0.6104 -1.2043 -0.8910
  112CHL1  H19B14516   7.222   0.470   6.445  0.7495  0.3704 -0.5767
  112CHL1  H19C14517   7.254   0.391   6.285 -1.4679 -0.6161 -2.4240
  112CHL1    C114518   6.959   0.561   6.385  0.0735 -0.2578  0.7008
  112CHL1   H1A14519   7.011   0.657   6.367 -2.0087  0.4705 -2.4636
  112CHL1   H1B14520   6.864   0.577   6.330 -0.2617 -0.5297  1.1894
  112CHL1    C214521   6.932   0.537   6.532 -0.6675  0.3237 -0.4232
  112CHL1   H2A14522   6.854   0.607   6.568  0.3378 -0.7134  4.4875
  112CHL1   H2B14523   7.024   0.548   6.594 -0.0291  0.7139 -1.4037
  112CHL1   C2014524   7.156   0.504   5.603  0.3810  0.0517  0.5718
  112CHL1   H2014525   7.253   0.453   5.620 -0.0887 -0.6191  1.2911
  112CHL1   C2114526   7.178   0.655   5.626  0.1007  0.0780 -0.3812
  112CHL1  H21A14527   7.086   0.717   5.635  0.5875  0.8058 -0.3580
  112CHL1  H21B14528   7.240   0.702   5.547  2.9643 -0.9454  1.1043
  112CHL1  H21C14529   7.224   0.659   5.727  2.5871 -1.4058 -1.3718
  112CHL1   C2214530   7.114   0.479   5.458  0.0437  1.0206 -0.1895
  112CHL1  H22A14531   7.201   0.493   5.389  0.3141  1.8933  0.3139
  112CHL1  H22B14532   7.080   0.374   5.453  0.1695  1.0192 -1.3735
  112CHL1   C2314533   6.989   0.560   5.417  0.0994 -0.3988 -0.7447
  112CHL1  H23A14534   6.897   0.542   5.477 -0.5749  1.5828 -1.1324
  112CHL1  H23B14535   7.017   0.667   5.416 -0.6316 -0.1765  0.5851
  112CHL1   C2414536   6.959   0.528   5.267 -0.1748 -0.4360  0.3804
  112CHL1  H24A14537   7.038   0.559   5.195 -1.6599 -0.6917 -1.4544
  112CHL1  H24B14538   6.942   0.421   5.246 -1.2176  0.2897 -3.1723
  112CHL1   C2514539   6.824   0.591   5.220 -0.1149 -0.1624  0.0841
  112CHL1   H2514540   6.748   0.555   5.292 -0.9643  2.2802  0.4855
  112CHL1   C2614541   6.809   0.745   5.222 -0.5369  0.6149  1.1240
  112CHL1  H26A14542   6.710   0.776   5.182  0.3464  0.0163 -1.7543
  112CHL1  H26B14543   6.816   0.765   5.331  0.3482  0.8499  1.0333
  112CHL1  H26C14544   6.872   0.805   5.153 -1.8619 -0.5065 -1.1709
  112CHL1   C2714545   6.785   0.533   5.090 -1.1956  0.2834  0.0739
  112CHL1  H27A14546   6.829   0.596   5.010 -1.1067 -1.8278 -1.6220
  112CHL1  H27B14547   6.818   0.432   5.058 -1.5788  0.7540 -1.9059
  112CHL1  H27C14548   6.675   0.544   5.078 -1.1288 -0.4301 -1.3761
  113CHL1    C314549   1.647   5.791   6.689  0.1555 -0.3062 -0.5726
  113CHL1    H314550   1.634   5.898   6.665 -1.4985 -0.2302  0.5223
  113CHL1    O314551   1.623   5.781   6.829  0.2427  0.1571  0.3401
  113CHL1   H3'14552   1.666   5.704   6.867 -1.4580 -0.7632  0.5001
  113CHL1    C414553   1.540   5.721   6.599 -0.3238 -0.6705  0.1401
  113CHL1   H4A14554   1.529   5.615   6.631  0.3111 -0.4485  1.1333
  113CHL1   H4B14555   1.445   5.774   6.625 -0.1329 -0.5467  0.5895
  113CHL1    C514556   1.566   5.743   6.451  0.4225 -0.4852 -0.6797
  113CHL1    C614557   1.476   5.793   6.371  0.1996 -0.2211  0.4054
  113CHL1    H614558   1.376   5.816   6.409  0.4010  2.0421 -0.3052
  113CHL1    C714559   1.497   5.813   6.221 -0.3724 -0.4580  0.0495
  113CHL1   H7A14560   1.420   5.768   6.155 -0.0193  0.8081 -1.2661
  113CHL1   H7B14561   1.491   5.923   6.203  0.8057 -0.3595  0.1615
  113CHL1    C814562   1.622   5.754   6.162 -0.4010  0.1301 -1.1386
  113CHL1    H814563   1.604   5.645   6.149  1.4235 -0.2736 -0.5780
  113CHL1   C1414564   1.651   5.816   6.031  0.0051 -0.0100 -0.0102
  113CHL1   H1414565   1.668   5.924   6.050  1.7340 -0.1936 -0.3784
  113CHL1   C1514566   1.546   5.824   5.923 -0.0313  0.7437  1.0006
  113CHL1  H15A14567   1.506   5.723   5.901  1.8137 -0.3102  2.1292
  113CHL1  H15B14568   1.471   5.901   5.950  0.8309  2.0825 -0.3003
  113CHL1   C1614569   1.629   5.854   5.800 -0.5960 -0.3377  1.1079
  113CHL1  H16A14570   1.619   5.791   5.709  0.3508  0.7984  0.1894
  113CHL1  H16B14571   1.605   5.957   5.766  1.1854 -0.1688  0.2405
  113CHL1   C1714572   1.782   5.854   5.835  0.2135  0.4635  0.5417
  113CHL1   H1714573   1.807   5.959   5.861 -3.0599  1.3701  0.4361
  113CHL1   C1314574   1.778   5.766   5.962 -0.5867 -0.4159 -0.4388
  113CHL1   C1814575   1.760   5.617   5.917 -0.1958 -0.4348  0.5976
  113CHL1  H18A14576   1.765   5.541   5.998 -0.0689 -0.3936  0.6277
  113CHL1  H18B14577   1.668   5.605   5.856 -0.7638  1.5466  0.9790
  113CHL1  H18C14578   1.846   5.584   5.856 -1.4689 -1.3163 -0.7638
  113CHL1   C1214579   1.905   5.777   6.061  0.1742 -0.5990  0.1064
  113CHL1  H12A14580   1.996   5.723   6.027 -0.0371 -0.7681 -0.1892
  113CHL1  H12B14581   1.930   5.884   6.081 -0.6563 -0.2953 -0.4126
  113CHL1   C1114582   1.875   5.710   6.199 -0.1113 -0.7404  0.4879
  113CHL1  H11A14583   1.886   5.600   6.185  0.5770 -1.0679  3.1743
  113CHL1  H11B14584   1.960   5.722   6.270  0.2138 -4.3615  0.9514
  113CHL1    C914585   1.743   5.766   6.264  0.0019  0.0133 -0.0091
  113CHL1    H914586   1.753   5.877   6.271  0.1856  0.1087 -1.5616
  113CHL1   C1014587   1.710   5.714   6.404 -0.9019 -0.4733 -0.1488
  113CHL1   C1914588   1.738   5.558   6.403 -0.0684 -0.6591 -0.1885
  113CHL1  H19A14589   1.698   5.517   6.499  0.5428  1.0942  0.8595
  113CHL1  H19B14590   1.702   5.524   6.304 -0.1602  0.4658 -0.5537
  113CHL1  H19C14591   1.848   5.547   6.411  0.0632  1.1752  1.3529
  113CHL1    C114592   1.811   5.788   6.499 -0.0492  0.1453 -0.8614
  113CHL1   H1A14593   1.913   5.752   6.473  0.4207  0.8779 -0.0730
  113CHL1   H1B14594   1.816   5.899   6.487 -1.0563  0.1568 -1.2981
  113CHL1    C214595   1.788   5.749   6.648  0.1708 -0.0804 -0.1247
  113CHL1   H2A14596   1.861   5.805   6.710  0.4754  0.7067 -1.1526
  113CHL1   H2B14597   1.806   5.641   6.662 -1.0641 -0.4096 -0.9352
  113CHL1   C2014598   1.866   5.807   5.716  0.3438  0.2354 -0.4080
  113CHL1   H2014599   1.820   5.710   5.689  0.1531 -0.4630  2.1265
  113CHL1   C2114600   2.016   5.794   5.748  0.1840 -0.0907  0.5416
  113CHL1  H21A14601   2.052   5.746   5.841 -0.3483  2.3049  2.0570
  113CHL1  H21B14602   2.066   5.893   5.743 -1.0793  0.5328 -0.5247
  113CHL1  H21C14603   2.066   5.742   5.663  0.1742  0.8840 -0.0744
  113CHL1   C2214604   1.854   5.888   5.590 -0.6062 -1.2951  0.6440
  113CHL1  H22A14605   1.748   5.917   5.574  0.0350  0.3153 -1.0622
  113CHL1  H22B14606   1.908   5.985   5.600  0.0193 -1.5759  0.0690
  113CHL1   C2314607   1.894   5.823   5.458  0.0440 -0.2193  0.3701
  113CHL1  H23A14608   2.004   5.810   5.446  0.1924  2.2786 -1.8391
  113CHL1  H23B14609   1.847   5.723   5.449  0.8648 -0.6847  1.1214
  113CHL1   C2414610   1.851   5.900   5.328  0.5574  0.2389 -0.1012
  113CHL1  H24A14611   1.746   5.934   5.320  1.1076  2.2692  0.6939
  113CHL1  H24B14612   1.906   5.995   5.313  1.3490  0.1329  1.7473
  113CHL1   C2514613   1.864   5.814   5.198  0.8344  0.4250  0.0993
  113CHL1   H2514614   1.800   5.724   5.204  2.4869 -0.8782 -0.9060
  113CHL1   C2614615   1.822   5.899   5.077  0.2924 -0.0452  0.1089
  113CHL1  H26A14616   1.728   5.954   5.098  0.5532 -0.4668  2.7803
  113CHL1  H26B14617   1.899   5.976   5.056 -0.3499  0.5008 -0.2741
  113CHL1  H26C14618   1.824   5.838   4.984  2.3071  1.4710 -0.9072
  113CHL1   C2714619   2.006   5.769   5.180 -0.8706 -0.1135 -0.0401
  113CHL1  H27A14620   2.046   5.703   5.260 -1.6942  1.0695  1.4072
  113CHL1  H27B14621   2.011   5.721   5.080 -2.2873 -0.4305  0.0153
  113CHL1  H27C14622   2.068   5.861   5.179  0.7152 -1.0799 -2.8114
  114CHL1    C314623   7.148   6.875   6.408 -0.0177 -0.8355 -0.3867
  114CHL1    H314624   7.241   6.926   6.441 -0.1971 -1.3779  1.0425
  114CHL1    O314625   7.113   6.773   6.498  0.8700  0.4650  0.1322
  114CHL1   H3'14626   7.155   6.693   6.465  0.8121  0.6828 -0.4889
  114CHL1    C414627   7.038   6.985   6.412 -0.5421 -0.3828 -0.3577
  114CHL1   H4A14628   6.936   6.944   6.425 -0.7885  0.7374  1.6467
  114CHL1   H4B14629   7.065   7.041   6.504  1.9264 -1.0488 -0.6008
  114CHL1    C514630   7.044   7.086   6.294 -0.9216 -0.1780  0.2841
  114CHL1    C614631   7.036   7.210   6.316 -0.3080  0.0062 -0.4976
  114CHL1    H614632   7.044   7.250   6.418 -1.0251  2.7994 -1.4400
  114CHL1    C714633   7.032   7.310   6.208 -0.0157 -0.2403 -0.2452
  114CHL1   H7A14634   6.961   7.394   6.222  0.9198  0.2267  2.0559
  114CHL1   H7B14635   7.131   7.361   6.203  0.2277 -0.7671 -1.0490
  114CHL1    C814636   7.005   7.247   6.057 -0.1363 -0.3888  0.0962
  114CHL1    H814637   6.896   7.224   6.063 -0.0984 -0.5142  0.3235
  114CHL1   C1414638   7.033   7.349   5.950  0.7094 -0.0870 -0.4513
  114CHL1   H1414639   7.144   7.353   5.954  0.6379  1.2791  2.2197
  114CHL1   C1514640   6.976   7.492   5.967  0.0170 -0.5165  0.0262
  114CHL1  H15A14641   6.883   7.481   6.026 -0.4152  0.3433 -0.4840
  114CHL1  H15B14642   7.049   7.560   6.015  0.1742  0.0879 -1.0469
  114CHL1   C1614643   6.962   7.536   5.819 -0.3397 -0.4694 -0.2971
  114CHL1  H16A14644   6.859   7.567   5.791 -0.4215  0.2377  0.7526
  114CHL1  H16B14645   7.024   7.627   5.802  0.4414 -0.3303  2.7739
  114CHL1   C1714646   7.013   7.426   5.723  0.4908  0.6837 -0.0831
  114CHL1   H1714647   7.124   7.435   5.719  0.5104  1.9669  1.9095
  114CHL1   C1314648   6.998   7.296   5.809  0.2023 -0.3177  0.2719
  114CHL1   C1814649   6.843   7.257   5.801  0.5299 -0.5796  0.2388
  114CHL1  H18A14650   6.786   7.347   5.834 -0.9754 -0.6354 -1.9673
  114CHL1  H18B14651   6.811   7.237   5.697  2.4714  2.5067 -1.0652
  114CHL1  H18C14652   6.828   7.167   5.865  1.3775 -1.2463 -0.4723
  114CHL1   C1214653   7.076   7.167   5.777 -0.1505 -0.0715 -0.3556
  114CHL1  H12A14654   7.039   7.126   5.681  0.2998  0.1224 -0.6195
  114CHL1  H12B14655   7.183   7.196   5.762 -0.4502  0.3294 -1.9569
  114CHL1   C1114656   7.067   7.063   5.889  0.1562 -0.0819 -0.3571
  114CHL1  H11A14657   6.968   7.013   5.888 -0.2872  0.6571  1.6194
  114CHL1  H11B14658   7.139   6.979   5.876 -2.5199 -2.2193 -2.4843
  114CHL1    C914659   7.084   7.121   6.033 -0.0158 -0.2378 -0.2308
  114CHL1    H914660   7.188   7.160   6.033 -0.6672  1.5863 -1.1199
  114CHL1   C1014661   7.058   7.024   6.149  0.2270  0.4341 -0.2426
  114CHL1   C1914662   6.920   6.953   6.123  0.4652  0.3632 -0.0894
  114CHL1  H19A14663   6.843   7.031   6.108 -0.1222 -0.1689  0.1452
  114CHL1  H19B14664   6.926   6.888   6.033 -1.6460  0.0058 -0.0069
  114CHL1  H19C14665   6.881   6.888   6.204  0.1401  0.7421  0.0614
  114CHL1    C114666   7.173   6.922   6.155  0.4940  0.0767  0.1422
  114CHL1   H1A14667   7.172   6.871   6.056  0.7911  0.6541 -0.1622
  114CHL1   H1B14668   7.267   6.981   6.168 -0.7717  2.5257 -1.1207
  114CHL1    C214669   7.165   6.814   6.267  0.6727 -0.1944 -0.2617
  114CHL1   H2A14670   7.255   6.750   6.269  1.5761  1.0435 -0.2468
  114CHL1   H2B14671   7.077   6.750   6.243 -0.9274  1.6853  0.2998
  114CHL1   C2014672   6.959   7.439   5.578 -0.4572 -0.4204  0.2192
  114CHL1   H2014673   6.850   7.429   5.594 -0.7861 -0.4498 -1.8430
  114CHL1   C2114674   7.006   7.324   5.491 -0.2029 -0.2715 -0.3652
  114CHL1  H21A14675   6.959   7.233   5.533  0.9349  0.9743  4.2062
  114CHL1  H21B14676   7.116   7.312   5.501 -0.5523 -2.1565  2.1252
  114CHL1  H21C14677   6.967   7.341   5.388 -0.2092  0.1772 -0.2929
  114CHL1   C2214678   6.997   7.569   5.502  0.3950 -0.0593 -0.2982
  114CHL1  H22A14679   6.946   7.575   5.404 -0.0492  2.1210  0.0216
  114CHL1  H22B14680   6.956   7.654   5.560 -1.5451 -1.8710  1.1898
  114CHL1   C2314681   7.152   7.593   5.486  0.7847 -0.8389 -0.0619
  114CHL1  H23A14682   7.199   7.607   5.586 -1.9098 -1.3585  1.3805
  114CHL1  H23B14683   7.192   7.501   5.439  2.8068  0.6637 -1.5092
  114CHL1   C2414684   7.189   7.708   5.398  0.1569 -0.2119 -0.1469
  114CHL1  H24A14685   7.135   7.694   5.302  0.0236 -1.7344  0.1276
  114CHL1  H24B14686   7.153   7.800   5.450 -0.4233 -0.3018 -0.3840
  114CHL1   C2514687   7.339   7.715   5.377 -0.5872  0.9315  0.3603
  114CHL1   H2514688   7.378   7.611   5.375 -0.8437  0.8388  0.1584
  114CHL1   C2614689   7.386   7.777   5.240  0.2911  0.0602 -0.0264
  114CHL1  H26A14690   7.338   7.873   5.209 -0.6326 -0.0532  1.0129
  114CHL1  H26B14691   7.496   7.795   5.238  0.0285  1.7651 -0.5820
  114CHL1  H26C14692   7.369   7.709   5.154 -0.4926  0.0031  0.1617
  114CHL1   C2714693   7.420   7.781   5.492 -0.4923  0.5962  0.3465
  114CHL1  H27A14694   7.530   7.768   5.481 -0.3602  1.0201  1.0877
  114CHL1  H27B14695   7.399   7.890   5.500 -0.2847  0.7787 -1.1444
  114CHL1  H27C14696   7.391   7.731   5.586 -2.9659  0.6005 -0.3535
  115CHL1    C314697   3.432   1.408   6.483 -0.0129 -0.1068  0.2421
  115CHL1    H314698   3.341   1.449   6.435  1.2799  1.5705 -0.8912
  115CHL1    O314699   3.470   1.501   6.582 -0.2732  0.3864 -0.1194
  115CHL1   H3'14700   3.534   1.450   6.633 -0.0271  0.6942 -0.1130
  115CHL1    C414701   3.396   1.267   6.539 -0.4231 -0.4113 -0.0298
  115CHL1   H4A14702   3.478   1.241   6.610 -0.3996  1.7311  0.8160
  115CHL1   H4B14703   3.304   1.281   6.601 -0.8923 -0.2938 -0.7448
  115CHL1    C514704   3.369   1.168   6.431  0.7171 -0.1629  0.0744
  115CHL1    C614705   3.256   1.096   6.420 -0.3063  0.2030  0.2611
  115CHL1    H614706   3.180   1.118   6.498  0.6517 -1.8794  1.8812
  115CHL1    C714707   3.226   1.003   6.312 -0.5595  0.0458  0.0418
  115CHL1   H7A14708   3.163   0.915   6.338 -0.1654 -1.0639 -2.4693
  115CHL1   H7B14709   3.171   1.049   6.227 -0.2375  0.1713 -0.0964
  115CHL1    C814710   3.352   0.940   6.250 -0.3044  0.0560 -0.0362
  115CHL1    H814711   3.398   0.865   6.319  0.9311  0.8255  0.0082
  115CHL1   C1414712   3.322   0.883   6.111  1.0664  0.3583 -0.2957
  115CHL1   H1414713   3.301   0.970   6.045  2.1808 -0.8892 -2.4146
  115CHL1   C1514714   3.196   0.790   6.094  0.0432 -0.0658 -0.1877
  115CHL1  H15A14715   3.200   0.708   6.169 -1.1296 -0.9748 -1.0945
  115CHL1  H15B14716   3.098   0.841   6.103 -0.2485 -0.5331 -0.6805
  115CHL1   C1614717   3.224   0.716   5.964 -0.5166 -0.9899  0.2242
  115CHL1  H16A14718   3.218   0.606   5.981  0.0459 -0.8914  1.1878
  115CHL1  H16B14719   3.154   0.755   5.888  0.2123  1.4477  0.7135
  115CHL1   C1714720   3.368   0.766   5.911  0.7788 -0.9991 -0.0775
  115CHL1   H1714721   3.351   0.852   5.843 -0.5175 -1.2399 -0.0916
  115CHL1   C1314722   3.439   0.809   6.042 -0.1126 -0.6090 -0.5556
  115CHL1   C1814723   3.493   0.684   6.120  0.1683  0.6384 -0.2624
  115CHL1  H18A14724   3.408   0.612   6.129  0.6215 -0.0843 -1.5112
  115CHL1  H18B14725   3.578   0.639   6.066  0.3226  0.5395  0.0584
  115CHL1  H18C14726   3.516   0.711   6.226 -1.3271  2.7662 -0.4347
  115CHL1   C1214727   3.553   0.917   6.024  0.4956  0.2149 -0.0940
  115CHL1  H12A14728   3.643   0.859   5.995  2.1740  0.8851  3.3019
  115CHL1  H12B14729   3.515   0.985   5.945 -0.9044  0.6852  0.9406
  115CHL1   C1114730   3.583   0.994   6.154  0.3415 -0.4318  0.5789
  115CHL1  H11A14731   3.645   0.933   6.223 -0.3439 -1.5074  0.2658
  115CHL1  H11B14732   3.634   1.087   6.118 -0.4387  0.4084  1.5747
  115CHL1    C914733   3.459   1.059   6.222 -0.0437  1.0121  0.3608
  115CHL1    H914734   3.416   1.126   6.144  0.3369  1.4304  0.5103
  115CHL1   C1014735   3.490   1.147   6.343  0.0462 -0.0153  0.0038
  115CHL1   C1914736   3.599   1.080   6.420  0.0289 -0.1443 -0.2111
  115CHL1  H19A14737   3.693   1.056   6.366 -1.3520 -2.4108 -1.7893
  115CHL1  H19B14738   3.626   1.138   6.511 -0.7028  0.8987 -0.6409
  115CHL1  H19C14739   3.569   0.975   6.442 -3.3410  0.4690 -1.3740
  115CHL1    C114740   3.526   1.285   6.284  0.2656 -1.3984 -0.2952
  115CHL1   H1A14741   3.619   1.285   6.224  0.0770  1.9548 -0.7580
  115CHL1   H1B14742   3.447   1.333   6.222 -1.2674 -0.6895  2.0658
  115CHL1    C214743   3.554   1.384   6.395 -0.0322 -0.3343 -0.4961
  115CHL1   H2A14744   3.588   1.480   6.349  2.1245 -0.6578  0.2943
  115CHL1   H2B14745   3.639   1.350   6.458 -0.9710  1.6062  1.9942
  115CHL1   C2014746   3.434   0.646   5.824 -0.3624 -0.1132 -0.0218
  115CHL1   H2014747   3.444   0.561   5.895 -0.5302  1.0216  1.4074
  115CHL1   C2114748   3.570   0.693   5.770  0.1897  0.2681  0.6466
  115CHL1  H21A14749   3.647   0.701   5.850 -1.1779  0.3923  1.9856
  115CHL1  H21B14750   3.549   0.790   5.719 -0.3992 -0.2591 -0.1304
  115CHL1  H21C14751   3.611   0.622   5.695  0.4170 -0.9205  1.8598
  115CHL1   C2214752   3.340   0.608   5.710 -0.6022  0.2905 -0.9593
  115CHL1  H22A14753   3.381   0.523   5.652  0.1033  0.8033 -1.2264
  115CHL1  H22B14754   3.247   0.572   5.760 -0.7432  0.7415 -0.8907
  115CHL1   C2314755   3.299   0.722   5.605 -0.6355 -0.1120  0.4342
  115CHL1  H23A14756   3.239   0.791   5.667  2.2403  0.9658  2.2478
  115CHL1  H23B14757   3.394   0.772   5.575  0.8322 -3.2211 -0.5794
  115CHL1   C2414758   3.230   0.663   5.483 -0.1536 -0.6816 -0.5480
  115CHL1  H24A14759   3.297   0.585   5.441  1.1538  0.8504 -1.4191
  115CHL1  H24B14760   3.139   0.608   5.516 -1.4593  0.9987 -1.1903
  115CHL1   C2514761   3.192   0.764   5.380 -0.2615  0.1834  0.2945
  115CHL1   H2514762   3.289   0.814   5.361 -0.4632 -0.3292 -2.6053
  115CHL1   C2614763   3.145   0.700   5.249 -0.0722  0.1759  0.8605
  115CHL1  H26A14764   3.050   0.654   5.286  0.5510  0.0538  2.3824
  115CHL1  H26B14765   3.126   0.771   5.166 -0.2376 -0.8775 -0.0119
  115CHL1  H26C14766   3.216   0.622   5.216  0.0624  1.4754 -2.2263
  115CHL1   C2714767   3.091   0.862   5.425  0.2039 -0.2712  0.3704
  115CHL1  H27A14768   3.005   0.806   5.466 -1.5118  0.7838 -1.5959
  115CHL1  H27B14769   3.135   0.929   5.503 -0.6234  0.4513  0.2345
  115CHL1  H27C14770   3.048   0.921   5.341 -0.9092 -2.8882 -1.0239
  116CHL1    C314771   4.066   1.590   6.301  0.2493 -0.2854 -0.0289
  116CHL1    H314772   4.045   1.687   6.250  0.6162 -0.0919  0.1863
  116CHL1    O314773   4.117   1.613   6.427 -0.0692 -0.6231 -0.3714
  116CHL1   H3'14774   4.123   1.529   6.473  1.2090 -1.3587 -1.7958
  116CHL1    C414775   3.935   1.519   6.326  0.4801  0.3372 -0.3399
  116CHL1   H4A14776   3.973   1.437   6.391 -0.1766  0.8547  0.7157
  116CHL1   H4B14777   3.861   1.565   6.395  0.7411  0.4609 -0.1425
  116CHL1    C514778   3.875   1.484   6.188  0.2799  0.2871 -0.4245
  116CHL1    C614779   3.755   1.537   6.160  0.3566  0.3404  0.2630
  116CHL1    H614780   3.706   1.598   6.237  0.7335 -0.6311  1.2930
  116CHL1    C714781   3.687   1.513   6.026 -0.1505  0.3367 -0.3002
  116CHL1   H7A14782   3.580   1.493   6.045  0.4362 -1.4810  1.4196
  116CHL1   H7B14783   3.691   1.599   5.955 -2.1962  1.7758  1.2256
  116CHL1    C814784   3.756   1.396   5.944 -0.0128  0.0149 -0.2195
  116CHL1    H814785   3.732   1.302   5.997 -1.7487  0.5574  0.0218
  116CHL1   C1414786   3.709   1.386   5.801  0.8652 -1.2935 -0.1791
  116CHL1   H1414787   3.728   1.485   5.754  0.3876 -1.3299 -0.4501
  116CHL1   C1514788   3.562   1.363   5.784 -0.2181 -0.6071  0.4266
  116CHL1  H15A14789   3.518   1.280   5.843 -1.3448  0.3390  0.9610
  116CHL1  H15B14790   3.504   1.454   5.813 -0.5557 -0.5168 -0.4942
  116CHL1   C1614791   3.552   1.319   5.636  0.7180 -0.0465  0.5020
  116CHL1  H16A14792   3.483   1.233   5.646  1.2731 -0.5130  0.3704
  116CHL1  H16B14793   3.506   1.401   5.575  1.6515  1.7408  2.0878
  116CHL1   C1714794   3.699   1.289   5.590  0.2740  0.9465  0.5914
  116CHL1   H1714795   3.725   1.391   5.556 -0.4500  1.5692  1.8641
  116CHL1   C1314796   3.780   1.279   5.722  0.0618  0.5815  0.2181
  116CHL1   C1814797   3.757   1.130   5.783 -0.2660 -0.6489 -0.2191
  116CHL1  H18A14798   3.827   1.067   5.724  0.7345 -0.1781  0.4254
  116CHL1  H18B14799   3.788   1.119   5.889 -0.7261 -2.3517 -0.2292
  116CHL1  H18C14800   3.650   1.100   5.777  0.1730 -2.1513 -1.1206
  116CHL1   C1214801   3.926   1.321   5.703  0.3937  0.4326  0.3193
  116CHL1  H12A14802   3.978   1.251   5.635 -0.0826  0.5773 -0.2006
  116CHL1  H12B14803   3.943   1.411   5.640 -3.5951 -1.0759 -3.4533
  116CHL1   C1114804   3.992   1.330   5.844 -0.2858  0.0730  0.3878
  116CHL1  H11A14805   4.001   1.225   5.879  1.6495  0.0963  0.0580
  116CHL1  H11B14806   4.096   1.368   5.838 -0.6840  1.0285 -1.1312
  116CHL1    C914807   3.909   1.405   5.951  0.2101 -0.2006  0.1836
  116CHL1    H914808   3.926   1.510   5.919 -0.6145 -0.0690  0.1316
  116CHL1   C1014809   3.966   1.404   6.089  0.2072 -0.3472 -0.0302
  116CHL1   C1914810   3.968   1.259   6.147 -0.0584 -0.3929  0.1976
  116CHL1  H19A14811   4.005   1.180   6.078  0.0414 -1.1669  1.1296
  116CHL1  H19B14812   4.030   1.249   6.238 -0.9134 -0.6301  0.7632
  116CHL1  H19C14813   3.866   1.229   6.178  0.3478 -1.7919  0.2541
  116CHL1    C114814   4.114   1.459   6.092  0.0193  0.4572  0.0300
  116CHL1   H1A14815   4.186   1.383   6.053  1.3056  1.1008  1.0417
  116CHL1   H1B14816   4.123   1.549   6.027 -0.9449  0.4944 -0.0604
  116CHL1    C214817   4.170   1.511   6.226  0.3523  0.1783  0.3234
  116CHL1   H2A14818   4.261   1.573   6.209 -0.0238  0.7750  0.4778
  116CHL1   H2B14819   4.198   1.418   6.279  0.9769  0.3861  0.3683
  116CHL1   C2014820   3.722   1.192   5.474  0.4872  0.3389  0.0958
  116CHL1   H2014821   3.826   1.156   5.486  0.1983 -0.6181 -0.1987
  116CHL1   C2114822   3.704   1.271   5.348 -0.2316  0.2209  0.9062
  116CHL1  H21A14823   3.601   1.311   5.338  0.6517  2.3702 -0.2049
  116CHL1  H21B14824   3.727   1.217   5.253 -0.3301  1.1315  0.3555
  116CHL1  H21C14825   3.783   1.349   5.352  0.4103 -0.4183  0.8589
  116CHL1   C2214826   3.633   1.065   5.471 -0.0919 -0.0753  0.1097
  116CHL1  H22A14827   3.606   1.026   5.572  0.8241 -2.6598 -0.5422
  116CHL1  H22B14828   3.532   1.097   5.440 -1.3017 -2.2289  1.5377
  116CHL1   C2314829   3.690   0.953   5.383 -0.3633 -1.1596  0.7953
  116CHL1  H23A14830   3.688   0.981   5.276 -1.8535 -1.9070  0.5914
  116CHL1  H23B14831   3.798   0.945   5.405 -0.0355  2.5601  1.2340
  116CHL1   C2414832   3.608   0.827   5.396  0.2547  0.0280  0.2676
  116CHL1  H24A14833   3.614   0.806   5.505  1.0834 -1.8978 -0.1034
  116CHL1  H24B14834   3.503   0.841   5.364  0.8115 -1.2483 -2.3204
  116CHL1   C2514835   3.669   0.706   5.325  1.0178 -0.2410 -0.1146
  116CHL1   H2514836   3.779   0.703   5.341  1.1646 -2.5365 -1.1012
  116CHL1   C2614837   3.603   0.575   5.373 -0.0291 -1.0334  0.7477
  116CHL1  H26A14838   3.494   0.589   5.358  0.0324 -0.1810  1.0804
  116CHL1  H26B14839   3.619   0.490   5.303  1.9014 -0.3546  0.2875
  116CHL1  H26C14840   3.631   0.536   5.474  2.8826 -1.5034 -0.1254
  116CHL1   C2714841   3.650   0.716   5.168 -0.0376  0.4918 -0.3422
  116CHL1  H27A14842   3.688   0.808   5.118  1.7985 -0.1145 -0.1559
  116CHL1  H27B14843   3.700   0.628   5.121  0.4319  0.5707 -0.0004
  116CHL1  H27C14844   3.543   0.718   5.139 -0.1854  1.7252  0.2454
  117CHL1    C314845   6.633   0.981   6.629  0.5081 -0.4912  0.2748
  117CHL1    H314846   6.669   1.083   6.605 -1.6637  0.1850 -0.3793
  117CHL1    O314847   6.618   0.964   6.772  0.1705  0.4982  0.1188
  117CHL1   H3'14848   6.620   1.053   6.807  0.6600  1.2545 -1.7356
  117CHL1    C414849   6.488   0.957   6.564  0.2075  0.2375 -0.0585
  117CHL1   H4A14850   6.443   0.867   6.609 -0.7666  1.5847  1.7872
  117CHL1   H4B14851   6.427   1.040   6.606  0.8404  0.3936  0.5694
  117CHL1    C514852   6.489   0.957   6.408 -0.2328  0.3966 -0.6776
  117CHL1    C614853   6.415   1.047   6.344  0.1042 -0.2191 -0.1779
  117CHL1    H614854   6.342   1.101   6.405  1.4293  0.3493  0.9554
  117CHL1    C714855   6.415   1.050   6.192 -0.0645  0.5225 -0.2942
  117CHL1   H7A14856   6.315   1.071   6.147 -1.0700 -2.7795  0.1178
  117CHL1   H7B14857   6.479   1.138   6.169 -2.8444  2.9211  0.4984
  117CHL1    C814858   6.463   0.917   6.133 -0.1396  0.0938 -1.0312
  117CHL1    H814859   6.393   0.835   6.160  1.4544 -1.6344 -1.9617
  117CHL1   C1414860   6.481   0.917   5.985  0.5350 -0.3935 -0.4714
  117CHL1   H1414861   6.545   1.005   5.963 -0.5439  0.6361  0.3775
  117CHL1   C1514862   6.353   0.942   5.902  0.6718 -0.6876 -0.4061
  117CHL1  H15A14863   6.284   0.857   5.923  1.1448 -1.3872 -1.5856
  117CHL1  H15B14864   6.288   1.033   5.909  0.1183 -1.0036 -1.2383
  117CHL1   C1614865   6.398   0.922   5.760 -0.6831  0.6653 -0.1331
  117CHL1  H16A14866   6.323   0.852   5.719 -0.7811  1.1223 -0.7614
  117CHL1  H16B14867   6.407   1.016   5.701 -0.8187  2.2364  2.2240
  117CHL1   C1714868   6.541   0.852   5.764  0.5538  0.2602  0.0031
  117CHL1   H1714869   6.605   0.942   5.756 -0.8423  1.4784  1.7456
  117CHL1   C1314870   6.545   0.800   5.915 -0.1875  0.4963  0.9296
  117CHL1   C1814871   6.463   0.672   5.934 -0.2464  0.0831 -0.6161
  117CHL1  H18A14872   6.365   0.675   5.882 -0.6262 -0.5358  0.0398
  117CHL1  H18B14873   6.519   0.582   5.900  0.5397  1.0311 -1.9027
  117CHL1  H18C14874   6.433   0.660   6.041  3.7851  0.0503  0.6781
  117CHL1   C1214875   6.682   0.775   5.973 -0.3995  0.5021  0.5632
  117CHL1  H12A14876   6.725   0.688   5.920 -1.4566  1.5062 -2.1219
  117CHL1  H12B14877   6.751   0.859   5.948  0.9948 -1.2090 -1.6497
  117CHL1   C1114878   6.675   0.756   6.124 -0.2693  0.5272  0.0858
  117CHL1  H11A14879   6.630   0.659   6.153 -0.6065  0.7615  0.3560
  117CHL1  H11B14880   6.780   0.759   6.158  0.4212  1.0533 -1.9587
  117CHL1    C914881   6.599   0.874   6.197 -1.0032  0.3701 -0.0234
  117CHL1    H914882   6.655   0.970   6.190 -0.0381 -0.1472  0.4727
  117CHL1   C1014883   6.594   0.859   6.350 -0.4800 -0.4817 -0.2836
  117CHL1   C1914884   6.554   0.719   6.386  0.3672 -0.2019 -0.6870
  117CHL1  H19A14885   6.627   0.644   6.350  1.1422 -0.5199  1.3984
  117CHL1  H19B14886   6.541   0.700   6.495  3.5164  1.6614  0.1233
  117CHL1  H19C14887   6.467   0.685   6.326 -0.0261  0.6604 -0.6293
  117CHL1    C114888   6.734   0.885   6.411  0.2340  0.7461  0.0213
  117CHL1   H1A14889   6.812   0.823   6.363  0.8291  1.3622  0.1764
  117CHL1   H1B14890   6.770   0.987   6.387  0.1787  0.8360  0.3101
  117CHL1    C214891   6.736   0.885   6.565  0.0036  0.6175 -0.8205
  117CHL1   H2A14892   6.841   0.902   6.597  0.0316 -0.5479 -0.2242
  117CHL1   H2B14893   6.715   0.779   6.594 -0.1423  0.2291 -2.2768
  117CHL1   C2014894   6.568   0.745   5.653  0.4335 -0.3387  0.3003
  117CHL1   H2014895   6.528   0.651   5.696  0.0312 -0.3897 -0.1740
  117CHL1   C2114896   6.717   0.723   5.636  0.5227 -0.6881 -0.2341
  117CHL1  H21A14897   6.753   0.778   5.546 -2.0451 -2.8916 -2.8091
  117CHL1  H21B14898   6.729   0.618   5.602  0.4037 -1.1299  1.0336
  117CHL1  H21C14899   6.790   0.756   5.713 -1.7768  0.9320  1.3796
  117CHL1   C2214900   6.501   0.762   5.515  0.2188 -0.0464  0.2043
  117CHL1  H22A14901   6.403   0.814   5.515  1.0960  1.6845  0.4085
  117CHL1  H22B14902   6.570   0.822   5.453 -0.6159  1.8423  1.0083
  117CHL1   C2314903   6.490   0.630   5.439 -0.4917  0.9630  0.1635
  117CHL1  H23A14904   6.586   0.574   5.432 -0.9424 -0.2821  2.7211
  117CHL1  H23B14905   6.425   0.558   5.493  0.3657  1.3228  1.7612
  117CHL1   C2414906   6.435   0.644   5.300  0.6877 -0.8161 -0.2090
  117CHL1  H24A14907   6.342   0.706   5.308  1.8072  1.0858 -1.2283
  117CHL1  H24B14908   6.515   0.692   5.239  2.1147 -2.1161  0.5825
  117CHL1   C2514909   6.409   0.507   5.216  0.2825  0.9090 -0.4898
  117CHL1   H2514910   6.509   0.460   5.207 -0.6749 -0.9268 -2.2510
  117CHL1   C2614911   6.319   0.418   5.297  0.2677 -0.4877  0.6079
  117CHL1  H26A14912   6.350   0.407   5.403 -0.8031 -0.3693  0.9501
  117CHL1  H26B14913   6.215   0.458   5.289  0.9478  1.0212 -1.8998
  117CHL1  H26C14914   6.312   0.317   5.252 -0.0518 -0.7629  1.2593
  117CHL1   C2714915   6.366   0.534   5.077 -0.0556  0.0652  0.4069
  117CHL1  H27A14916   6.269   0.588   5.071 -0.9488 -1.5657 -0.5616
  117CHL1  H27B14917   6.445   0.599   5.032  2.2191 -1.7928  1.5432
  117CHL1  H27C14918   6.355   0.441   5.017  1.2060  0.5437 -0.6009
  118CHL1    C314919   0.666   1.483   6.677 -0.4304 -0.5157  0.5254
  118CHL1    H314920   0.705   1.580   6.637 -1.5204  0.1223  0.9709
  118CHL1    O314921   0.711   1.454   6.812 -0.0539 -0.3333  0.9042
  118CHL1   H3'14922   0.678   1.364   6.823 -0.7475 -0.1132  0.6561
  118CHL1    C414923   0.514   1.486   6.668 -0.0587  0.1374  0.4089
  118CHL1   H4A14924   0.474   1.392   6.710  0.0297 -0.3301 -0.5236
  118CHL1   H4B14925   0.487   1.572   6.734  2.1566  0.8389  0.4896
  118CHL1    C514926   0.449   1.502   6.531 -0.2064 -0.1722 -0.1226
  118CHL1    C614927   0.350   1.593   6.512  0.0830  0.5952 -0.5163
  118CHL1    H614928   0.306   1.660   6.588  1.1916  1.4726 -0.6256
  118CHL1    C714929   0.279   1.599   6.380 -0.1735 -0.5689 -0.3309
  118CHL1   H7A14930   0.169   1.590   6.396 -0.5453 -1.8509 -2.9653
  118CHL1   H7B14931   0.283   1.695   6.324 -0.4846  0.0776  0.7274
  118CHL1    C814932   0.316   1.482   6.282  0.6574 -0.3637 -0.2275
  118CHL1    H814933   0.246   1.403   6.318  1.0096 -0.6820 -0.2330
  118CHL1   C1414934   0.278   1.519   6.140 -1.0034  0.1968 -0.2212
  118CHL1   H1414935   0.352   1.599   6.116  0.4737 -1.1073 -0.1766
  118CHL1   C1514936   0.139   1.576   6.106 -0.4183  0.1052 -0.1326
  118CHL1  H15A14937   0.068   1.516   6.166 -2.2103  1.3773 -0.8930
  118CHL1  H15B14938   0.126   1.683   6.133  0.6456  0.0527  0.6449
  118CHL1   C1614939   0.124   1.562   5.951 -0.0330 -0.2095  0.1110
  118CHL1  H16A14940   0.036   1.495   5.945 -0.9120  0.8984  0.2870
  118CHL1  H16B14941   0.104   1.660   5.901 -0.1561 -1.1221 -1.7175
  118CHL1   C1714942   0.253   1.481   5.910  0.3299 -0.8776  0.2173
  118CHL1   H1714943   0.337   1.552   5.892  0.2170 -1.1072 -1.3686
  118CHL1   C1314944   0.305   1.402   6.033  0.4150 -0.2962  0.8893
  118CHL1   C1814945   0.218   1.278   6.079 -0.0942 -0.0460  0.2908
  118CHL1  H18A14946   0.224   1.188   6.014 -0.1843  0.7458 -0.8295
  118CHL1  H18B14947   0.241   1.249   6.184 -0.7321  1.2567  0.8118
  118CHL1  H18C14948   0.113   1.312   6.089 -0.0441  0.4531 -0.7642
  118CHL1   C1214949   0.452   1.372   6.030 -0.1317 -0.1473 -0.2136
  118CHL1  H12A14950   0.461   1.293   5.952 -0.4447 -1.1825  0.7749
  118CHL1  H12B14951   0.512   1.462   6.006  0.3787 -0.7027 -1.0804
  118CHL1   C1114952   0.502   1.333   6.167 -0.5130  0.2733  0.1663
  118CHL1  H11A14953   0.452   1.238   6.197  0.4613 -0.6055 -0.8809
  118CHL1  H11B14954   0.612   1.319   6.163 -0.6697 -1.2167  0.5096
  118CHL1    C914955   0.466   1.442   6.275 -0.0253  0.5936  0.1719
  118CHL1    H914956   0.528   1.529   6.243  1.8861 -0.8902 -0.3457
  118CHL1   C1014957   0.512   1.408   6.426  0.8648 -0.2339 -0.0437
  118CHL1   C1914958   0.462   1.272   6.463 -0.2815  0.3380  0.1534
  118CHL1  H19A14959   0.351   1.269   6.468 -0.3084 -0.2876 -0.6592
  118CHL1  H19B14960   0.499   1.193   6.394 -1.5379 -0.5335  0.4359
  118CHL1  H19C14961   0.496   1.240   6.564  0.8826  2.2589  0.4043
  118CHL1    C114962   0.667   1.408   6.438  0.4076  0.2085  0.1749
  118CHL1   H1A14963   0.701   1.322   6.377  1.2816  0.3401  0.4691
  118CHL1   H1B14964   0.706   1.500   6.391  1.9650  0.0964  1.1898
  118CHL1    C214965   0.727   1.384   6.578 -0.2133  0.3493 -0.2985
  118CHL1   H2A14966   0.836   1.400   6.587  0.5286 -4.5439  4.5758
  118CHL1   H2B14967   0.707   1.281   6.616 -0.7019 -0.3780 -2.4003
  118CHL1   C2014968   0.245   1.402   5.775 -0.0781  0.5392 -0.2391
  118CHL1   H2014969   0.333   1.334   5.768 -0.2259  0.4786 -1.5868
  118CHL1   C2114970   0.279   1.503   5.666  0.2502 -0.3245 -0.6367
  118CHL1  H21A14971   0.383   1.544   5.667 -0.0884  0.8732 -3.7018
  118CHL1  H21B14972   0.220   1.597   5.672 -0.3957 -0.7912  1.1157
  118CHL1  H21C14973   0.264   1.457   5.566  1.1289  1.6252 -1.7208
  118CHL1   C2214974   0.110   1.329   5.747 -0.4180  0.3143  0.4610
  118CHL1  H22A14975   0.098   1.251   5.826 -0.5695 -0.8945 -0.7196
  118CHL1  H22B14976   0.026   1.401   5.753  1.0100  2.0141  1.3168
  118CHL1   C2314977   0.117   1.253   5.614  0.3149  0.2344  0.2234
  118CHL1  H23A14978   0.126   1.324   5.528  1.8686 -0.2674 -0.0514
  118CHL1  H23B14979   0.214   1.200   5.612  0.5587  0.6547  0.7861
  118CHL1   C2414980   0.007   1.152   5.572  0.1110 -0.0296  0.5124
  118CHL1  H24A14981  -0.017   1.092   5.663 -0.0282  1.4250  1.4627
  118CHL1  H24B14982  -0.085   1.204   5.538  1.1319  0.3296 -1.8802
  118CHL1   C2514983   0.058   1.059   5.463 -0.2524  0.6170  0.4142
  118CHL1   H2514984   0.150   1.012   5.504  0.1667  1.0102 -0.0662
  118CHL1   C2614985  -0.048   0.951   5.421  0.3768  0.3494  0.0304
  118CHL1  H26A14986   0.005   0.883   5.352  0.5803 -1.1471  1.5872
  118CHL1  H26B14987  -0.070   0.885   5.508  2.0784  0.8602  0.8863
  118CHL1  H26C14988  -0.144   0.992   5.383  0.7161  0.4916 -0.6940
  118CHL1   C2714989   0.093   1.133   5.335  0.3035 -0.2728 -0.0015
  118CHL1  H27A14990   0.001   1.161   5.278 -0.0444 -1.4113 -0.0395
  118CHL1  H27B14991   0.152   1.224   5.356  0.8835 -0.2085 -1.7713
  118CHL1  H27C14992   0.145   1.064   5.265 -0.4591  0.3087 -1.1676
  119CHL1    C314993   1.096   1.598   6.464 -0.5322 -0.2052 -0.4725
  119CHL1    H314994   1.101   1.492   6.430  1.9071 -0.1347 -0.4696
  119CHL1    O314995   1.070   1.585   6.605 -0.4741 -0.4827 -0.1011
  119CHL1   H3'14996   1.123   1.659   6.637 -0.8747 -1.0282  2.0064
  119CHL1    C414997   1.239   1.633   6.435  0.2155  0.0144 -0.0044
  119CHL1   H4A14998   1.272   1.728   6.484  3.0466 -1.3901  1.0494
  119CHL1   H4B14999   1.312   1.567   6.488  3.8612  2.9358 -0.9192
  119CHL1    C515000   1.269   1.632   6.288  0.7567 -0.2441  0.1298
  119CHL1    C615001   1.367   1.559   6.231  0.2734  0.2550 -0.4456
  119CHL1    H615002   1.425   1.496   6.300 -2.3076 -1.2679  0.5000
  119CHL1    C715003   1.422   1.579   6.092  0.0773  0.3446  0.1917
  119CHL1   H7A15004   1.532   1.589   6.086 -0.1534  3.9318 -0.4384
  119CHL1   H7B15005   1.403   1.491   6.027  0.6674 -0.4389  1.0501
  119CHL1    C815006   1.360   1.703   6.021  0.5732 -0.0684 -1.1804
  119CHL1    H815007   1.404   1.798   6.056  0.8180 -0.1617 -1.2352
  119CHL1   C1415008   1.377   1.693   5.872  0.4555 -0.1792 -0.0651
  119CHL1   H1415009   1.315   1.607   5.838 -0.2417 -0.4400  1.7292
  119CHL1   C1515010   1.515   1.662   5.809  0.0133  0.1844 -0.9162
  119CHL1  H15A15011   1.604   1.704   5.860 -0.0769 -2.1797  1.4478
  119CHL1  H15B15012   1.533   1.552   5.820  0.5194  0.4402  1.5319
  119CHL1   C1615013   1.506   1.702   5.660 -0.5349  0.0919 -1.1143
  119CHL1  H16A15014   1.585   1.780   5.653  0.3487 -0.8578 -2.1472
  119CHL1  H16B15015   1.531   1.609   5.604  1.6238  0.4098 -0.7526
  119CHL1   C1715016   1.368   1.760   5.644 -0.0095 -0.1812  0.4262
  119CHL1   H1715017   1.315   1.667   5.616  2.7807 -2.2183  1.4401
  119CHL1   C1315018   1.328   1.810   5.785 -0.0253  0.3147  0.0080
  119CHL1   C1815019   1.400   1.933   5.824 -0.1926  0.3775 -0.5125
  119CHL1  H18A15020   1.510   1.925   5.815  0.0136 -1.9635  2.4968
  119CHL1  H18B15021   1.373   2.026   5.770  0.2839 -0.1767 -1.7461
  119CHL1  H18C15022   1.379   1.952   5.931 -1.8642  1.5652 -0.9995
  119CHL1   C1215023   1.181   1.825   5.810  0.3522 -0.2420  0.1677
  119CHL1  H12A15024   1.138   1.919   5.769 -0.7092 -0.4108  0.8546
  119CHL1  H12B15025   1.137   1.733   5.766  1.4772 -0.3520 -0.7728
  119CHL1   C1115026   1.144   1.827   5.960 -0.4806 -0.0852 -0.7573
  119CHL1  H11A15027   1.188   1.921   6.001  0.2692 -0.9483  0.4928
  119CHL1  H11B15028   1.035   1.836   5.979 -0.0702  0.0284  2.0579
  119CHL1    C915029   1.209   1.720   6.053  0.3491 -0.5659  0.0837
  119CHL1    H915030   1.160   1.630   6.009  0.1807  0.4614 -1.9265
  119CHL1   C1015031   1.175   1.727   6.208  0.6986 -0.2366  0.3812
  119CHL1   C1915032   1.205   1.872   6.254  0.3441  0.4270  0.4088
  119CHL1  H19A15033   1.189   1.890   6.362 -1.3029  0.9707  0.0922
  119CHL1  H19B15034   1.303   1.912   6.220 -0.2312  0.0589 -1.8681
  119CHL1  H19C15035   1.123   1.936   6.215  0.1535 -0.7802 -1.3246
  119CHL1    C115036   1.029   1.687   6.231 -0.0333  0.1095 -0.3033
  119CHL1   H1A15037   0.969   1.769   6.186 -0.6908  0.3958  1.0171
  119CHL1   H1B15038   1.014   1.592   6.175 -3.3464  1.1839 -1.4967
  119CHL1    C215039   0.992   1.670   6.379  0.6821 -0.7256  0.3453
  119CHL1   H2A15040   0.904   1.604   6.397  0.2048  0.1516  1.3250
  119CHL1   H2B15041   0.970   1.763   6.436  0.2940 -1.9601  2.3423
  119CHL1   C2015042   1.336   1.858   5.531  0.3018 -0.2968  0.3378
  119CHL1   H2015043   1.333   1.960   5.576  1.1239  0.8035 -1.9060
  119CHL1   C2115044   1.189   1.840   5.485 -0.9067 -0.3358  0.3078
  119CHL1  H21A15045   1.171   1.886   5.386  1.8824 -0.7249 -0.4510
  119CHL1  H21B15046   1.117   1.885   5.556  1.3446  0.0236  2.5130
  119CHL1  H21C15047   1.164   1.732   5.476 -0.7294 -0.2861 -0.8128
  119CHL1   C2215048   1.431   1.851   5.411  0.9192  0.0622  0.1479
  119CHL1  H22A15049   1.389   1.929   5.343 -0.4850 -1.4521 -0.8074
  119CHL1  H22B15050   1.535   1.874   5.443  0.5675  0.6811  0.8713
  119CHL1   C2315051   1.430   1.723   5.327 -0.5460 -0.1100  0.1866
  119CHL1  H23A15052   1.478   1.636   5.377  0.9158  0.8696  0.5323
  119CHL1  H23B15053   1.326   1.686   5.319 -0.6847  0.2700  0.2226
  119CHL1   C2415054   1.489   1.735   5.189  0.0708 -0.5689  0.1671
  119CHL1  H24A15055   1.436   1.809   5.124 -2.6164 -3.1230 -0.7664
  119CHL1  H24B15056   1.597   1.758   5.181 -0.2302  0.3764 -1.6972
  119CHL1   C2515057   1.475   1.611   5.100 -0.6203 -0.4618 -0.2866
  119CHL1   H2515058   1.365   1.599   5.092 -1.0374  1.7149  1.3625
  119CHL1   C2615059   1.530   1.640   4.956 -0.0906  0.3257 -0.4691
  119CHL1  H26A15060   1.464   1.713   4.904 -0.2271 -1.3387 -2.7564
  119CHL1  H26B15061   1.628   1.692   4.966 -0.5653  1.4668 -1.4946
  119CHL1  H26C15062   1.533   1.552   4.889  0.5517  0.6708 -0.9089
  119CHL1   C2715063   1.544   1.488   5.160  0.8580  0.3773 -0.1473
  119CHL1  H27A15064   1.654   1.503   5.155  1.2626 -1.7006  1.2133
  119CHL1  H27B15065   1.512   1.470   5.265  0.4504 -1.1430 -0.5053
  119CHL1  H27C15066   1.525   1.397   5.099 -0.8131  1.0799 -0.7416
  120CHL1    C315067   1.180   0.570   6.861  0.1262 -0.3250 -0.1500
  120CHL1    H315068   1.146   0.671   6.895 -0.1671 -0.1023 -1.0635
  120CHL1    O315069   1.197   0.489   6.972 -0.4109 -0.2244 -0.1724
  120CHL1   H3'15070   1.267   0.526   7.026  0.2150 -2.4146  0.6235
  120CHL1    C415071   1.073   0.499   6.775  0.0741  0.2393  0.5680
  120CHL1   H4A15072   1.093   0.390   6.771 -0.4243  0.1902 -1.0507
  120CHL1   H4B15073   0.978   0.500   6.833 -0.4916 -1.4315 -0.2585
  120CHL1    C515074   1.061   0.549   6.634 -0.3136  0.1319 -0.3795
  120CHL1    C615075   0.939   0.579   6.585  0.4376 -0.4443  0.2338
  120CHL1    H615076   0.850   0.545   6.641 -0.8175  0.6937 -1.0076
  120CHL1    C715077   0.920   0.637   6.451 -0.3862 -0.5326  0.7518
  120CHL1   H7A15078   0.835   0.583   6.405  1.1100 -1.1747 -1.4146
  120CHL1   H7B15079   0.904   0.747   6.454 -2.1999 -0.6722 -1.3979
  120CHL1    C815080   1.043   0.609   6.349 -0.8994 -0.0271 -0.1318
  120CHL1    H815081   1.051   0.501   6.324 -1.8919 -0.2815  0.5889
  120CHL1   C1415082   1.030   0.683   6.225 -0.1858 -1.0885 -0.2803
  120CHL1   H1415083   1.013   0.789   6.254  0.9755 -0.7642 -0.7519
  120CHL1   C1515084   0.902   0.651   6.138 -0.2647  0.3679 -0.3047
  120CHL1  H15A15085   0.891   0.541   6.127  0.8693 -0.0366  2.0807
  120CHL1  H15B15086   0.805   0.690   6.176  1.0733  2.2686  1.3638
  120CHL1   C1615087   0.940   0.709   5.996  0.0434  0.0462  0.2155
  120CHL1  H16A15088   0.960   0.618   5.934 -0.4447  0.4423 -0.5485
  120CHL1  H16B15089   0.855   0.762   5.947 -2.1145 -1.8900  1.6326
  120CHL1   C1715090   1.079   0.773   6.010 -0.3602  0.8246 -0.0376
  120CHL1   H1715091   1.065   0.877   6.046  1.5031  0.7208  1.1388
  120CHL1   C1315092   1.149   0.689   6.129  0.5214 -0.0507  1.1759
  120CHL1   C1815093   1.202   0.547   6.092 -0.2110 -0.7471 -0.2073
  120CHL1  H18A15094   1.306   0.556   6.054 -0.7243  0.6313 -1.3978
  120CHL1  H18B15095   1.201   0.485   6.184 -1.7476  1.6436  1.4827
  120CHL1  H18C15096   1.144   0.496   6.011  1.2783 -3.8738  0.5255
  120CHL1   C1215097   1.259   0.757   6.210 -0.0808  0.4814 -0.0762
  120CHL1  H12A15098   1.352   0.755   6.148  0.4161 -1.7021  0.6428
  120CHL1  H12B15099   1.231   0.862   6.232 -0.5941  0.1622  0.8188
  120CHL1   C1115100   1.287   0.684   6.341 -0.4382  0.2980 -0.2731
  120CHL1  H11A15101   1.331   0.584   6.320  0.6426  1.1451 -2.4226
  120CHL1  H11B15102   1.367   0.738   6.397 -0.9846  1.0613 -0.2028
  120CHL1    C915103   1.168   0.660   6.433  0.1718  0.4736 -0.5837
  120CHL1    H915104   1.128   0.755   6.475 -3.2572 -2.5594  3.9729
  120CHL1   C1015105   1.192   0.574   6.558 -0.3418 -0.3496 -0.1035
  120CHL1   C1915106   1.240   0.430   6.531 -0.1132 -0.3173  0.4896
  120CHL1  H19A15107   1.260   0.360   6.615 -1.1513  1.1906  2.0677
  120CHL1  H19B15108   1.171   0.371   6.467  1.2680 -2.8179  1.1875
  120CHL1  H19C15109   1.341   0.437   6.485 -0.0889  0.1423  0.6097
  120CHL1    C115110   1.286   0.654   6.653  0.1290 -0.0963  0.6392
  120CHL1   H1A15111   1.391   0.676   6.622 -0.7005  0.3958 -2.0512
  120CHL1   H1B15112   1.237   0.752   6.666  2.0286  0.6076  3.2297
  120CHL1    C215113   1.304   0.579   6.788  0.0684 -0.2889  0.0219
  120CHL1   H2A15114   1.380   0.634   6.847  1.0638  0.5751 -1.9375
  120CHL1   H2B15115   1.335   0.474   6.767 -0.7421 -0.6866  0.7404
  120CHL1   C2015116   1.156   0.776   5.876  0.0958 -0.2421 -0.5699
  120CHL1   H2015117   1.198   0.676   5.854  1.0063 -0.3542  1.5070
  120CHL1   C2115118   1.277   0.864   5.886  0.0768 -0.0339 -0.1633
  120CHL1  H21A15119   1.361   0.840   5.818  0.8815  1.0678  0.4142
  120CHL1  H21B15120   1.321   0.876   5.987  1.6747  0.2514 -0.8719
  120CHL1  H21C15121   1.237   0.967   5.870 -1.1913  0.0977  2.9897
  120CHL1   C2215122   1.066   0.827   5.756 -0.4377  0.4837  0.4363
  120CHL1  H22A15123   0.969   0.772   5.752  0.8128 -1.7803 -1.0448
  120CHL1  H22B15124   1.060   0.937   5.769  2.6432  1.1379 -2.3998
  120CHL1   C2315125   1.124   0.803   5.621 -0.6699  0.7231  0.0021
  120CHL1  H23A15126   1.224   0.852   5.618 -1.1608  1.7093 -1.1281
  120CHL1  H23B15127   1.150   0.696   5.608 -2.6166 -0.6104  4.7769
  120CHL1   C2415128   1.039   0.864   5.516  0.7665  0.1565 -0.6361
  120CHL1  H24A15129   0.932   0.872   5.545  0.8651 -1.0834  0.1646
  120CHL1  H24B15130   1.073   0.969   5.501 -1.9058  1.3870  1.1783
  120CHL1   C2515131   1.068   0.811   5.364  0.4095 -0.1008  0.9297
  120CHL1   H2515132   1.177   0.813   5.341 -0.3016 -2.1759 -3.7096
  120CHL1   C2615133   1.021   0.666   5.345 -0.5125 -0.1175 -0.2112
  120CHL1  H26A15134   1.087   0.615   5.418  1.9122  3.3269  0.2336
  120CHL1  H26B15135   0.914   0.652   5.374 -1.1291  1.5458 -1.5274
  120CHL1  H26C15136   1.046   0.636   5.241  2.9259  1.6969 -0.0557
  120CHL1   C2715137   0.997   0.891   5.255  0.9249 -0.6764 -0.7400
  120CHL1  H27A15138   0.889   0.908   5.277  0.7892 -1.0445 -1.1159
  120CHL1  H27B15139   1.054   0.985   5.237  1.1638 -0.6671  0.0041
  120CHL1  H27C15140   1.000   0.839   5.157 -1.2105 -0.4645 -0.9706
  121CHL1    C315141   4.109   3.296   3.516 -0.1762 -0.6884  0.4948
  121CHL1    H315142   4.112   3.193   3.557 -0.3813 -1.1277 -0.5474
  121CHL1    O315143   4.106   3.265   3.379 -0.0220 -0.4132 -0.1784
  121CHL1   H3'15144   4.034   3.203   3.367 -0.8090  0.7647 -1.9353
  121CHL1    C415145   3.989   3.374   3.561  0.4053 -0.2087  1.0192
  121CHL1   H4A15146   3.997   3.473   3.510 -0.0042 -0.5324  0.3169
  121CHL1   H4B15147   3.901   3.319   3.522  2.2582 -2.1372 -0.6996
  121CHL1    C515148   4.006   3.397   3.704  0.4267 -0.2424 -0.0580
  121CHL1    C615149   3.915   3.348   3.796 -0.3877  0.3754 -0.5494
  121CHL1    H615150   3.822   3.300   3.761 -0.1170 -0.5201 -0.0860
  121CHL1    C715151   3.931   3.367   3.949 -0.2205 -0.0482 -0.7570
  121CHL1   H7A15152   3.833   3.386   3.997  1.2000  3.6119  1.0270
  121CHL1   H7B15153   3.986   3.281   3.994  0.6534  0.8516 -0.0652
  121CHL1    C815154   4.022   3.486   3.980  0.6510  0.0275 -0.4025
  121CHL1    H815155   3.976   3.584   3.953  2.1716  1.5227  1.9584
  121CHL1   C1415156   4.058   3.498   4.127 -0.5557  0.9155 -0.3961
  121CHL1   H1415157   4.125   3.415   4.155 -0.8576  1.1677  1.1899
  121CHL1   C1515158   3.937   3.495   4.227  0.1482  0.1126 -0.0449
  121CHL1  H15A15159   3.851   3.548   4.180  2.0812  3.8451  0.3090
  121CHL1  H15B15160   3.896   3.395   4.253  0.5104 -0.2283 -0.7637
  121CHL1   C1615161   3.992   3.568   4.348 -0.6598 -0.2956  0.0510
  121CHL1  H16A15162   3.937   3.663   4.368  1.5872  0.7151  1.9662
  121CHL1  H16B15163   3.986   3.511   4.443 -0.0588  0.3850  0.5126
  121CHL1   C1715164   4.143   3.615   4.317  0.8340  0.1179 -0.7762
  121CHL1   H1715165   4.202   3.532   4.362  0.6160  0.1026 -0.5141
  121CHL1   C1315166   4.148   3.622   4.166  0.2842 -0.1359  0.8356
  121CHL1   C1815167   4.086   3.765   4.116  0.3407 -0.0553 -0.0371
  121CHL1  H18A15168   4.146   3.852   4.151 -0.2355  1.7095 -3.1349
  121CHL1  H18B15169   4.071   3.768   4.006 -1.9116  2.0284  0.2491
  121CHL1  H18C15170   3.983   3.773   4.157 -0.7644 -3.7035 -1.6590
  121CHL1   C1215171   4.283   3.606   4.090 -0.2537 -0.2658  0.4810
  121CHL1  H12A15172   4.341   3.700   4.090  0.4508 -0.6948  0.4456
  121CHL1  H12B15173   4.341   3.524   4.137  1.1122  1.2539  1.5346
  121CHL1   C1115174   4.258   3.589   3.945  0.1451 -0.2965 -0.0858
  121CHL1  H11A15175   4.227   3.688   3.907 -0.6966 -0.3864  0.3524
  121CHL1  H11B15176   4.356   3.570   3.896 -0.8657 -0.3810 -2.2088
  121CHL1    C915177   4.154   3.481   3.902 -0.1502  0.2543  0.2896
  121CHL1    H915178   4.196   3.385   3.937 -1.3314 -0.7134 -0.8582
  121CHL1   C1015179   4.135   3.469   3.749 -0.3867  0.5628 -0.0845
  121CHL1   C1915180   4.137   3.611   3.691 -0.2304  0.0826 -0.4268
  121CHL1  H19A15181   4.241   3.647   3.677 -0.2336  1.0465  1.7283
  121CHL1  H19B15182   4.072   3.609   3.601  2.0834 -4.3628 -2.3466
  121CHL1  H19C15183   4.088   3.682   3.761  2.8968  0.1741  1.8574
  121CHL1    C115184   4.260   3.394   3.691  0.7958 -0.8848 -0.3435
  121CHL1   H1A15185   4.352   3.454   3.708  1.0632 -0.8933 -1.7007
  121CHL1   H1B15186   4.279   3.301   3.749  1.7152 -0.0353  0.7805
  121CHL1    C215187   4.242   3.364   3.545 -0.2186 -0.4573 -1.0106
  121CHL1   H2A15188   4.330   3.311   3.502 -0.8161 -0.4122 -2.3349
  121CHL1   H2B15189   4.229   3.458   3.488 -1.0854 -1.1406 -1.9784
  121CHL1   C2015190   4.178   3.737   4.398 -0.0852  0.4892  0.4199
  121CHL1   H2015191   4.116   3.822   4.365 -0.5010 -0.0598 -0.2296
  121CHL1   C2115192   4.327   3.769   4.375 -0.0084 -0.5509  0.5476
  121CHL1  H21A15193   4.365   3.836   4.456  0.7513  0.2806 -0.4744
  121CHL1  H21B15194   4.354   3.823   4.282  0.2084  2.4142  2.2109
  121CHL1  H21C15195   4.395   3.681   4.382 -0.7288 -1.1816 -0.2661
  121CHL1   C2215196   4.160   3.720   4.554  0.1696  0.1837  0.8345
  121CHL1  H22A15197   4.060   3.677   4.577  1.5001 -2.8043  1.6188
  121CHL1  H22B15198   4.239   3.648   4.585  0.9903  0.6222 -0.1888
  121CHL1   C2315199   4.177   3.843   4.650 -0.9542 -0.6285  0.1741
  121CHL1  H23A15200   4.231   3.929   4.607  0.8210 -1.5231  0.5147
  121CHL1  H23B15201   4.074   3.873   4.678 -1.3199 -0.5663 -1.1766
  121CHL1   C2415202   4.255   3.810   4.778 -0.0550  0.6735 -0.4009
  121CHL1  H24A15203   4.222   3.712   4.818 -0.8864  0.5328 -1.3992
  121CHL1  H24B15204   4.361   3.797   4.745 -0.3802 -1.6058 -0.7276
  121CHL1   C2515205   4.247   3.904   4.897 -0.0704 -0.1274 -0.1225
  121CHL1   H2515206   4.299   3.999   4.874  1.5348 -1.2983 -1.6050
  121CHL1   C2615207   4.104   3.936   4.934 -0.3593 -0.0000  0.0724
  121CHL1  H26A15208   4.056   4.010   4.866  1.9560  1.1123 -0.4600
  121CHL1  H26B15209   4.057   3.836   4.936 -0.8208  0.2198  0.1952
  121CHL1  H26C15210   4.106   3.974   5.038  0.0827  2.2123 -0.6818
  121CHL1   C2715211   4.329   3.852   5.023 -0.0558 -0.0469 -0.5460
  121CHL1  H27A15212   4.276   3.763   5.063 -0.0107 -0.6459 -1.7912
  121CHL1  H27B15213   4.429   3.816   4.988  0.0639  0.5324 -0.8062
  121CHL1  H27C15214   4.337   3.934   5.097  1.1225 -0.1397 -0.5383
  122CHL1    C315215   2.911   4.076   3.320 -0.4645  0.1369 -0.1084
  122CHL1    H315216   3.012   4.036   3.344 -0.2717  1.0153  0.5525
  122CHL1    O315217   2.862   4.039   3.195  0.0526  0.1642  0.2530
  122CHL1   H3'15218   2.772   4.072   3.196 -0.0218 -0.0384  0.1247
  122CHL1    C415219   2.808   4.033   3.423 -0.2509 -0.0786  0.1083
  122CHL1   H4A15220   2.709   4.073   3.395 -0.3807 -0.0749  0.5655
  122CHL1   H4B15221   2.803   3.922   3.422 -0.8436 -0.0931 -2.1310
  122CHL1    C515222   2.836   4.073   3.564 -0.7529  0.9389  0.0903
  122CHL1    C615223   2.842   3.973   3.656  0.3707  0.3801 -0.0238
  122CHL1    H615224   2.809   3.873   3.623 -2.3991  1.5977 -1.3168
  122CHL1    C715225   2.889   4.002   3.800  0.0208  0.4278 -0.7173
  122CHL1   H7A15226   2.827   3.952   3.878  1.4824  2.3563  1.8365
  122CHL1   H7B15227   2.995   3.972   3.811  0.0263 -0.0233 -1.9030
  122CHL1    C815228   2.872   4.154   3.835  0.3122  0.1380  0.6102
  122CHL1    H815229   2.764   4.178   3.832  0.0669 -0.9492  0.3568
  122CHL1   C1415230   2.925   4.179   3.974  0.0708 -0.2560  0.3927
  122CHL1   H1415231   3.034   4.158   3.965  0.0474 -0.8151  1.3255
  122CHL1   C1515232   2.874   4.093   4.085  0.1893 -0.6426  0.3359
  122CHL1  H15A15233   2.764   4.079   4.074 -0.5546  2.4185  2.5633
  122CHL1  H15B15234   2.912   3.988   4.082  2.9696  0.2833  0.4911
  122CHL1   C1615235   2.898   4.162   4.216 -0.4272 -0.0914  0.0960
  122CHL1  H16A15236   2.811   4.200   4.273  1.2778  2.4899  1.0978
  122CHL1  H16B15237   2.960   4.099   4.283 -0.7950  0.9922  1.4749
  122CHL1   C1715238   2.978   4.292   4.170  0.6349 -1.2265  0.1385
  122CHL1   H1715239   3.083   4.263   4.149  1.1708  0.6818 -0.0486
  122CHL1   C1315240   2.919   4.319   4.021  1.1411 -0.6341 -0.3798
  122CHL1   C1815241   2.772   4.375   4.034  0.3928  0.0236 -0.2036
  122CHL1  H18A15242   2.723   4.342   4.129 -2.0769 -3.0905 -2.3476
  122CHL1  H18B15243   2.772   4.486   4.032  2.6837  0.0790  0.2458
  122CHL1  H18C15244   2.706   4.351   3.948  2.5874  0.5177 -2.1118
  122CHL1   C1215245   2.999   4.405   3.920 -0.2565  0.1644 -0.0251
  122CHL1  H12A15246   2.980   4.512   3.945 -0.2739  0.4552 -1.2254
  122CHL1  H12B15247   3.109   4.391   3.924  0.0415  2.2958  0.7520
  122CHL1   C1115248   2.949   4.385   3.775  0.0756 -0.5063  0.1575
  122CHL1  H11A15249   2.851   4.437   3.775 -0.1711 -0.9560 -0.0734
  122CHL1  H11B15250   3.022   4.444   3.715 -0.3126  0.8418  0.9891
  122CHL1    C915251   2.940   4.239   3.726 -0.1295 -0.1840 -0.6114
  122CHL1    H915252   3.046   4.208   3.717  0.5898  1.2006  2.1023
  122CHL1   C1015253   2.871   4.219   3.592 -0.5330  0.4449  0.6394
  122CHL1   C1915254   2.750   4.307   3.570 -0.6925  0.2765  0.2464
  122CHL1  H19A15255   2.774   4.413   3.593 -0.0951  0.1355  0.2818
  122CHL1  H19B15256   2.715   4.310   3.465  1.5910 -1.9852 -0.6830
  122CHL1  H19C15257   2.664   4.282   3.636 -1.3392  0.1833 -0.6227
  122CHL1    C115258   2.979   4.260   3.478 -0.2104  0.3947 -0.5381
  122CHL1   H1A15259   2.987   4.370   3.487  1.1089  0.2370  0.5683
  122CHL1   H1B15260   3.076   4.211   3.503  1.4612  4.3356  1.6513
  122CHL1    C215261   2.937   4.225   3.337 -0.1246  0.5529 -0.1418
  122CHL1   H2A15262   3.011   4.263   3.263 -1.4860  1.9579 -0.8584
  122CHL1   H2B15263   2.845   4.288   3.328 -0.7613  0.1037  2.6102
  122CHL1   C2015264   2.981   4.404   4.269 -0.1346  0.3139  0.1856
  122CHL1   H2015265   2.879   4.446   4.275 -0.3841 -0.5606  3.7462
  122CHL1   C2115266   3.079   4.515   4.228  0.5527 -0.1827 -0.1872
  122CHL1  H21A15267   3.183   4.476   4.224  1.5759  2.3236  0.0284
  122CHL1  H21B15268   3.085   4.603   4.296  0.6958 -1.0356  0.9355
  122CHL1  H21C15269   3.045   4.557   4.131 -0.8598  2.9255  1.5042
  122CHL1   C2215270   3.008   4.360   4.416  0.4000  0.0646 -0.6062
  122CHL1  H22A15271   2.918   4.303   4.447  0.9301  0.5444  2.0216
  122CHL1  H22B15272   3.096   4.292   4.421  0.9305  0.8428  1.9473
  122CHL1   C2315273   3.022   4.481   4.516 -0.3844  0.0006 -0.0427
  122CHL1  H23A15274   3.123   4.522   4.495  0.2344 -1.9508 -1.1763
  122CHL1  H23B15275   2.941   4.552   4.490 -0.3917 -0.5878 -1.7084
  122CHL1   C2415276   3.028   4.442   4.663  0.4097 -0.0428 -0.1005
  122CHL1  H24A15277   3.085   4.346   4.667  0.5837  0.0995  2.9688
  122CHL1  H24B15278   3.078   4.517   4.727  1.2741 -0.2163 -0.5570
  122CHL1   C2515279   2.891   4.426   4.727  0.0761 -0.6003  0.6592
  122CHL1   H2515280   2.823   4.365   4.663 -0.2169 -1.2624  1.5770
  122CHL1   C2615281   2.910   4.342   4.852  0.5027  0.2722  0.4948
  122CHL1  H26A15282   2.964   4.245   4.843  0.9921  0.5813  0.0181
  122CHL1  H26B15283   2.968   4.408   4.921 -1.4848  1.6971  0.8788
  122CHL1  H26C15284   2.814   4.327   4.906  0.9980  1.2963  1.7167
  122CHL1   C2715285   2.822   4.561   4.753  0.7041  0.2149 -0.1481
  122CHL1  H27A15286   2.878   4.626   4.824  0.2886  1.7621 -1.1753
  122CHL1  H27B15287   2.803   4.622   4.662 -1.6214 -1.3721 -0.7963
  122CHL1  H27C15288   2.725   4.552   4.805 -0.7576 -0.5578 -2.8139
  123CHL1    C315289   4.641   3.912   3.281  0.0582  0.6929  0.3912
  123CHL1    H315290   4.728   3.976   3.303  1.1882 -1.2602  1.9063
  123CHL1    O315291   4.596   3.919   3.143  0.2475 -0.1824  0.1329
  123CHL1   H3'15292   4.526   3.983   3.150 -0.7805 -1.3176  0.4995
  123CHL1    C415293   4.684   3.767   3.309 -0.1986  0.1704 -0.8583
  123CHL1   H4A15294   4.610   3.688   3.287 -0.0681 -0.5516  1.0858
  123CHL1   H4B15295   4.771   3.741   3.244  0.2889 -1.0255  0.2364
  123CHL1    C515296   4.720   3.756   3.458  0.2971  0.2399 -0.1292
  123CHL1    C615297   4.843   3.713   3.501  0.4754 -0.0430  0.0755
  123CHL1    H615298   4.919   3.680   3.428  0.1748  1.1488 -0.8215
  123CHL1    C715299   4.883   3.690   3.641  0.3999 -0.5428 -0.2154
  123CHL1   H7A15300   4.930   3.590   3.644  0.8736 -0.3429 -0.8412
  123CHL1   H7B15301   4.964   3.758   3.674 -1.0998  2.1164 -1.6591
  123CHL1    C815302   4.764   3.703   3.739  0.6014  0.0398  0.0709
  123CHL1    H815303   4.712   3.605   3.753  0.4477  0.2841  1.3356
  123CHL1   C1415304   4.820   3.734   3.876 -0.2769 -0.0600  0.4058
  123CHL1   H1415305   4.871   3.831   3.861  2.5925 -1.6493 -1.0029
  123CHL1   C1515306   4.923   3.640   3.928 -0.0508 -0.2718 -0.1092
  123CHL1  H15A15307   4.871   3.543   3.919 -0.9432  0.0272  1.4469
  123CHL1  H15B15308   5.022   3.643   3.877 -0.8135 -0.2867 -1.6490
  123CHL1   C1615309   4.939   3.676   4.075  0.7187 -0.0975  0.1764
  123CHL1  H16A15310   4.949   3.584   4.136  1.0553 -0.2055 -0.0409
  123CHL1  H16B15311   5.035   3.731   4.087  1.4720 -1.4531  0.5385
  123CHL1   C1715312   4.823   3.781   4.108 -0.6773  0.5087 -0.1767
  123CHL1   H1715313   4.860   3.884   4.088  0.6868 -0.3262 -2.2532
  123CHL1   C1315314   4.720   3.763   3.987 -0.3139 -0.2815  0.4392
  123CHL1   C1815315   4.642   3.633   4.015  0.1337 -0.5265  0.2678
  123CHL1  H18A15316   4.588   3.591   3.927  2.3000  1.0608 -1.9613
  123CHL1  H18B15317   4.713   3.561   4.061 -0.4495 -1.5142 -0.3656
  123CHL1  H18C15318   4.580   3.641   4.107  0.0937 -1.9430  0.3858
  123CHL1   C1215319   4.625   3.882   3.940  0.7766 -0.2666 -0.5804
  123CHL1  H12A15320   4.544   3.910   4.010  1.0476 -1.3049  0.1829
  123CHL1  H12B15321   4.694   3.969   3.927 -0.2958  1.1851  2.4005
  123CHL1   C1115322   4.568   3.851   3.803  1.0594  0.1960  0.0589
  123CHL1  H11A15323   4.492   3.772   3.824  1.8717 -0.5234  0.3240
  123CHL1  H11B15324   4.502   3.934   3.768  0.3303 -0.8007 -1.0161
  123CHL1    C915325   4.672   3.812   3.694  0.5976  0.7464 -0.2986
  123CHL1    H915326   4.734   3.902   3.680 -1.3122  2.1138 -0.3445
  123CHL1   C1015327   4.607   3.798   3.550 -0.9121 -0.1017 -0.4808
  123CHL1   C1915328   4.491   3.700   3.544 -0.3636  0.4906  0.2040
  123CHL1  H19A15329   4.504   3.620   3.621 -1.6986 -0.0835 -0.1346
  123CHL1  H19B15330   4.395   3.754   3.560 -1.5234 -1.8538  1.7679
  123CHL1  H19C15331   4.495   3.639   3.452  1.9255  0.0271  0.5524
  123CHL1    C115332   4.553   3.943   3.507 -0.3480  0.0128  0.7883
  123CHL1   H1A15333   4.460   3.968   3.562 -1.8252 -0.5725 -1.3291
  123CHL1   H1B15334   4.626   4.024   3.529  0.0083 -0.6499  2.2236
  123CHL1    C215335   4.525   3.955   3.360 -0.0995  0.6228 -0.2865
  123CHL1   H2A15336   4.494   4.060   3.339 -1.6754 -0.1162 -1.9521
  123CHL1   H2B15337   4.441   3.889   3.330  0.0875 -0.5262  1.5350
  123CHL1   C2015338   4.775   3.766   4.252 -0.7459 -0.2109  0.1494
  123CHL1   H2015339   4.746   3.662   4.280 -1.0537 -0.0704  0.3564
  123CHL1   C2115340   4.653   3.862   4.263 -0.6725 -0.7554  0.0198
  123CHL1  H21A15341   4.661   3.962   4.215  2.5592 -0.8874  0.0713
  123CHL1  H21B15342   4.625   3.888   4.368 -0.6974 -2.2018  0.3879
  123CHL1  H21C15343   4.562   3.813   4.222 -1.9882  0.2115  1.6363
  123CHL1   C2215344   4.885   3.802   4.363 -0.2362  0.0559  0.6869
  123CHL1  H22A15345   4.979   3.753   4.329 -0.6407  0.2067 -0.7242
  123CHL1  H22B15346   4.890   3.912   4.352 -1.0971  0.0196 -0.1911
  123CHL1   C2315347   4.843   3.770   4.501 -0.1871 -0.2769 -0.5230
  123CHL1  H23A15348   4.737   3.804   4.510 -0.6578 -1.0107 -2.6907
  123CHL1  H23B15349   4.850   3.661   4.516 -0.3203 -0.3889 -1.2304
  123CHL1   C2415350   4.916   3.844   4.604  0.3107  0.1011 -0.2535
  123CHL1  H24A15351   5.022   3.811   4.613  0.3607  0.7819  2.5053
  123CHL1  H24B15352   4.913   3.952   4.579 -0.4249 -0.0705 -0.9364
  123CHL1   C2515353   4.853   3.835   4.753 -0.6319  0.3240  0.8934
  123CHL1   H2515354   4.856   3.730   4.791  0.2131  0.5873  1.5715
  123CHL1   C2615355   4.956   3.903   4.857 -0.3224 -0.0043 -0.3326
  123CHL1  H26A15356   4.956   4.011   4.833  0.3487  0.3737  1.2581
  123CHL1  H26B15357   4.910   3.888   4.957  1.0304 -0.4912  0.2283
  123CHL1  H26C15358   5.059   3.863   4.852 -0.3089  0.1482 -1.8295
  123CHL1   C2715359   4.712   3.901   4.769 -0.2834  0.0357  0.5659
  123CHL1  H27A15360   4.635   3.843   4.715  1.9131 -1.7244 -0.8737
  123CHL1  H27B15361   4.685   3.890   4.876 -0.3163 -2.3137  0.3687
  123CHL1  H27C15362   4.721   4.007   4.736 -0.9436 -0.2354 -0.5224
  124CHL1    C315363   2.677   5.357   3.531 -0.8279 -0.4551 -0.4603
  124CHL1    H315364   2.786   5.340   3.542 -0.7620 -1.5604 -2.4020
  124CHL1    O315365   2.629   5.340   3.395 -0.4775  0.1520  0.0322
  124CHL1   H3'15366   2.702   5.368   3.338 -0.3723  3.0835  1.4073
  124CHL1    C415367   2.605   5.260   3.630  1.0405 -0.4452  0.6156
  124CHL1   H4A15368   2.499   5.289   3.611  1.0262 -2.4303 -3.4139
  124CHL1   H4B15369   2.604   5.165   3.572  1.4766 -0.0422 -0.0758
  124CHL1    C515370   2.651   5.253   3.774  0.5072 -0.9003 -0.2391
  124CHL1    C615371   2.700   5.145   3.835  0.1734  0.2511  0.0662
  124CHL1    H615372   2.699   5.047   3.784  0.3372  0.6491 -0.7182
  124CHL1    C715373   2.761   5.144   3.972  0.1408 -0.0183  0.7256
  124CHL1   H7A15374   2.723   5.063   4.038 -0.9756 -0.5176 -0.4842
  124CHL1   H7B15375   2.871   5.137   3.965  0.0807 -0.4897  0.2102
  124CHL1    C815376   2.725   5.273   4.045  1.0526 -0.2233  0.5642
  124CHL1    H815377   2.617   5.266   4.073  1.3566 -0.1890  1.8121
  124CHL1   C1415378   2.801   5.286   4.177  0.5827  0.5300 -1.0099
  124CHL1   H1415379   2.907   5.260   4.160  0.5433 -0.2809 -0.1433
  124CHL1   C1515380   2.776   5.178   4.284 -0.9411 -0.4869  0.3504
  124CHL1  H15A15381   2.669   5.158   4.302 -0.8493 -1.3378  0.0155
  124CHL1  H15B15382   2.821   5.083   4.246  0.7520  0.8199 -1.0654
  124CHL1   C1615383   2.844   5.231   4.406  0.0880  0.4434 -0.2805
  124CHL1  H16A15384   2.792   5.193   4.496 -1.6522 -0.8396 -1.7422
  124CHL1  H16B15385   2.949   5.208   4.435 -0.5577 -0.6019  1.3535
  124CHL1   C1715386   2.855   5.384   4.387  0.3514 -1.0024 -0.2859
  124CHL1   H1715387   2.964   5.397   4.369  0.6136 -1.0714  1.1044
  124CHL1   C1315388   2.780   5.414   4.250  0.2579 -0.1017 -0.7259
  124CHL1   C1815389   2.621   5.428   4.287 -0.0970 -0.1412  0.3814
  124CHL1  H18A15390   2.596   5.525   4.335 -0.2619  1.4233 -2.6126
  124CHL1  H18B15391   2.566   5.414   4.191  1.3427 -3.8693 -0.0351
  124CHL1  H18C15392   2.587   5.350   4.357 -1.2154 -0.8727 -0.9338
  124CHL1   C1215393   2.831   5.527   4.165  0.4619 -0.1439 -0.3155
  124CHL1  H12A15394   2.828   5.623   4.221  1.0166 -1.3455  1.8708
  124CHL1  H12B15395   2.941   5.513   4.149  0.9960  1.4604  1.6385
  124CHL1   C1115396   2.756   5.529   4.034 -0.2849 -0.0892  0.3396
  124CHL1  H11A15397   2.649   5.559   4.033 -0.4592 -0.5900 -2.0588
  124CHL1  H11B15398   2.808   5.604   3.971  0.4145 -1.1159 -0.3276
  124CHL1    C915399   2.747   5.393   3.955  0.8158 -0.1604 -0.9695
  124CHL1    H915400   2.855   5.385   3.928  2.1356  2.4731  2.7250
  124CHL1   C1015401   2.653   5.399   3.828 -0.4507 -0.2116 -0.3068
  124CHL1   C1915402   2.503   5.430   3.866  0.4306  0.4338 -0.4511
  124CHL1  H19A15403   2.481   5.534   3.898  0.6385  0.6568 -1.0167
  124CHL1  H19B15404   2.443   5.420   3.773 -2.4147  2.0026  1.0833
  124CHL1  H19C15405   2.459   5.358   3.939 -2.6779 -0.2769 -2.7778
  124CHL1    C115406   2.700   5.511   3.727 -0.7435  0.2248 -0.1871
  124CHL1   H1A15407   2.662   5.604   3.773 -1.7541 -0.1907 -0.1652
  124CHL1   H1B15408   2.810   5.526   3.716 -0.5642  0.1118  1.2632
  124CHL1    C215409   2.653   5.500   3.582  0.4638  0.4412 -0.0790
  124CHL1   H2A15410   2.715   5.573   3.525  0.8679  0.5568  0.5085
  124CHL1   H2B15411   2.544   5.522   3.580  0.1507 -1.0607 -1.2862
  124CHL1   C2015412   2.811   5.468   4.512 -0.5799 -0.3433  0.6155
  124CHL1   H2015413   2.700   5.462   4.514 -0.7959  1.3327 -1.7115
  124CHL1   C2115414   2.851   5.611   4.497 -0.2255 -0.1004  0.6082
  124CHL1  H21A15415   2.789   5.660   4.419  3.1168  0.2790 -2.0660
  124CHL1  H21B15416   2.961   5.617   4.478 -0.4213 -1.5188 -1.3350
  124CHL1  H21C15417   2.826   5.673   4.586 -0.9398 -2.0214  1.8145
  124CHL1   C2215418   2.862   5.413   4.646  0.0900  0.1376  0.1619
  124CHL1  H22A15419   2.925   5.325   4.621 -0.6881 -0.4359  0.1708
  124CHL1  H22B15420   2.926   5.488   4.696  1.0438  2.0387 -3.5968
  124CHL1   C2315421   2.745   5.387   4.738 -0.2963 -0.0267  0.8487
  124CHL1  H23A15422   2.684   5.479   4.746  0.0476  0.2096  0.7473
  124CHL1  H23B15423   2.682   5.312   4.686  0.0483  0.5160 -0.3877
  124CHL1   C2415424   2.786   5.348   4.888  0.1313  1.5681 -0.9969
  124CHL1  H24A15425   2.844   5.254   4.902 -1.2296  0.7608 -0.6686
  124CHL1  H24B15426   2.851   5.434   4.916  0.1418  1.1949  0.1515
  124CHL1   C2515427   2.668   5.346   4.995  0.8336 -0.2144  1.1083
  124CHL1   H2515428   2.597   5.424   4.962 -0.3168 -2.0251 -0.9677
  124CHL1   C2615429   2.598   5.209   4.984  0.4550  0.1808  0.1715
  124CHL1  H26A15430   2.595   5.183   4.876 -1.5682  1.4581 -0.1325
  124CHL1  H26B15431   2.658   5.130   5.033 -0.8999 -1.2314 -0.3972
  124CHL1  H26C15432   2.503   5.229   5.037  0.3906  0.4646 -0.0481
  124CHL1   C2715433   2.715   5.379   5.140  0.5603  0.3036 -0.1800
  124CHL1  H27A15434   2.744   5.486   5.144  0.6786  0.3260 -1.4039
  124CHL1  H27B15435   2.633   5.359   5.213  1.2469 -0.5911  0.3813
  124CHL1  H27C15436   2.801   5.321   5.181  0.6765  0.4398 -0.2325
  125CHL1    C315437   3.505   5.007   3.269  0.1897  0.4772 -0.6061
  125CHL1    H315438   3.407   5.055   3.287  0.1945  0.4933 -0.6221
  125CHL1    O315439   3.515   4.966   3.131  0.2034 -0.4436  0.0978
  125CHL1   H3'15440   3.594   4.913   3.132  0.9637  0.5195 -2.1872
  125CHL1    C415441   3.611   5.105   3.311  0.3375 -0.0036  0.5864
  125CHL1   H4A15442   3.713   5.069   3.284  0.1682 -0.1759  0.1773
  125CHL1   H4B15443   3.582   5.195   3.254  0.7668 -0.7629 -0.8762
  125CHL1    C515444   3.613   5.124   3.464 -0.2677  0.1332  0.0236
  125CHL1    C615445   3.593   5.247   3.517  0.4010  0.0533  0.2046
  125CHL1    H615446   3.576   5.326   3.442  0.1506 -1.5150 -1.4713
  125CHL1    C715447   3.603   5.268   3.666 -0.1690  0.3470  0.1136
  125CHL1   H7A15448   3.677   5.350   3.675 -1.6761  1.9700 -1.6432
  125CHL1   H7B15449   3.507   5.295   3.714  0.3937 -1.2735  2.3608
  125CHL1    C815450   3.663   5.151   3.752  0.3739 -0.3797  0.6588
  125CHL1    H815451   3.770   5.142   3.722  0.4787  0.5096  0.7433
  125CHL1   C1415452   3.641   5.168   3.897 -0.0564 -0.8167 -0.9042
  125CHL1   H1415453   3.530   5.175   3.903 -0.0453  0.0899 -1.6430
  125CHL1   C1515454   3.710   5.290   3.960  0.7147 -0.1815  0.1279
  125CHL1  H15A15455   3.817   5.295   3.931  0.6307  1.0352 -0.0098
  125CHL1  H15B15456   3.665   5.387   3.931  1.4659 -0.0511 -0.6143
  125CHL1   C1615457   3.706   5.279   4.111 -0.0541  0.4050 -0.4268
  125CHL1  H16A15458   3.814   5.288   4.137 -0.0940  0.0212 -0.1179
  125CHL1  H16B15459   3.646   5.358   4.160 -1.8843 -0.4574 -1.2064
  125CHL1   C1715460   3.654   5.133   4.130 -0.4567  0.3649 -0.5423
  125CHL1   H1715461   3.544   5.145   4.140 -0.3265  1.3951 -0.2570
  125CHL1   C1315462   3.674   5.054   3.995 -0.6856  0.5693 -0.1015
  125CHL1   C1815463   3.831   5.029   3.993  0.2003  0.3641 -0.4145
  125CHL1  H18A15464   3.850   4.924   4.022  1.4376 -0.2240 -3.0538
  125CHL1  H18B15465   3.859   5.014   3.886  0.8961 -1.3982 -0.0127
  125CHL1  H18C15466   3.896   5.097   4.052  1.0196 -3.0099  2.9499
  125CHL1   C1215467   3.595   4.932   3.959 -0.2877  0.3165  0.1758
  125CHL1  H12A15468   3.604   4.840   4.021  2.0945  0.6360  0.4043
  125CHL1  H12B15469   3.491   4.969   3.967 -0.8873 -1.4550  1.3203
  125CHL1   C1115470   3.620   4.901   3.808 -1.1281 -0.2894 -0.0755
  125CHL1  H11A15471   3.721   4.859   3.790 -1.9758 -1.6264 -2.0754
  125CHL1  H11B15472   3.554   4.819   3.773  0.1878 -1.3861 -0.0466
  125CHL1    C915473   3.588   5.022   3.713  0.0153 -0.4834  0.0246
  125CHL1    H915474   3.480   5.047   3.717  0.4514  1.5211  0.0680
  125CHL1   C1015475   3.616   5.000   3.557  0.4995  0.4230  0.4829
  125CHL1   C1915476   3.754   4.936   3.541  0.0247  0.6156 -0.3667
  125CHL1  H19A15477   3.777   4.939   3.432  1.0349  0.3241 -0.1736
  125CHL1  H19B15478   3.840   4.979   3.596  1.0244 -2.8090  1.0467
  125CHL1  H19C15479   3.754   4.829   3.572  2.0745  0.8198  0.4954
  125CHL1    C115480   3.503   4.912   3.502 -0.4397  0.3684 -0.1353
  125CHL1   H1A15481   3.498   4.812   3.551  3.1714  1.1138  2.1799
  125CHL1   H1B15482   3.401   4.952   3.513 -0.9693 -0.3352 -2.1057
  125CHL1    C215483   3.505   4.880   3.351 -0.3921 -0.4768  0.4984
  125CHL1   H2A15484   3.430   4.807   3.314  0.1462 -0.9675  0.3584
  125CHL1   H2B15485   3.597   4.820   3.334  0.2332  0.4624  0.5018
  125CHL1   C2015486   3.708   5.067   4.262  0.0101  0.3708 -0.2724
  125CHL1   H2015487   3.817   5.046   4.258  0.4502  2.5227 -0.6420
  125CHL1   C2115488   3.634   4.936   4.297 -0.1015 -0.0403 -0.3306
  125CHL1  H21A15489   3.524   4.939   4.315 -0.4024 -2.6368 -1.2255
  125CHL1  H21B15490   3.686   4.894   4.385 -0.9709 -2.5809 -0.9417
  125CHL1  H21C15491   3.661   4.871   4.210  3.4870  1.0371 -0.1669
  125CHL1   C2215492   3.689   5.166   4.386 -0.4712 -0.1559  0.4418
  125CHL1  H22A15493   3.742   5.260   4.357 -0.5478 -0.5248 -0.9905
  125CHL1  H22B15494   3.582   5.180   4.411 -0.1828  0.6919  1.2247
  125CHL1   C2315495   3.769   5.117   4.505 -0.6828 -0.2861 -0.0931
  125CHL1  H23A15496   3.735   5.017   4.540  2.3204 -0.6826  2.0892
  125CHL1  H23B15497   3.874   5.092   4.475 -0.8987 -1.8752  0.3650
  125CHL1   C2415498   3.757   5.215   4.616 -0.1390 -0.8219  0.3372
  125CHL1  H24A15499   3.811   5.309   4.592  1.6250 -1.4970  1.4596
  125CHL1  H24B15500   3.649   5.234   4.629 -0.0688 -0.7071  0.7666
  125CHL1   C2515501   3.814   5.145   4.743  0.0435 -0.2495  0.0643
  125CHL1   H2515502   3.783   5.038   4.740 -2.2180  0.3804 -1.3156
  125CHL1   C2615503   3.964   5.158   4.742 -0.1770 -0.2293  0.2584
  125CHL1  H26A15504   4.017   5.114   4.829 -1.0933 -1.3429  0.2794
  125CHL1  H26B15505   4.001   5.111   4.648  0.8314  1.1160 -0.0568
  125CHL1  H26C15506   4.003   5.262   4.736 -0.9402  0.0375 -0.2069
  125CHL1   C2715507   3.763   5.220   4.867 -0.1053 -0.6314  0.3812
  125CHL1  H27A15508   3.652   5.222   4.863 -0.1531 -2.1437  0.4184
  125CHL1  H27B15509   3.784   5.171   4.964 -0.2757  0.7741  1.1530
  125CHL1  H27C15510   3.808   5.322   4.864  0.9450 -1.0763  0.6061
  126CHL1    C315511   2.277   5.971   3.479  0.7440  0.2709 -0.5470
  126CHL1    H315512   2.312   6.076   3.492  3.6850 -0.6257 -0.5619
  126CHL1    O315513   2.247   5.958   3.337  0.2351  0.1330 -0.0039
  126CHL1   H3'15514   2.329   5.947   3.289 -0.2823  0.1505 -0.9300
  126CHL1    C415515   2.392   5.873   3.511  0.6941  0.3135  0.1518
  126CHL1   H4A15516   2.347   5.774   3.490 -0.5629  1.0341 -0.7005
  126CHL1   H4B15517   2.479   5.879   3.443  0.9220 -0.6157  0.3574
  126CHL1    C515518   2.441   5.877   3.652  0.2120 -0.1454 -0.3097
  126CHL1    C615519   2.574   5.887   3.685  0.1261 -0.1771  0.2305
  126CHL1    H615520   2.648   5.885   3.603  1.2868 -0.3607  1.2528
  126CHL1    C715521   2.621   5.903   3.826  0.1638  0.2306  0.4826
  126CHL1   H7A15522   2.719   5.850   3.837 -0.1401 -0.5216 -0.3282
  126CHL1   H7B15523   2.637   6.013   3.835 -1.4749  0.4644  0.7768
  126CHL1    C815524   2.520   5.870   3.932 -0.2898 -0.4467  0.3187
  126CHL1    H815525   2.526   5.760   3.945  0.5550 -0.2008  2.4032
  126CHL1   C1415526   2.568   5.922   4.066 -0.0299 -0.7947  0.3988
  126CHL1   H1415527   2.567   6.032   4.056  1.4667 -0.6612  1.4170
  126CHL1   C1515528   2.711   5.883   4.108  0.6932 -0.0250 -0.6601
  126CHL1  H15A15529   2.712   5.772   4.108  0.2510 -0.1241  2.4721
  126CHL1  H15B15530   2.798   5.922   4.051  2.4755 -0.5280  1.5671
  126CHL1   C1615531   2.710   5.928   4.257  0.5370 -0.3286 -0.6508
  126CHL1  H16A15532   2.749   5.844   4.320  0.7975  0.1763 -0.1270
  126CHL1  H16B15533   2.785   6.007   4.279  0.9822 -1.1768  1.0908
  126CHL1   C1715534   2.565   5.960   4.289  0.7108 -0.2058 -0.8378
  126CHL1   H1715535   2.557   6.070   4.274 -0.1435  0.0875  1.3716
  126CHL1   C1315536   2.475   5.889   4.182 -0.1281 -0.2348 -0.5437
  126CHL1   C1815537   2.469   5.736   4.218 -0.1005  0.4002 -0.6577
  126CHL1  H18A15538   2.463   5.664   4.134  0.6616 -2.3403  1.4772
  126CHL1  H18B15539   2.550   5.707   4.288 -0.6929  0.1855 -0.0496
  126CHL1  H18C15540   2.371   5.723   4.269  0.4099  0.0240  0.2612
  126CHL1   C1215541   2.334   5.950   4.162  0.1624  0.0916  0.5093
  126CHL1  H12A15542   2.250   5.915   4.225 -0.6406 -0.6033 -0.8927
  126CHL1  H12B15543   2.327   6.061   4.162  3.0787  0.3585  0.6146
  126CHL1   C1115544   2.282   5.902   4.022 -0.0496  0.1049 -0.2464
  126CHL1  H11A15545   2.266   5.792   4.024 -0.5585  0.1567 -1.0712
  126CHL1  H11B15546   2.186   5.954   4.001 -0.2402 -0.3121 -0.4158
  126CHL1    C915547   2.379   5.918   3.896 -0.1209 -0.3799  0.0135
  126CHL1    H915548   2.393   6.028   3.892  0.1914 -0.3965  0.6688
  126CHL1   C1015549   2.326   5.881   3.755 -0.5688  0.5763 -0.3004
  126CHL1   C1915550   2.279   5.731   3.759 -0.3110 -0.1805 -0.2401
  126CHL1  H19A15551   2.368   5.669   3.785 -0.0238  0.4065  0.1976
  126CHL1  H19B15552   2.196   5.704   3.828 -0.7346 -0.0657 -0.6997
  126CHL1  H19C15553   2.250   5.706   3.655 -2.8304 -0.8996  0.5733
  126CHL1    C115554   2.196   5.954   3.714  0.8230  0.5048  0.9018
  126CHL1   H1A15555   2.105   5.934   3.775  1.3567  1.0817  1.9249
  126CHL1   H1B15556   2.213   6.060   3.744 -0.2293  1.1084 -0.5289
  126CHL1    C215557   2.158   5.949   3.564 -0.1428 -0.1904 -0.4866
  126CHL1   H2A15558   2.089   6.032   3.538 -0.2709 -1.0426 -3.1935
  126CHL1   H2B15559   2.108   5.851   3.546 -2.6069  0.5427  1.6398
  126CHL1   C2015560   2.532   5.938   4.437  0.3795  0.3071 -0.7367
  126CHL1   H2015561   2.504   5.835   4.466 -1.7029  1.1332  0.4554
  126CHL1   C2115562   2.406   6.014   4.477 -0.3991  0.3762  0.4680
  126CHL1  H21A15563   2.433   6.120   4.458 -0.9974  0.5299  0.4628
  126CHL1  H21B15564   2.371   5.992   4.580 -0.6443 -1.5724  0.0012
  126CHL1  H21C15565   2.321   5.977   4.416 -1.5021 -1.8545  3.1386
  126CHL1   C2215566   2.650   5.966   4.536  0.1233 -0.1784  0.7063
  126CHL1  H22A15567   2.738   5.905   4.506  0.0100  0.2671 -0.6079
  126CHL1  H22B15568   2.691   6.069   4.527  0.6324 -0.4849 -0.8312
  126CHL1   C2315569   2.635   5.927   4.682  0.5178  0.0695 -0.4747
  126CHL1  H23A15570   2.547   5.966   4.737  1.0383 -0.4251  0.7436
  126CHL1  H23B15571   2.638   5.816   4.685 -0.5202  0.0483  0.4673
  126CHL1   C2415572   2.766   5.965   4.747 -0.6685  0.3610 -0.2520
  126CHL1  H24A15573   2.854   5.953   4.681 -0.5424 -0.3085  0.0316
  126CHL1  H24B15574   2.764   6.073   4.775  0.1975  0.5245 -0.8020
  126CHL1   C2515575   2.801   5.909   4.890 -0.3293  0.2891 -0.1857
  126CHL1   H2515576   2.708   5.919   4.950 -0.7967  0.1359 -0.8717
  126CHL1   C2615577   2.848   5.769   4.886 -0.2414  0.6645 -0.1424
  126CHL1  H26A15578   2.951   5.763   4.845 -1.0593  0.1888 -2.2236
  126CHL1  H26B15579   2.845   5.721   4.986  2.5756 -1.4347 -0.9321
  126CHL1  H26C15580   2.791   5.702   4.819  2.5745 -2.1035 -0.0066
  126CHL1   C2715581   2.903   5.997   4.963  0.1044  0.5531  0.1416
  126CHL1  H27A15582   2.860   6.096   4.988  4.7130  2.7337  0.4678
  126CHL1  H27B15583   2.936   5.947   5.057 -1.7748 -0.7810  0.1523
  126CHL1  H27C15584   2.994   6.017   4.902 -0.7031  2.0039 -0.6452
  127CHL1    C315585   4.835   6.776   3.370 -1.0055  0.2915  0.7726
  127CHL1    H315586   4.741   6.833   3.353 -0.7696  0.1294 -1.3780
  127CHL1    O315587   4.922   6.806   3.260  0.2692 -0.6273  0.0097
  127CHL1   H3'15588   5.004   6.771   3.294  2.2744  3.5063 -0.1038
  127CHL1    C415589   4.907   6.820   3.498  0.2295 -0.4630 -0.4296
  127CHL1   H4A15590   5.013   6.786   3.495  0.4772  0.3543 -1.3654
  127CHL1   H4B15591   4.914   6.930   3.492 -1.4611  0.0287  3.4251
  127CHL1    C515592   4.841   6.781   3.632  0.0036 -0.6970  0.4427
  127CHL1    C615593   4.823   6.867   3.732 -0.0849 -0.5456 -0.0539
  127CHL1    H615594   4.858   6.970   3.721 -1.0410 -0.1172  0.7254
  127CHL1    C715595   4.773   6.837   3.870  0.1899 -0.5614 -0.4850
  127CHL1   H7A15596   4.850   6.877   3.940 -0.6967  0.1297  0.1279
  127CHL1   H7B15597   4.673   6.876   3.900  0.9310  1.8329 -0.8806
  127CHL1    C815598   4.771   6.685   3.883 -0.4575 -0.5276 -0.2387
  127CHL1    H815599   4.876   6.655   3.904 -0.7480  0.1568  2.6749
  127CHL1   C1415600   4.698   6.650   4.016  0.0787 -0.1009 -0.2488
  127CHL1   H1415601   4.591   6.680   4.007  0.0546  0.8448  2.1955
  127CHL1   C1515602   4.740   6.732   4.136 -0.3709 -0.8169 -0.1893
  127CHL1  H15A15603   4.850   6.745   4.143 -0.5315  1.5191 -1.1848
  127CHL1  H15B15604   4.696   6.834   4.134  1.7837  0.2558  1.9793
  127CHL1   C1615605   4.681   6.651   4.256  0.4407  0.6470 -0.2747
  127CHL1  H16A15606   4.764   6.617   4.322  1.4455  4.0270  0.3859
  127CHL1  H16B15607   4.612   6.701   4.327  0.9296 -2.0024  2.3151
  127CHL1   C1715608   4.615   6.522   4.190  0.1878  0.3357  0.2394
  127CHL1   H1715609   4.513   6.555   4.160  0.0364  1.3267  1.7273
  127CHL1   C1315610   4.696   6.503   4.059 -0.1688  0.1670  0.1092
  127CHL1   C1815611   4.845   6.454   4.089  0.2348 -0.6185  0.0551
  127CHL1  H18A15612   4.912   6.473   4.002 -1.3172  1.5676 -0.7598
  127CHL1  H18B15613   4.882   6.511   4.176  1.4760 -0.6061 -0.4608
  127CHL1  H18C15614   4.844   6.345   4.110  1.0497 -0.2062  2.5008
  127CHL1   C1215615   4.639   6.427   3.942  1.1320  0.1048 -0.5961
  127CHL1  H12A15616   4.643   6.319   3.967  0.9599  0.4771  1.1372
  127CHL1  H12B15617   4.532   6.450   3.923  0.3530 -0.5960  2.4137
  127CHL1   C1115618   4.713   6.457   3.808 -0.4651 -0.4858  0.1081
  127CHL1  H11A15619   4.816   6.422   3.831  0.3778  1.7010 -0.1197
  127CHL1  H11B15620   4.680   6.395   3.721  0.2778  1.9517 -2.0423
  127CHL1    C915621   4.715   6.605   3.769 -0.3247 -0.2660  0.6548
  127CHL1    H915622   4.615   6.648   3.749  0.2396  0.5933 -0.4621
  127CHL1   C1015623   4.800   6.633   3.640 -0.2837 -0.2609  0.0874
  127CHL1   C1915624   4.939   6.564   3.653  0.2321  0.5566 -0.2053
  127CHL1  H19A15625   4.997   6.602   3.740 -0.3141 -0.0239  0.4147
  127CHL1  H19B15626   4.929   6.454   3.649  0.1717  0.5538  0.0363
  127CHL1  H19C15627   4.998   6.587   3.561 -0.1024 -0.4407 -0.6738
  127CHL1    C115628   4.728   6.588   3.509  0.0122 -0.7563 -0.3016
  127CHL1   H1A15629   4.717   6.477   3.511 -0.4776 -0.7002  1.0882
  127CHL1   H1B15630   4.627   6.635   3.510  0.2399 -0.2715  0.1309
  127CHL1    C215631   4.794   6.629   3.378 -0.0467  0.3048  0.1192
  127CHL1   H2A15632   4.732   6.619   3.287 -1.5453  1.9726  0.9069
  127CHL1   H2B15633   4.883   6.562   3.373  0.7446  1.0718  2.3651
  127CHL1   C2015634   4.604   6.397   4.282  0.5565  0.2089  0.2591
  127CHL1   H2015635   4.699   6.340   4.269  0.3514  0.0385 -0.5403
  127CHL1   C2115636   4.494   6.305   4.222  0.4030 -0.4275 -0.5394
  127CHL1  H21A15637   4.525   6.258   4.126 -1.9915  0.2773 -1.7108
  127CHL1  H21B15638   4.392   6.346   4.208  0.3773 -0.8476 -1.6687
  127CHL1  H21C15639   4.489   6.217   4.291 -1.4138 -0.0338 -0.1379
  127CHL1   C2215640   4.577   6.420   4.426  0.3442  0.0844  0.0882
  127CHL1  H22A15641   4.575   6.326   4.486  2.0163  1.6080  2.7539
  127CHL1  H22B15642   4.652   6.488   4.471  0.4562 -1.1096  1.8163
  127CHL1   C2315643   4.439   6.487   4.456 -0.2848  0.1823 -0.5607
  127CHL1  H23A15644   4.437   6.582   4.399  0.0364  0.7766  0.3956
  127CHL1  H23B15645   4.360   6.414   4.427 -1.9270  1.3208  0.8529
  127CHL1   C2415646   4.428   6.516   4.604  0.3878  0.1351 -0.6123
  127CHL1  H24A15647   4.429   6.425   4.668 -1.2882  2.3094  2.8017
  127CHL1  H24B15648   4.522   6.567   4.632 -0.1693 -0.0547  1.7651
  127CHL1   C2515649   4.301   6.598   4.646 -0.2007 -0.6322  0.0177
  127CHL1   H2515650   4.214   6.557   4.589 -0.2604 -0.5613  0.0566
  127CHL1   C2615651   4.281   6.599   4.800 -0.8323  0.1395 -0.2775
  127CHL1  H26A15652   4.203   6.675   4.825 -1.6946 -0.4275 -1.1911
  127CHL1  H26B15653   4.241   6.502   4.835 -1.7466  0.1790 -1.1546
  127CHL1  H26C15654   4.377   6.616   4.853 -0.3968 -2.1881 -0.2396
  127CHL1   C2715655   4.323   6.740   4.594 -0.3547 -0.1762  0.1847
  127CHL1  H27A15656   4.350   6.753   4.486  2.6512  1.2049  0.9756
  127CHL1  H27B15657   4.231   6.799   4.613 -1.6649 -1.4482 -1.7306
  127CHL1  H27C15658   4.406   6.791   4.647  1.5911 -0.3528 -2.4733
  128CHL1    C315659   4.061   1.223   3.312  0.4750 -0.2897 -0.2680
  128CHL1    H315660   3.953   1.204   3.332  1.0825 -2.3220  1.3610
  128CHL1    O315661   4.069   1.235   3.172 -0.1299  0.6337  0.6191
  128CHL1   H3'15662   4.160   1.259   3.151 -0.0648  0.2325  0.4285
  128CHL1    C415663   4.097   1.354   3.385  0.1882 -0.7058  0.2153
  128CHL1   H4A15664   4.190   1.393   3.338  0.5225 -0.8193  0.7792
  128CHL1   H4B15665   4.013   1.421   3.354  0.1159 -1.3828 -1.1195
  128CHL1    C515666   4.105   1.337   3.537  1.0617 -0.0807 -0.1096
  128CHL1    C615667   4.027   1.405   3.625  0.3699  0.2758  0.1620
  128CHL1    H615668   3.936   1.451   3.586 -0.4374 -0.0505  1.5743
  128CHL1    C715669   4.037   1.394   3.774  0.2514 -0.4515 -0.4845
  128CHL1   H7A15670   4.018   1.491   3.826 -1.5579 -0.2576 -1.4292
  128CHL1   H7B15671   3.955   1.325   3.805  0.2285 -0.4299 -0.4972
  128CHL1    C815672   4.167   1.322   3.821 -0.0261  0.2495  0.0806
  128CHL1    H815673   4.248   1.395   3.799  0.4108  0.2776  1.7016
  128CHL1   C1415674   4.169   1.291   3.965  0.4023 -0.2600  0.3100
  128CHL1   H1415675   4.084   1.226   3.994  0.6447 -0.5106  0.4675
  128CHL1   C1515676   4.137   1.412   4.060  0.5102 -0.0297 -0.9583
  128CHL1  H15A15677   4.189   1.498   4.013  1.0057  0.4244  0.3751
  128CHL1  H15B15678   4.030   1.439   4.070  0.3541 -0.8607 -0.1580
  128CHL1   C1615679   4.196   1.373   4.196 -0.2115  0.6383 -0.1775
  128CHL1  H16A15680   4.267   1.454   4.225  0.8407 -0.1904 -0.3799
  128CHL1  H16B15681   4.127   1.367   4.282  0.7069  1.0210  0.6143
  128CHL1   C1715682   4.268   1.237   4.180  0.0316 -0.0470 -0.2976
  128CHL1   H1715683   4.201   1.149   4.192  0.2277 -0.0557  0.8085
  128CHL1   C1315684   4.294   1.227   4.022  0.0946  0.2453  0.4772
  128CHL1   C1815685   4.413   1.313   3.990 -0.4074 -0.2718  0.6126
  128CHL1  H18A15686   4.416   1.408   4.049  1.8471  0.1878 -0.1622
  128CHL1  H18B15687   4.505   1.256   4.014  1.2181  2.5478  1.5146
  128CHL1  H18C15688   4.416   1.344   3.883 -0.3722 -1.3045  0.3093
  128CHL1   C1215689   4.302   1.089   3.957 -0.1068  0.3196 -0.4633
  128CHL1  H12A15690   4.383   1.020   3.988 -0.7858 -0.5853 -0.6532
  128CHL1  H12B15691   4.206   1.045   3.994 -0.2762 -0.3193 -1.6139
  128CHL1   C1115692   4.309   1.107   3.806 -0.1883 -0.9853  0.2592
  128CHL1  H11A15693   4.407   1.151   3.778 -0.0159 -2.6526 -2.0695
  128CHL1  H11B15694   4.287   1.013   3.751  0.7380 -0.9130 -0.2757
  128CHL1    C915695   4.192   1.199   3.743  0.2533 -0.4524 -0.1391
  128CHL1    H915696   4.098   1.139   3.749 -0.7009  1.1416  3.3338
  128CHL1   C1015697   4.201   1.220   3.589  0.9971 -0.3584  0.0049
  128CHL1   C1915698   4.339   1.272   3.550 -0.9286 -0.0743  0.1378
  128CHL1  H19A15699   4.343   1.319   3.450 -2.9492  1.8785  0.8901
  128CHL1  H19B15700   4.379   1.349   3.619 -2.1778  0.8214 -0.0913
  128CHL1  H19C15701   4.404   1.183   3.545 -1.1922 -0.2166 -1.0423
  128CHL1    C115702   4.166   1.088   3.511  0.0643 -0.1520  0.1836
  128CHL1   H1A15703   4.251   1.025   3.544 -0.3760 -0.6208  0.4406
  128CHL1   H1B15704   4.074   1.041   3.552  0.4153 -0.6185  0.4502
  128CHL1    C215705   4.153   1.109   3.361 -0.1860 -0.1753  0.2995
  128CHL1   H2A15706   4.128   1.013   3.312  0.5869 -0.3556  0.2460
  128CHL1   H2B15707   4.257   1.137   3.333  0.1523  1.1195  2.5590
  128CHL1   C2015708   4.383   1.215   4.277  0.0994  0.3098 -0.1223
  128CHL1   H2015709   4.454   1.299   4.286  2.6404 -1.7469  0.0657
  128CHL1   C2115710   4.470   1.087   4.246 -0.1572  0.4768 -0.0751
  128CHL1  H21A15711   4.415   0.996   4.279  1.5271 -0.2561  0.8494
  128CHL1  H21B15712   4.570   1.084   4.295 -0.5005 -2.2523  0.6437
  128CHL1  H21C15713   4.503   1.094   4.140  1.4656  2.2048  0.4868
  128CHL1   C2215714   4.324   1.213   4.420  0.0203  0.7599 -0.2385
  128CHL1  H22A15715   4.287   1.315   4.442 -0.7406  0.7215 -1.3286
  128CHL1  H22B15716   4.235   1.148   4.431 -0.4321  1.5515  1.0379
  128CHL1   C2315717   4.426   1.171   4.528  0.0322 -0.7035 -0.3947
  128CHL1  H23A15718   4.466   1.069   4.507 -0.0168 -1.0985  1.3437
  128CHL1  H23B15719   4.516   1.235   4.517 -0.6501  0.0959 -1.6850
  128CHL1   C2415720   4.357   1.183   4.662 -0.3328 -0.2035 -0.2442
  128CHL1  H24A15721   4.321   1.286   4.686  0.9316  0.3662 -0.7576
  128CHL1  H24B15722   4.261   1.128   4.648  0.1880 -0.7199 -1.9679
  128CHL1   C2515723   4.445   1.127   4.777 -0.2147 -0.2861  0.2093
  128CHL1   H2515724   4.493   1.035   4.739 -0.6913 -0.7365  0.6894
  128CHL1   C2615725   4.544   1.237   4.832  0.8195 -0.6283  0.0632
  128CHL1  H26A15726   4.612   1.197   4.910 -1.2155  0.5104  2.5512
  128CHL1  H26B15727   4.604   1.277   4.748 -1.1595 -0.0570 -1.1622
  128CHL1  H26C15728   4.489   1.315   4.888 -0.9332 -2.1103  0.5294
  128CHL1   C2715729   4.365   1.082   4.905 -0.7671 -0.0394 -0.0024
  128CHL1  H27A15730   4.309   0.992   4.872  0.7407 -1.4359  1.1130
  128CHL1  H27B15731   4.438   1.052   4.983 -0.5510 -0.7214 -0.4621
  128CHL1  H27C15732   4.292   1.160   4.937 -0.3063  0.7521 -0.8422
  129CHL1    C315733   6.044   6.560   3.239 -0.2364 -0.0711 -0.4677
  129CHL1    H315734   6.151   6.545   3.264 -1.0889 -1.4757  2.9215
  129CHL1    O315735   6.014   6.512   3.111  0.1548  0.0351  0.7487
  129CHL1   H3'15736   5.919   6.523   3.115  0.0959 -0.0674 -0.1671
  129CHL1    C415737   5.956   6.485   3.333 -0.0288  0.7479  0.1802
  129CHL1   H4A15738   5.851   6.504   3.302  0.8245  1.1023 -2.8245
  129CHL1   H4B15739   5.970   6.378   3.306 -1.9450  0.9337 -1.9081
  129CHL1    C515740   5.973   6.522   3.478 -0.1668 -0.1681  0.3577
  129CHL1    C615741   6.011   6.432   3.569  0.5552  0.0310  0.2107
  129CHL1    H615742   6.026   6.328   3.537  0.3627 -0.1423  0.6666
  129CHL1    C715743   6.033   6.463   3.713  0.3374  0.5060 -0.1697
  129CHL1   H7A15744   5.971   6.397   3.777 -1.1031  0.6768 -1.3305
  129CHL1   H7B15745   6.141   6.461   3.739  0.2596  0.6586  0.1736
  129CHL1    C815746   6.001   6.613   3.747 -0.3515  0.7468 -0.2051
  129CHL1    H815747   5.894   6.619   3.776 -0.0000  2.4242  0.8936
  129CHL1   C1415748   6.084   6.654   3.868  0.2210  0.4775  0.5328
  129CHL1   H1415749   6.191   6.658   3.836  1.1212 -1.1334  3.0341
  129CHL1   C1515750   6.094   6.552   3.986  0.2140 -0.0820  0.7587
  129CHL1  H15A15751   5.991   6.521   4.014  0.6885 -2.6810 -0.1315
  129CHL1  H15B15752   6.161   6.469   3.956  1.7899  0.7570  1.8308
  129CHL1   C1615753   6.155   6.634   4.097  0.4963 -0.0243  0.0608
  129CHL1  H16A15754   6.092   6.612   4.186  0.6735  0.6840  0.3635
  129CHL1  H16B15755   6.257   6.609   4.133 -0.3812 -0.0742  2.7903
  129CHL1   C1715756   6.150   6.787   4.052  0.2051  1.0289  0.3682
  129CHL1   H1715757   6.248   6.802   4.001  0.4394 -0.1089  0.4541
  129CHL1   C1315758   6.055   6.789   3.923  0.0935  0.5652 -0.1777
  129CHL1   C1815759   5.910   6.797   3.964  0.4157 -0.3939  0.3989
  129CHL1  H18A15760   5.891   6.727   4.048  0.2762 -0.7229  0.0954
  129CHL1  H18B15761   5.894   6.899   4.006 -0.8843 -0.1931 -0.5476
  129CHL1  H18C15762   5.844   6.780   3.876  0.6852  0.5048  0.0130
  129CHL1   C1215763   6.081   6.887   3.807 -0.5466  0.3522  0.3292
  129CHL1  H12A15764   6.050   6.986   3.847  2.1730  0.5807  2.1832
  129CHL1  H12B15765   6.190   6.893   3.786 -1.1677  1.9114 -3.2896
  129CHL1   C1115766   6.007   6.862   3.674  0.0841  0.5769 -0.1484
  129CHL1  H11A15767   5.900   6.878   3.696  0.2390  1.4983 -0.0181
  129CHL1  H11B15768   6.042   6.934   3.596 -3.6092  1.4951 -1.1280
  129CHL1    C915769   6.032   6.713   3.633 -1.0579  0.0056 -0.3097
  129CHL1    H915770   6.140   6.711   3.607 -1.6144 -1.7598 -2.8070
  129CHL1   C1015771   5.958   6.674   3.508  0.4739  0.1780 -0.0365
  129CHL1   C1915772   5.808   6.710   3.516 -0.0214  0.9242 -0.6097
  129CHL1  H19A15773   5.794   6.815   3.483  0.6999  0.4798 -2.4178
  129CHL1  H19B15774   5.756   6.647   3.441  0.0049  2.1569 -1.6982
  129CHL1  H19C15775   5.760   6.690   3.614  0.4871  0.1398 -0.5115
  129CHL1    C115776   6.030   6.767   3.393  0.3071  0.1369  0.1064
  129CHL1   H1A15777   5.980   6.866   3.393 -0.7520 -0.3704  1.1888
  129CHL1   H1B15778   6.140   6.769   3.411  0.1878  1.3944  0.8220
  129CHL1    C215779   6.006   6.709   3.246 -0.3106  0.6323 -0.6887
  129CHL1   H2A15780   6.076   6.774   3.189  1.7158  1.3980  2.4376
  129CHL1   H2B15781   5.901   6.738   3.223 -1.6111 -1.0486  2.4140
  129CHL1   C2015782   6.134   6.886   4.169 -0.3590  0.0814  0.0703
  129CHL1   H2015783   6.040   6.856   4.219 -0.5375 -1.5670 -1.1870
  129CHL1   C2115784   6.130   7.029   4.113 -0.2034  0.6233  0.0986
  129CHL1  H21A15785   6.169   7.099   4.190  2.4062 -1.6914  1.0598
  129CHL1  H21B15786   6.026   7.052   4.080 -0.5737 -0.5102  0.4515
  129CHL1  H21C15787   6.193   7.042   4.022 -0.8404 -0.3248 -0.4931
  129CHL1   C2215788   6.247   6.868   4.275  0.9692  1.4419 -0.5247
  129CHL1  H22A15789   6.230   6.763   4.306  0.1189  1.1008 -2.0860
  129CHL1  H22B15790   6.353   6.881   4.245  0.8934  0.6954 -1.1259
  129CHL1   C2315791   6.227   6.943   4.405 -0.0011  0.2594 -0.2908
  129CHL1  H23A15792   6.234   7.052   4.385  0.1800  0.3200  0.0991
  129CHL1  H23B15793   6.121   6.929   4.437 -0.2525  2.6647  0.1110
  129CHL1   C2415794   6.332   6.898   4.507  0.4256  0.1747  0.2072
  129CHL1  H24A15795   6.328   6.788   4.521 -2.7195  0.4899  3.2067
  129CHL1  H24B15796   6.435   6.922   4.474  0.2553 -0.1716 -0.5823
  129CHL1   C2515797   6.313   6.964   4.647  0.3679  0.7195  0.2750
  129CHL1   H2515798   6.310   7.072   4.621 -3.6121  0.2773 -1.9802
  129CHL1   C2615799   6.188   6.932   4.724 -0.3813  0.0284  0.5556
  129CHL1  H26A15800   6.189   6.982   4.823  0.2062  1.4573 -0.1323
  129CHL1  H26B15801   6.094   6.949   4.667 -0.4539 -0.5398  0.5045
  129CHL1  H26C15802   6.201   6.825   4.750 -0.4119 -0.1179 -0.0016
  129CHL1   C2715803   6.435   6.929   4.734  0.7532 -0.0063  0.4435
  129CHL1  H27A15804   6.441   6.820   4.751  1.3278 -0.4178 -1.9839
  129CHL1  H27B15805   6.533   6.956   4.690  1.0215  0.7730  1.4799
  129CHL1  H27C15806   6.435   6.989   4.827  0.8041  2.9974 -1.3592
  130CHL1    C315807   4.289   6.651   3.100  0.4208  0.3527  0.9012
  130CHL1    H315808   4.241   6.747   3.128 -0.7982  0.3006 -0.8607
  130CHL1    O315809   4.322   6.672   2.959 -0.3168 -0.2643 -0.4498
  130CHL1   H3'15810   4.245   6.717   2.924 -0.2423  1.4054  1.3869
  130CHL1    C415811   4.415   6.640   3.186  0.2265 -0.1406  0.0366
  130CHL1   H4A15812   4.461   6.545   3.150 -1.7547 -1.6073  1.1452
  130CHL1   H4B15813   4.493   6.715   3.163  1.7772 -1.9165 -0.7851
  130CHL1    C515814   4.374   6.647   3.328  0.4114  0.1468 -0.6296
  130CHL1    C615815   4.415   6.740   3.407  0.3189  0.4691 -0.0579
  130CHL1    H615816   4.479   6.819   3.366  0.6947  0.4972  0.5689
  130CHL1    C715817   4.380   6.756   3.556 -0.2677 -0.3760  0.5287
  130CHL1   H7A15818   4.476   6.778   3.609  0.5358 -3.0339  0.2949
  130CHL1   H7B15819   4.314   6.846   3.556 -2.4049 -1.8897  0.4215
  130CHL1    C815820   4.314   6.626   3.611  0.2325  0.2082  0.0382
  130CHL1    H815821   4.393   6.552   3.636 -1.6074 -1.6627  0.6028
  130CHL1   C1415822   4.243   6.660   3.747 -0.2302  0.1002  1.2938
  130CHL1   H1415823   4.183   6.750   3.722  0.3332  0.4904  1.3172
  130CHL1   C1515824   4.335   6.707   3.854 -0.1849  0.1587  0.0121
  130CHL1  H15A15825   4.428   6.646   3.863  0.2657  0.7749 -0.3372
  130CHL1  H15B15826   4.361   6.815   3.852  0.7893 -0.0692 -0.9150
  130CHL1   C1615827   4.256   6.691   3.985  0.0170 -0.0626  0.1096
  130CHL1  H16A15828   4.309   6.627   4.059 -0.3977 -1.1581 -0.5179
  130CHL1  H16B15829   4.241   6.787   4.038 -2.3411 -0.2742 -0.0608
  130CHL1   C1715830   4.119   6.623   3.948 -0.0891  0.5428 -0.8426
  130CHL1   H1715831   4.056   6.714   3.940 -1.6990 -0.3438  0.8984
  130CHL1   C1315832   4.155   6.559   3.811  0.6137  0.6093 -0.1455
  130CHL1   C1815833   4.237   6.424   3.849  0.0563  0.4293 -0.0912
  130CHL1  H18A15834   4.171   6.336   3.863  1.4675 -0.7871 -0.7515
  130CHL1  H18B15835   4.311   6.393   3.772  1.1394  0.5979  0.8555
  130CHL1  H18C15836   4.299   6.430   3.941  0.1738  0.1524 -0.1491
  130CHL1   C1215837   4.046   6.510   3.713 -0.2008 -0.3189 -0.1089
  130CHL1  H12A15838   3.991   6.422   3.751  0.0611 -0.8100 -0.8358
  130CHL1  H12B15839   3.981   6.599   3.698  1.4228  0.6867 -1.5802
  130CHL1   C1115840   4.117   6.461   3.580  0.0296  0.0236 -0.0942
  130CHL1  H11A15841   4.184   6.374   3.594 -1.0075 -0.8621 -0.5225
  130CHL1  H11B15842   4.032   6.437   3.514  0.4998  2.4601 -1.7247
  130CHL1    C915843   4.207   6.576   3.513  0.1927  0.1608 -0.5255
  130CHL1    H915844   4.137   6.661   3.503  3.0571  2.9287  1.1267
  130CHL1   C1015845   4.270   6.540   3.371  0.1232  1.0397 -0.0088
  130CHL1   C1915846   4.340   6.406   3.391 -0.5845 -0.3332 -0.2309
  130CHL1  H19A15847   4.409   6.411   3.478 -2.0053 -2.2481  1.0915
  130CHL1  H19B15848   4.272   6.319   3.402  2.2530 -3.1332 -2.6508
  130CHL1  H19C15849   4.397   6.385   3.297  1.4355  3.5580 -0.0473
  130CHL1    C115850   4.151   6.530   3.273 -0.7233 -0.3271 -0.0727
  130CHL1   H1A15851   4.089   6.437   3.281 -2.3928  0.7977  0.6587
  130CHL1   H1B15852   4.091   6.623   3.285  0.1926  0.3172 -0.4209
  130CHL1    C215853   4.193   6.534   3.125  0.0659 -0.1549 -0.3742
  130CHL1   H2A15854   4.100   6.553   3.068  0.6930  0.2089 -1.3030
  130CHL1   H2B15855   4.251   6.445   3.094  1.3831  0.5465  0.0165
  130CHL1   C2015856   4.037   6.547   4.061  0.3568  0.3856  0.3901
  130CHL1   H2015857   4.057   6.438   4.053  1.2572  0.6802 -2.3836
  130CHL1   C2115858   3.893   6.575   4.022  0.1498 -0.3693 -0.0827
  130CHL1  H21A15859   3.826   6.489   4.045  1.9161 -2.3378 -1.8496
  130CHL1  H21B15860   3.889   6.593   3.913  2.7734 -1.5720 -0.4448
  130CHL1  H21C15861   3.866   6.669   4.075 -0.1265 -1.0798  1.0870
  130CHL1   C2215862   4.058   6.603   4.202 -0.1141  0.2342  0.0222
  130CHL1  H22A15863   4.160   6.581   4.240 -0.4974  0.1560  1.0460
  130CHL1  H22B15864   4.048   6.714   4.196 -1.0113  0.1914  0.4475
  130CHL1   C2315865   3.951   6.560   4.303  0.1127 -0.1180 -1.1285
  130CHL1  H23A15866   3.851   6.589   4.266  1.0826  1.2147 -2.8681
  130CHL1  H23B15867   3.963   6.453   4.330 -1.1228 -0.3615 -1.4999
  130CHL1   C2415868   3.957   6.644   4.435 -0.2577  0.1189  0.1980
  130CHL1  H24A15869   4.064   6.648   4.465  0.2932  0.5642 -1.6806
  130CHL1  H24B15870   3.924   6.746   4.406 -0.4253  0.2999  0.9968
  130CHL1   C2515871   3.882   6.589   4.554 -0.1131 -0.3946 -0.3979
  130CHL1   H2515872   3.916   6.487   4.583  0.4440 -0.1722 -0.2716
  130CHL1   C2615873   3.902   6.674   4.675 -0.0741  0.6506  0.2412
  130CHL1  H26A15874   3.860   6.776   4.661  1.1170  1.1904  0.5049
  130CHL1  H26B15875   3.843   6.625   4.755  1.0552 -1.4001 -0.1203
  130CHL1  H26C15876   4.007   6.687   4.708 -0.0213  2.9483 -0.6310
  130CHL1   C2715877   3.733   6.571   4.515 -0.7099 -0.5724 -0.5467
  130CHL1  H27A15878   3.680   6.541   4.609 -0.0543  0.8314  0.3008
  130CHL1  H27B15879   3.684   6.662   4.475 -0.9194  0.2698  1.5198
  130CHL1  H27C15880   3.722   6.484   4.446 -1.0569 -0.7364 -0.2902
  131CHL1    C315881   0.047   4.386   3.439 -1.0566  0.3377 -0.5786
  131CHL1    H315882  -0.024   4.470   3.454  1.0251  1.7979  2.0439
  131CHL1    O315883   0.086   4.350   3.305  0.3408 -0.0850  0.4330
  131CHL1   H3'15884   0.117   4.430   3.262 -0.1449  1.3224  2.5478
  131CHL1    C415885   0.167   4.448   3.512 -0.0420  0.4610  0.1348
  131CHL1   H4A15886   0.258   4.387   3.497  0.4865  0.4516  2.8876
  131CHL1   H4B15887   0.211   4.537   3.462  0.6149 -0.3482 -0.7738
  131CHL1    C515888   0.149   4.458   3.661  0.4538 -0.5417 -0.3087
  131CHL1    C615889   0.165   4.580   3.719  0.2108  0.2124  0.4658
  131CHL1    H615890   0.208   4.664   3.662  0.8501  2.5312  4.0310
  131CHL1    C715891   0.150   4.594   3.875  0.3037 -0.0928  0.1749
  131CHL1   H7A15892   0.238   4.656   3.900 -1.1527  2.3227 -0.2919
  131CHL1   H7B15893   0.058   4.656   3.889 -0.5316 -1.2054 -0.2184
  131CHL1    C815894   0.140   4.461   3.949 -0.1455 -0.4983 -0.4119
  131CHL1    H815895   0.242   4.417   3.957 -0.3535 -0.7657  0.9158
  131CHL1   C1415896   0.091   4.486   4.092  0.4695  0.0337 -0.2667
  131CHL1   H1415897  -0.014   4.520   4.084  0.4066 -0.1925 -0.4006
  131CHL1   C1515898   0.156   4.606   4.166 -0.5115 -0.5614  0.8450
  131CHL1  H15A15899   0.264   4.586   4.150 -0.6323 -2.2345  1.8598
  131CHL1  H15B15900   0.127   4.705   4.125 -1.3289  0.0474  2.7900
  131CHL1   C1615901   0.112   4.581   4.307 -0.3691  0.1782 -0.3483
  131CHL1  H16A15902   0.204   4.591   4.369 -0.8796 -2.0693  0.9039
  131CHL1  H16B15903   0.033   4.652   4.336 -0.7728  0.0626 -1.1372
  131CHL1   C1715904   0.044   4.434   4.314 -0.4527 -0.7546  0.8968
  131CHL1   H1715905  -0.064   4.456   4.303 -0.2741 -0.6684 -0.9860
  131CHL1   C1315906   0.089   4.371   4.185 -0.0585 -0.3967 -0.2343
  131CHL1   C1815907   0.236   4.316   4.207 -0.1083  0.0132  0.2061
  131CHL1  H18A15908   0.240   4.230   4.277  1.1774 -1.1923 -1.2745
  131CHL1  H18B15909   0.270   4.279   4.108  0.9827  0.3286  0.4567
  131CHL1  H18C15910   0.309   4.390   4.245  0.6498  0.0152 -1.1897
  131CHL1   C1215911   0.006   4.263   4.118  0.3987 -0.5895 -0.1548
  131CHL1  H12A15912   0.008   4.171   4.180  1.7723  0.1300  0.9136
  131CHL1  H12B15913  -0.098   4.295   4.094  1.1451  1.9750 -0.2847
  131CHL1   C1115914   0.045   4.229   3.971  0.8702 -0.2732 -1.0096
  131CHL1  H11A15915   0.144   4.179   3.979  0.4655 -0.8461  0.7270
  131CHL1  H11B15916  -0.028   4.156   3.930 -0.3210  0.2984  0.0316
  131CHL1    C915917   0.052   4.356   3.882  0.6939  0.8260 -0.2187
  131CHL1    H915918  -0.051   4.398   3.885 -0.4892 -1.7553  3.6749
  131CHL1   C1015919   0.095   4.329   3.736  0.0817 -0.0641 -0.0775
  131CHL1   C1915920   0.214   4.223   3.739  0.2615 -0.3984  0.6252
  131CHL1  H19A15921   0.236   4.207   3.631 -1.9138 -3.4599  0.4935
  131CHL1  H19B15922   0.281   4.247   3.824 -0.2451  0.6069  0.7519
  131CHL1  H19C15923   0.160   4.131   3.772 -0.1165 -0.5534 -0.3735
  131CHL1    C115924  -0.032   4.280   3.656 -0.2922 -0.2491 -0.5278
  131CHL1   H1A15925  -0.067   4.183   3.696  1.3920  0.1921  2.2887
  131CHL1   H1B15926  -0.113   4.356   3.651 -0.2505 -0.2932 -3.3140
  131CHL1    C215927   0.001   4.258   3.508  0.4610 -0.0431  0.3792
  131CHL1   H2A15928  -0.089   4.209   3.465  0.1741 -0.0673  1.0058
  131CHL1   H2B15929   0.077   4.178   3.499  0.5607 -0.1664  2.0273
  131CHL1   C2015930   0.062   4.364   4.449 -0.4063  0.2907 -0.1360
  131CHL1   H2015931   0.171   4.342   4.453 -0.4461  0.2954  2.5924
  131CHL1   C2115932  -0.012   4.232   4.451  0.3134  0.5557  0.4960
  131CHL1  H21A15933   0.033   4.156   4.383  0.3812 -0.9744  2.1746
  131CHL1  H21B15934  -0.115   4.248   4.413  0.6314 -0.7135 -1.0268
  131CHL1  H21C15935  -0.006   4.179   4.549 -0.3219  0.5805  0.5520
  131CHL1   C2215936   0.019   4.458   4.563  0.1168  0.4022 -0.0175
  131CHL1  H22A15937   0.062   4.560   4.556 -1.6529  1.2718  1.0372
  131CHL1  H22B15938  -0.091   4.471   4.577  0.3837  0.3236  2.7355
  131CHL1   C2315939   0.072   4.415   4.696  0.0672 -0.3194  0.3804
  131CHL1  H23A15940   0.053   4.309   4.723  1.9745 -1.0489 -0.9175
  131CHL1  H23B15941   0.183   4.420   4.690  0.2731 -1.7834  2.1067
  131CHL1   C2415942   0.018   4.492   4.811 -0.0675 -0.0896 -0.9110
  131CHL1  H24A15943   0.038   4.600   4.797  0.6305  0.0704  0.9592
  131CHL1  H24B15944  -0.086   4.460   4.833  0.5940 -2.2811 -0.6954
  131CHL1   C2515945   0.107   4.460   4.940  0.0832  0.5115 -0.0058
  131CHL1   H2515946   0.206   4.450   4.892 -0.6412  0.8383 -1.6522
  131CHL1   C2615947   0.097   4.572   5.050  0.0820  0.2936  0.0577
  131CHL1  H26A15948   0.006   4.547   5.109  0.4121 -1.9653 -0.2977
  131CHL1  H26B15949   0.192   4.571   5.108 -0.4282 -1.2207  0.9276
  131CHL1  H26C15950   0.080   4.676   5.015 -1.5407  0.3893  1.0030
  131CHL1   C2715951   0.053   4.330   5.004  0.1186  0.7051 -0.5559
  131CHL1  H27A15952   0.099   4.309   5.103 -0.8143  2.3234  0.2691
  131CHL1  H27B15953  -0.058   4.334   5.017  0.1884 -1.4768  1.4595
  131CHL1  H27C15954   0.063   4.240   4.940  0.0014 -0.4852  1.0433
  132CHL1    C315955   4.642   7.231   3.515 -0.2076 -0.1058 -0.3369
  132CHL1    H315956   4.688   7.136   3.552 -1.2828  0.0718  1.5609
  132CHL1    O315957   4.663   7.246   3.376  0.3232  0.0697  0.0988
  132CHL1   H3'15958   4.632   7.330   3.343 -0.5590 -0.7916 -1.3485
  132CHL1    C415959   4.491   7.221   3.546  0.2077  0.5288 -0.3704
  132CHL1   H4A15960   4.447   7.318   3.514  1.7930  1.7732  1.0329
  132CHL1   H4B15961   4.449   7.134   3.492  0.2904 -1.2379  2.2197
  132CHL1    C515962   4.454   7.211   3.694  0.3589 -0.3266  0.2236
  132CHL1    C615963   4.399   7.096   3.738 -0.1011  0.9307 -0.4889
  132CHL1    H615964   4.358   7.024   3.666 -0.6026  0.3853  0.3204
  132CHL1    C715965   4.370   7.071   3.884 -0.1496  0.1943 -0.5735
  132CHL1   H7A15966   4.273   7.021   3.905  0.5373 -0.5317  0.9768
  132CHL1   H7B15967   4.449   7.009   3.930  0.7771  1.5138 -0.3362
  132CHL1    C815968   4.373   7.201   3.966  0.1339  0.3208  0.7558
  132CHL1    H815969   4.293   7.273   3.939 -1.6679 -2.3206 -1.3968
  132CHL1   C1415970   4.366   7.181   4.116  0.3251  0.2236  1.0004
  132CHL1   H1415971   4.460   7.132   4.149  0.6470  2.1793  3.2324
  132CHL1   C1515972   4.250   7.098   4.172  0.1739 -0.4647  0.0080
  132CHL1  H15A15973   4.158   7.139   4.125  0.4042  0.1699  0.0884
  132CHL1  H15B15974   4.264   6.990   4.154  1.8611 -0.1344 -0.9342
  132CHL1   C1615975   4.249   7.129   4.323 -0.7619  0.4097  0.0142
  132CHL1  H16A15976   4.149   7.175   4.337 -0.1341  1.9156 -0.2984
  132CHL1  H16B15977   4.246   7.034   4.381 -0.0676  0.0933 -0.4473
  132CHL1   C1715978   4.363   7.227   4.339 -1.0575 -0.3793 -0.3099
  132CHL1   H1715979   4.459   7.173   4.351  1.2981  3.7112  1.2168
  132CHL1   C1315980   4.381   7.298   4.205  0.2270 -0.1477  0.1581
  132CHL1   C1815981   4.259   7.400   4.182 -0.2917  0.4176 -0.6759
  132CHL1  H18A15982   4.290   7.488   4.243 -1.8246  0.7591 -0.3579
  132CHL1  H18B15983   4.232   7.429   4.078 -0.0483 -1.1254 -1.1896
  132CHL1  H18C15984   4.173   7.342   4.221 -0.8457  3.2631  2.8307
  132CHL1   C1215985   4.513   7.355   4.177 -0.3277  0.5026 -0.1348
  132CHL1  H12A15986   4.538   7.437   4.247  1.2427 -0.0331 -0.0282
  132CHL1  H12B15987   4.590   7.281   4.208 -1.7923 -1.2966 -0.5434
  132CHL1   C1115988   4.517   7.397   4.027 -0.5675 -0.1064 -0.2368
  132CHL1  H11A15989   4.430   7.465   4.016  0.0827  1.1053  1.6008
  132CHL1  H11B15990   4.600   7.469   4.008  0.0994 -0.5347  0.9685
  132CHL1    C915991   4.502   7.276   3.934 -0.2260  1.0749  0.5185
  132CHL1    H915992   4.585   7.207   3.961 -0.3418  1.4860  2.0291
  132CHL1   C1015993   4.524   7.312   3.786  0.0021 -0.0042  0.0249
  132CHL1   C1915994   4.476   7.455   3.758 -0.3895 -0.5076  0.1805
  132CHL1  H19A15995   4.445   7.470   3.652 -1.9397 -0.5719  0.5940
  132CHL1  H19B15996   4.386   7.480   3.818 -1.2311  0.1923 -1.2920
  132CHL1  H19C15997   4.551   7.528   3.794 -0.5459 -0.5639  0.6203
  132CHL1    C115998   4.672   7.324   3.751  0.3392  0.1591  0.6083
  132CHL1   H1A15999   4.710   7.406   3.815 -0.7337  0.0402  1.4312
  132CHL1   H1B16000   4.723   7.229   3.777  1.1674 -0.0642 -1.6289
  132CHL1    C216001   4.698   7.346   3.598  0.0383  0.3342 -0.2122
  132CHL1   H2A16002   4.806   7.349   3.572 -0.1938 -2.1089 -1.7616
  132CHL1   H2B16003   4.664   7.449   3.574  1.6938  0.6298 -1.5347
  132CHL1   C2016004   4.359   7.312   4.465 -0.1358 -0.5197  0.3404
  132CHL1   H2016005   4.432   7.395   4.458  1.4031 -1.7206  1.3199
  132CHL1   C2116006   4.401   7.224   4.577 -0.4465  0.7399  0.5978
  132CHL1  H21A16007   4.503   7.188   4.554 -0.3001  1.9698 -0.8616
  132CHL1  H21B16008   4.333   7.139   4.600  0.0364  0.2853  0.3599
  132CHL1  H21C16009   4.411   7.279   4.673  0.4947  2.5534 -0.4797
  132CHL1   C2216010   4.226   7.380   4.506 -0.5423 -0.1222 -0.3214
  132CHL1  H22A16011   4.172   7.430   4.424 -2.8901 -0.8435  0.6950
  132CHL1  H22B16012   4.154   7.300   4.535 -1.2875 -0.3572 -2.6251
  132CHL1   C2316013   4.250   7.479   4.623 -0.4664  0.0948 -0.0785
  132CHL1  H23A16014   4.272   7.411   4.708  1.8901 -0.4144 -0.9978
  132CHL1  H23B16015   4.342   7.540   4.604 -0.9535  0.3970 -1.6827
  132CHL1   C2416016   4.124   7.556   4.659 -0.0368 -0.3574  0.9175
  132CHL1  H24A16017   4.103   7.612   4.566 -1.2783 -2.1570  0.0504
  132CHL1  H24B16018   4.043   7.482   4.676  0.8596 -1.4946  0.4045
  132CHL1   C2516019   4.155   7.647   4.773  0.4146 -0.0678 -1.2875
  132CHL1   H2516020   4.258   7.689   4.770  0.2142  0.5471 -0.1103
  132CHL1   C2616021   4.052   7.757   4.769 -0.2508  0.1580 -0.6060
  132CHL1  H26A16022   4.083   7.828   4.690  0.0136  0.3703 -0.3139
  132CHL1  H26B16023   3.948   7.718   4.768  0.4164 -2.5098  3.8576
  132CHL1  H26C16024   4.064   7.817   4.861 -0.4553  0.0780 -0.5254
  132CHL1   C2716025   4.153   7.574   4.907  0.4447  0.0075 -0.1133
  132CHL1  H27A16026   4.057   7.520   4.921  1.3699 -1.5824  0.3850
  132CHL1  H27B16027   4.233   7.497   4.907  0.0763 -0.4114  1.5590
  132CHL1  H27C16028   4.168   7.651   4.985  0.6990  0.0612 -0.2149
  133CHL1    C316029   1.529   2.011   4.295  0.1425  0.3165  0.3099
  133CHL1    H316030   1.537   1.924   4.364  0.5225 -0.8113 -1.1170
  133CHL1    O316031   1.472   1.957   4.176 -0.5657 -0.4090  0.3659
  133CHL1   H3'16032   1.455   2.034   4.122 -0.6585 -1.4723 -1.2041
  133CHL1    C416033   1.432   2.111   4.360 -0.0080  0.4058  0.6587
  133CHL1   H4A16034   1.387   2.183   4.289  0.9715  1.8565  1.4581
  133CHL1   H4B16035   1.353   2.045   4.399  0.0276  0.2480  0.4667
  133CHL1    C516036   1.488   2.189   4.473 -0.2183  0.1508  0.0457
  133CHL1    C616037   1.438   2.191   4.597 -0.6401 -0.1380 -1.2093
  133CHL1    H616038   1.346   2.136   4.621 -0.2039 -1.9753 -3.3696
  133CHL1    C716039   1.499   2.269   4.709  0.3006 -0.0704  0.4005
  133CHL1   H7A16040   1.418   2.296   4.780 -1.6027 -1.1193 -1.2510
  133CHL1   H7B16041   1.574   2.203   4.758  0.2958 -0.5576 -0.2345
  133CHL1    C816042   1.569   2.395   4.648  0.1231  0.3127  0.3803
  133CHL1    H816043   1.496   2.461   4.595 -1.1057 -1.1108  0.2094
  133CHL1   C1416044   1.641   2.463   4.759  0.3660  0.1189  0.2501
  133CHL1   H1416045   1.724   2.394   4.786  1.5889  0.3394 -2.5769
  133CHL1   C1516046   1.568   2.511   4.889  0.4891 -0.1003  0.7092
  133CHL1  H15A16047   1.471   2.559   4.865 -0.5013 -1.6729  1.3902
  133CHL1  H15B16048   1.555   2.415   4.944  1.2445 -0.2866  0.5688
  133CHL1   C1616049   1.670   2.600   4.957  0.0459 -0.0164  0.5609
  133CHL1  H16A16050   1.618   2.694   4.986 -0.3049 -0.9955  3.3901
  133CHL1  H16B16051   1.706   2.556   5.052  1.5141  0.3010  0.1898
  133CHL1   C1716052   1.794   2.615   4.859 -0.2517  0.1822  0.3073
  133CHL1   H1716053   1.869   2.538   4.886 -1.0046  0.0783  2.2781
  133CHL1   C1316054   1.733   2.581   4.724  0.5275  0.4728 -0.4476
  133CHL1   C1816055   1.654   2.699   4.670  0.4662  0.3261  0.2440
  133CHL1  H18A16056   1.571   2.727   4.738  1.3221  1.7126  0.7757
  133CHL1  H18B16057   1.718   2.787   4.647 -0.0424  0.4439 -0.7500
  133CHL1  H18C16058   1.613   2.680   4.569 -0.2550 -1.0808  0.7756
  133CHL1   C1216059   1.832   2.542   4.619 -0.1574  0.1704  0.2330
  133CHL1  H12A16060   1.883   2.635   4.586  0.0806  0.6115  1.7221
  133CHL1  H12B16061   1.917   2.480   4.655 -0.2452  0.8342  1.6824
  133CHL1   C1116062   1.767   2.465   4.504 -1.1858 -0.5720  0.4764
  133CHL1  H11A16063   1.696   2.537   4.457 -0.7080  1.6142  2.8728
  133CHL1  H11B16064   1.837   2.429   4.426 -0.2548 -0.7716  1.3904
  133CHL1    C916065   1.674   2.350   4.544 -0.1530  0.5241  0.0775
  133CHL1    H916066   1.736   2.276   4.598  1.1735  0.4661 -1.4392
  133CHL1   C1016067   1.616   2.267   4.429 -0.8531  0.5148 -0.2448
  133CHL1   C1916068   1.588   2.359   4.305 -0.2963 -0.5507  0.1628
  133CHL1  H19A16069   1.535   2.305   4.224 -1.3756 -0.7131  0.9655
  133CHL1  H19B16070   1.519   2.443   4.330 -0.2258 -0.2083 -0.7644
  133CHL1  H19C16071   1.682   2.403   4.265 -0.8548 -1.9439 -2.9908
  133CHL1    C116072   1.719   2.156   4.392 -0.0905 -0.6060 -0.7086
  133CHL1   H1A16073   1.813   2.207   4.361  0.1836 -1.5010 -1.3576
  133CHL1   H1B16074   1.746   2.095   4.481  1.8545  0.8984 -0.1898
  133CHL1    C216075   1.668   2.070   4.273  0.4065 -0.5467 -0.1065
  133CHL1   H2A16076   1.743   1.990   4.252  1.1453 -0.4609  2.0143
  133CHL1   H2B16077   1.667   2.126   4.177 -1.6595 -0.2839  0.0249
  133CHL1   C2016078   1.877   2.743   4.865  0.4267 -0.8356 -0.4643
  133CHL1   H2016079   1.925   2.744   4.765  2.1227 -0.8798  0.3100
  133CHL1   C2116080   1.973   2.728   4.981  0.0401 -0.0931 -0.5921
  133CHL1  H21A16081   2.046   2.811   4.993 -0.3277  0.0845  0.6036
  133CHL1  H21B16082   2.037   2.638   4.971  1.6490  0.9211  0.1368
  133CHL1  H21C16083   1.910   2.718   5.072 -1.0915  1.9591 -1.0822
  133CHL1   C2216084   1.801   2.877   4.882 -0.5265  0.3004 -0.2819
  133CHL1  H22A16085   1.691   2.874   4.874 -0.4437 -0.5239 -1.2973
  133CHL1  H22B16086   1.814   2.916   4.986 -1.8598  0.7289 -0.2632
  133CHL1   C2316087   1.863   2.984   4.792 -0.0226 -0.1865 -0.5377
  133CHL1  H23A16088   1.972   3.000   4.805 -0.5523  2.2982  1.5053
  133CHL1  H23B16089   1.836   2.955   4.688  0.9113 -0.5617 -0.6792
  133CHL1   C2416090   1.787   3.113   4.809 -0.1277 -0.0928  0.4049
  133CHL1  H24A16091   1.677   3.096   4.803 -0.3089  1.3215 -0.9420
  133CHL1  H24B16092   1.809   3.145   4.913  2.0223  2.3200 -0.6878
  133CHL1   C2516093   1.828   3.218   4.700 -0.3167 -0.5864 -0.5623
  133CHL1   H2516094   1.804   3.169   4.603  0.4385 -0.0323 -1.0366
  133CHL1   C2616095   1.743   3.351   4.700  0.5971 -0.0687  0.4669
  133CHL1  H26A16096   1.748   3.411   4.607 -0.0985 -1.8624 -0.7858
  133CHL1  H26B16097   1.637   3.321   4.713  0.6987  0.7560  4.2332
  133CHL1  H26C16098   1.776   3.409   4.789 -0.1821  1.4762 -0.2231
  133CHL1   C2716099   1.975   3.254   4.713  0.3057  0.5398 -0.2690
  133CHL1  H27A16100   1.993   3.324   4.797 -1.8183  0.7232  0.0991
  133CHL1  H27B16101   2.044   3.167   4.715  0.0405  0.2151 -2.3856
  133CHL1  H27C16102   2.001   3.312   4.622  2.0456  1.3766  0.7176
  134CHL1    C316103   7.333   2.116   3.957 -0.4058 -0.9141  0.3149
  134CHL1    H316104   7.223   2.116   3.951 -0.4151 -0.0967  0.3219
  134CHL1    O316105   7.375   2.068   3.831  0.5000 -0.5194  0.3785
  134CHL1   H3'16106   7.468   2.089   3.818  1.4897 -3.5818  1.5073
  134CHL1    C416107   7.388   2.258   3.984 -0.2108  0.3737  0.5209
  134CHL1   H4A16108   7.499   2.247   3.987 -0.0896  0.6226 -1.6378
  134CHL1   H4B16109   7.366   2.333   3.905  1.4156 -0.7926 -1.1320
  134CHL1    C516110   7.347   2.305   4.124  0.2377 -0.0220 -0.0013
  134CHL1    C616111   7.287   2.429   4.145 -0.9973  0.3679  0.6996
  134CHL1    H616112   7.274   2.500   4.061 -2.1631 -0.7584 -0.0994
  134CHL1    C716113   7.251   2.492   4.279  0.0570  0.1865  0.4478
  134CHL1   H7A16114   7.285   2.598   4.284 -1.5059  0.6900  1.3612
  134CHL1   H7B16115   7.140   2.489   4.282  0.0122  0.0019 -0.9211
  134CHL1    C816116   7.301   2.403   4.403  0.2263  0.3612  0.6167
  134CHL1    H816117   7.406   2.433   4.420 -0.0978  1.5605  0.5925
  134CHL1   C1416118   7.225   2.438   4.532  0.1397 -0.5842 -0.1213
  134CHL1   H1416119   7.129   2.382   4.517  0.5973 -1.4274  0.0327
  134CHL1   C1516120   7.188   2.577   4.579  0.1787 -0.4173  0.2996
  134CHL1  H15A16121   7.266   2.653   4.556 -0.1968  0.2433  1.1616
  134CHL1  H15B16122   7.096   2.606   4.524  0.7743 -0.0314 -0.5272
  134CHL1   C1616123   7.151   2.569   4.736 -0.9444 -0.4877  0.5788
  134CHL1  H16A16124   7.218   2.640   4.789 -0.0536 -1.0017  0.1728
  134CHL1  H16B16125   7.047   2.605   4.749 -1.0160 -1.5845  4.3312
  134CHL1   C1716126   7.177   2.419   4.772  0.0757  0.1950  0.3226
  134CHL1   H1716127   7.077   2.375   4.751  0.6208 -0.2733 -1.5144
  134CHL1   C1316128   7.276   2.376   4.663 -0.7359  0.3131 -0.6509
  134CHL1   C1816129   7.409   2.441   4.695 -0.3615 -0.1520  0.0728
  134CHL1  H18A16130   7.458   2.396   4.784  0.1464  1.1799  0.5042
  134CHL1  H18B16131   7.481   2.426   4.612  0.4398 -0.1417  0.7385
  134CHL1  H18C16132   7.413   2.552   4.703 -1.6927 -0.2326  3.4267
  134CHL1   C1216133   7.285   2.216   4.647  0.0346  0.1227 -0.5639
  134CHL1  H12A16134   7.345   2.167   4.727 -1.6664 -0.9380  0.1372
  134CHL1  H12B16135   7.183   2.172   4.653 -0.7081  1.8004 -0.5503
  134CHL1   C1116136   7.362   2.177   4.516  0.3842  0.1045  0.4929
  134CHL1  H11A16137   7.466   2.204   4.541  0.8844 -1.6835  0.5031
  134CHL1  H11B16138   7.353   2.067   4.500 -1.1890 -0.2483  3.0228
  134CHL1    C916139   7.309   2.252   4.384  0.2250 -0.5191 -0.2869
  134CHL1    H916140   7.204   2.219   4.374 -0.1709 -0.3468  2.4492
  134CHL1   C1016141   7.375   2.212   4.246  0.1614 -0.2508 -0.0969
  134CHL1   C1916142   7.524   2.226   4.263 -0.0455 -0.0368  0.0821
  134CHL1  H19A16143   7.582   2.194   4.173  0.9613 -2.0238  1.3654
  134CHL1  H19B16144   7.529   2.337   4.270 -1.2129  0.0204  0.1428
  134CHL1  H19C16145   7.569   2.188   4.357 -0.7618  1.2065  0.9534
  134CHL1    C116146   7.333   2.065   4.204 -0.0092  0.0970  0.4247
  134CHL1   H1A16147   7.376   2.004   4.287 -0.7968  0.7402  1.3382
  134CHL1   H1B16148   7.223   2.055   4.210  0.2572 -3.8452  1.7589
  134CHL1    C216149   7.385   2.022   4.062  0.3506 -0.3047 -0.3630
  134CHL1   H2A16150   7.357   1.915   4.048  3.2860 -1.3219  0.8347
  134CHL1   H2B16151   7.495   2.012   4.072  0.1829  0.1037  2.6165
  134CHL1   C2016152   7.207   2.410   4.924 -0.2482  0.8035  0.1208
  134CHL1   H2016153   7.299   2.464   4.954 -0.3318  2.9974 -3.1171
  134CHL1   C2116154   7.226   2.264   4.971  0.1757 -0.3034  0.1865
  134CHL1  H21A16155   7.141   2.202   4.936 -0.7463 -0.1932  2.0929
  134CHL1  H21B16156   7.226   2.261   5.082 -0.0589  2.4617  0.3220
  134CHL1  H21C16157   7.316   2.219   4.924 -0.1540 -1.2522  0.4312
  134CHL1   C2216158   7.095   2.465   5.006  1.2415 -0.9657 -0.5949
  134CHL1  H22A16159   7.059   2.568   4.982  0.0287 -0.7951  1.6060
  134CHL1  H22B16160   7.019   2.384   5.011  0.9554 -0.6523  1.5253
  134CHL1   C2316161   7.128   2.488   5.153 -0.1690 -0.7959  0.2072
  134CHL1  H23A16162   7.194   2.413   5.202  1.8040  1.7498  1.6681
  134CHL1  H23B16163   7.200   2.572   5.158  0.9303 -1.6751 -0.3608
  134CHL1   C2416164   7.010   2.531   5.230 -0.1716  0.0228  0.2774
  134CHL1  H24A16165   6.932   2.586   5.173 -1.9386  0.4317  2.9422
  134CHL1  H24B16166   6.950   2.447   5.271  1.2454 -0.3553  1.6828
  134CHL1   C2516167   7.051   2.628   5.352 -0.4595  0.4901 -0.3684
  134CHL1   H2516168   7.106   2.715   5.311  0.1927  0.1105 -0.3139
  134CHL1   C2616169   6.927   2.689   5.424  0.3767  0.3489  0.1553
  134CHL1  H26A16170   6.859   2.751   5.362  0.1157  1.4503  1.5051
  134CHL1  H26B16171   6.865   2.615   5.479 -0.9794  0.9965 -0.4689
  134CHL1  H26C16172   6.961   2.752   5.509 -1.4045 -2.3155  3.0749
  134CHL1   C2716173   7.156   2.565   5.449 -0.6576  0.2342  0.2818
  134CHL1  H27A16174   7.250   2.553   5.391 -0.7350 -1.2138  0.4080
  134CHL1  H27B16175   7.178   2.639   5.529  3.7199 -2.8740  2.4374
  134CHL1  H27C16176   7.120   2.470   5.495 -3.2937  0.1891 -1.6588
  135CHL1    C316177   6.789   2.070   3.832  0.1859 -0.2375 -0.1402
  135CHL1    H316178   6.688   2.029   3.854  0.8501 -1.6597  0.4068
  135CHL1    O316179   6.835   2.039   3.702  0.0140  0.7361 -0.2457
  135CHL1   H3'16180   6.795   1.953   3.688  0.3614  0.1272  2.0236
  135CHL1    C416181   6.790   2.228   3.850 -0.1636 -0.2648  0.2981
  135CHL1   H4A16182   6.896   2.250   3.828 -0.2652 -1.8272 -2.2257
  135CHL1   H4B16183   6.734   2.275   3.766  0.5966  0.9194  0.4318
  135CHL1    C516184   6.741   2.266   3.988  0.2777 -0.2260  0.0910
  135CHL1    C616185   6.630   2.331   4.014 -0.4880  0.5036 -0.3863
  135CHL1    H616186   6.571   2.365   3.927 -1.2787 -1.6594 -0.7625
  135CHL1    C716187   6.578   2.361   4.150 -0.3054 -0.2293 -0.1532
  135CHL1   H7A16188   6.537   2.464   4.154 -0.8035 -0.4039 -0.6192
  135CHL1   H7B16189   6.490   2.294   4.166 -0.8403 -0.0220 -2.0141
  135CHL1    C816190   6.691   2.345   4.259  0.3158 -0.3805  0.1901
  135CHL1    H816191   6.765   2.427   4.251 -0.1620  0.3246  2.2382
  135CHL1   C1416192   6.622   2.340   4.394 -0.2474 -0.3355 -0.3783
  135CHL1   H1416193   6.570   2.242   4.394 -0.2316 -0.3430 -0.6125
  135CHL1   C1516194   6.515   2.449   4.437  0.3548 -0.2621 -0.1166
  135CHL1  H15A16195   6.546   2.552   4.408 -1.6803  0.6574  0.7656
  135CHL1  H15B16196   6.417   2.438   4.386 -0.9390  0.6553  2.0421
  135CHL1   C1616197   6.512   2.445   4.590 -0.0825 -0.4607  0.2114
  135CHL1  H16A16198   6.541   2.543   4.633 -2.4096  0.0793  0.7170
  135CHL1  H16B16199   6.413   2.415   4.631 -0.4493 -0.5035 -0.6860
  135CHL1   C1716200   6.619   2.342   4.632  0.7859 -0.0811 -0.0299
  135CHL1   H1716201   6.568   2.243   4.640  0.7563  0.0169  1.0986
  135CHL1   C1316202   6.714   2.326   4.513 -0.0228 -0.2643 -0.2510
  135CHL1   C1816203   6.817   2.444   4.518  0.1527  0.1961  0.6009
  135CHL1  H18A16204   6.895   2.406   4.587  0.5103 -0.1972 -0.0072
  135CHL1  H18B16205   6.870   2.463   4.422 -0.7655  1.6808  0.3542
  135CHL1  H18C16206   6.771   2.539   4.554 -1.6579  0.4498 -2.0742
  135CHL1   C1216207   6.785   2.193   4.497 -0.0970 -0.7301  0.0563
  135CHL1  H12A16208   6.841   2.161   4.588  1.6341 -1.1527 -1.0997
  135CHL1  H12B16209   6.709   2.112   4.492 -0.4220 -0.6766  2.7345
  135CHL1   C1116210   6.856   2.173   4.360 -0.5283 -1.0343  0.2596
  135CHL1  H11A16211   6.942   2.243   4.365 -1.9929  1.0711 -1.8129
  135CHL1  H11B16212   6.889   2.067   4.353  0.6475 -0.8073  1.8466
  135CHL1    C916213   6.766   2.212   4.240 -0.0194  0.3061 -0.3692
  135CHL1    H916214   6.693   2.129   4.245 -0.1381 -0.0235 -4.3769
  135CHL1   C1016215   6.827   2.205   4.104 -0.1341  0.3858  0.1179
  135CHL1   C1916216   6.965   2.264   4.096 -0.1585 -0.4754  0.2089
  135CHL1  H19A16217   7.044   2.213   4.154 -0.3845 -0.8455  0.1911
  135CHL1  H19B16218   7.000   2.265   3.991  1.4837 -1.0317  0.7202
  135CHL1  H19C16219   6.966   2.372   4.125  0.1061  0.1081 -1.8185
  135CHL1    C116220   6.854   2.049   4.075  0.1794 -0.6191 -0.1744
  135CHL1   H1A16221   6.927   2.015   4.152 -1.2145  0.0321  1.5135
  135CHL1   H1B16222   6.754   2.001   4.089 -1.2222  1.5682 -1.9900
  135CHL1    C216223   6.891   2.012   3.931 -0.8703  0.5498  0.3283
  135CHL1   H2A16224   6.904   1.902   3.921  0.1942  0.6906 -0.0787
  135CHL1   H2B16225   6.996   2.046   3.916  0.7581 -2.9438  2.4727
  135CHL1   C2016226   6.668   2.376   4.774  0.4617  0.6200  0.2734
  135CHL1   H2016227   6.698   2.483   4.782 -0.1589  1.0253 -2.0359
  135CHL1   C2116228   6.791   2.291   4.820  0.0612 -0.4921  0.2364
  135CHL1  H21A16229   6.773   2.182   4.811  0.7973 -0.6421  0.5414
  135CHL1  H21B16230   6.825   2.319   4.922 -0.9736  0.4290  0.3484
  135CHL1  H21C16231   6.884   2.305   4.760  0.2634  2.2574  1.0339
  135CHL1   C2216232   6.545   2.357   4.879 -0.1597 -0.2934  0.3795
  135CHL1  H22A16233   6.458   2.407   4.832  0.1167 -0.0022  0.1675
  135CHL1  H22B16234   6.523   2.250   4.896  0.2768 -0.2215  1.4421
  135CHL1   C2316235   6.567   2.429   5.010  0.1318  0.1765  0.2232
  135CHL1  H23A16236   6.651   2.381   5.064  0.8031 -1.4655 -2.1303
  135CHL1  H23B16237   6.603   2.530   4.980 -0.2963  0.3247  0.1959
  135CHL1   C2416238   6.447   2.463   5.104  0.7826  0.4271 -0.0095
  135CHL1  H24A16239   6.352   2.450   5.047  0.1228 -0.5476  1.2622
  135CHL1  H24B16240   6.435   2.389   5.186 -2.5878 -0.4267 -1.0949
  135CHL1   C2516241   6.469   2.603   5.160  0.0694 -0.4023  0.0286
  135CHL1   H2516242   6.505   2.672   5.081  0.8883 -0.2658  0.5130
  135CHL1   C2616243   6.331   2.655   5.213 -0.2015  0.2359  0.0022
  135CHL1  H26A16244   6.267   2.569   5.241  0.3539 -0.1116  0.2253
  135CHL1  H26B16245   6.360   2.703   5.309  1.2577  1.2177 -0.8767
  135CHL1  H26C16246   6.269   2.723   5.150 -0.8103 -0.1690  0.1641
  135CHL1   C2716247   6.574   2.596   5.273  1.0006  0.1231 -0.0368
  135CHL1  H27A16248   6.606   2.700   5.297 -0.0933  0.5564 -0.4048
  135CHL1  H27B16249   6.540   2.529   5.355  2.4628  0.1977  0.6716
  135CHL1  H27C16250   6.667   2.556   5.228 -0.6545  0.0739 -3.7301
  136CHL1    C316251   6.231   0.946   3.741  0.1362 -0.0587  0.4838
  136CHL1    H316252   6.149   0.966   3.814  0.2945  1.9171  0.1721
  136CHL1    O316253   6.173   0.919   3.614 -0.5683 -0.0569  0.2339
  136CHL1   H3'16254   6.116   0.996   3.599 -1.7937 -0.9635  0.0604
  136CHL1    C416255   6.313   1.072   3.724 -0.2012  0.2468  0.1819
  136CHL1   H4A16256   6.397   1.066   3.652 -0.1060 -1.3719  0.3917
  136CHL1   H4B16257   6.240   1.150   3.690 -0.8045  0.0570  0.9925
  136CHL1    C516258   6.381   1.113   3.856  0.2400 -0.2793 -0.0742
  136CHL1    C616259   6.350   1.229   3.921 -0.0246 -0.1534 -0.1425
  136CHL1    H616260   6.280   1.305   3.883 -0.6075  0.5674  2.2259
  136CHL1    C716261   6.412   1.269   4.053  0.1035  0.4413 -0.0926
  136CHL1   H7A16262   6.440   1.377   4.051 -0.2743  0.5381 -0.4860
  136CHL1   H7B16263   6.331   1.249   4.126  0.0563 -0.4487 -0.3751
  136CHL1    C816264   6.527   1.174   4.093  0.0571 -0.2501 -0.0725
  136CHL1    H816265   6.615   1.211   4.036  0.7053 -0.2011  0.9375
  136CHL1   C1416266   6.564   1.203   4.236  0.2463  0.4153 -0.6244
  136CHL1   H1416267   6.487   1.153   4.298  1.3747  1.0538  1.4069
  136CHL1   C1516268   6.566   1.348   4.292 -0.5306 -0.0598  0.6028
  136CHL1  H15A16269   6.615   1.423   4.226 -1.6085  1.7391  1.7912
  136CHL1  H15B16270   6.467   1.392   4.316 -0.8383 -0.4180  0.0254
  136CHL1   C1616271   6.652   1.337   4.421  0.3723  0.0280  0.3011
  136CHL1  H16A16272   6.728   1.417   4.414 -0.9443  1.4654  1.6803
  136CHL1  H16B16273   6.592   1.364   4.510  1.4716 -0.8313  1.3394
  136CHL1   C1716274   6.706   1.190   4.431 -0.1125 -0.2518 -0.6114
  136CHL1   H1716275   6.639   1.127   4.494  2.2358 -0.9482  1.3183
  136CHL1   C1316276   6.694   1.136   4.286  0.0692  1.1270  0.5214
  136CHL1   C1816277   6.806   1.186   4.200 -0.1828 -0.4041 -0.0863
  136CHL1  H18A16278   6.825   1.293   4.223  1.3456 -0.6453 -0.1219
  136CHL1  H18B16279   6.905   1.139   4.220 -0.1005  0.4311  1.6600
  136CHL1  H18C16280   6.804   1.169   4.090  4.2268  1.2173 -0.6399
  136CHL1   C1216281   6.674   0.977   4.268  0.0718  0.7261  0.0441
  136CHL1  H12A16282   6.771   0.925   4.286  0.6605  1.1821 -1.6638
  136CHL1  H12B16283   6.607   0.931   4.345  1.7456  0.1548  1.2175
  136CHL1   C1116284   6.619   0.938   4.127 -0.7249 -0.2352 -0.6154
  136CHL1  H11A16285   6.704   0.961   4.061  0.0753 -1.2408  0.0224
  136CHL1  H11B16286   6.591   0.830   4.126  1.1201 -0.7606  0.6136
  136CHL1    C916287   6.507   1.021   4.069 -0.2421 -0.1702  0.2241
  136CHL1    H916288   6.418   1.000   4.132  0.5916 -1.0190  1.1652
  136CHL1   C1016289   6.464   0.996   3.922  0.6027 -0.0439 -0.0693
  136CHL1   C1916290   6.586   0.990   3.831 -0.9312  0.0277  0.1535
  136CHL1  H19A16291   6.570   0.980   3.722  1.9064  2.4762 -0.6131
  136CHL1  H19B16292   6.661   1.070   3.845  0.6951 -1.4076 -0.0310
  136CHL1  H19C16293   6.648   0.899   3.847  0.6708  1.1013  0.2298
  136CHL1    C116294   6.396   0.854   3.916  0.2164 -0.2423 -0.6578
  136CHL1   H1A16295   6.477   0.780   3.928 -1.0812 -1.7912 -1.1132
  136CHL1   H1B16296   6.329   0.844   4.004  1.3264 -3.4991 -0.0602
  136CHL1    C216297   6.326   0.829   3.781 -0.0394 -0.4280  0.5434
  136CHL1   H2A16298   6.265   0.737   3.777  0.3769 -0.6581 -0.8170
  136CHL1   H2B16299   6.402   0.816   3.702 -0.5942  0.2988 -0.1366
  136CHL1   C2016300   6.852   1.193   4.496 -0.1064 -0.2515 -0.2757
  136CHL1   H2016301   6.926   1.228   4.422 -0.8339  0.5472 -0.6363
  136CHL1   C2116302   6.876   1.047   4.552  0.3477 -0.3268 -0.4072
  136CHL1  H21A16303   6.974   1.034   4.602 -0.6851  1.4436  2.3623
  136CHL1  H21B16304   6.866   0.971   4.472 -2.0819 -0.9579  0.4114
  136CHL1  H21C16305   6.802   1.021   4.631  2.1391 -0.6120  1.2255
  136CHL1   C2216306   6.882   1.285   4.611 -0.7833 -0.2447 -0.8695
  136CHL1  H22A16307   6.895   1.388   4.571 -1.1892 -0.2203 -0.9369
  136CHL1  H22B16308   6.797   1.281   4.682 -0.3090 -2.1170 -0.3435
  136CHL1   C2316309   7.023   1.260   4.684  0.0617 -0.0633  0.6945
  136CHL1  H23A16310   7.004   1.167   4.742 -0.3748 -0.7988 -0.5669
  136CHL1  H23B16311   7.101   1.235   4.608  0.1964  0.8918  0.5094
  136CHL1   C2416312   7.053   1.384   4.761  0.3950  0.4123 -0.7536
  136CHL1  H24A16313   7.060   1.466   4.687 -0.6927 -0.4366 -1.8463
  136CHL1  H24B16314   6.969   1.402   4.832  1.0935  1.3175 -0.1391
  136CHL1   C2516315   7.193   1.376   4.826 -0.1074  0.1302  0.4383
  136CHL1   H2516316   7.257   1.341   4.743 -0.3605 -1.4314  0.8713
  136CHL1   C2616317   7.250   1.520   4.866  0.1352  0.3131 -0.5991
  136CHL1  H26A16318   7.222   1.594   4.789 -2.4697  3.6031  3.1164
  136CHL1  H26B16319   7.213   1.549   4.967 -0.1773 -1.9780  0.0112
  136CHL1  H26C16320   7.359   1.519   4.886 -0.1459 -1.1803  1.1580
  136CHL1   C2716321   7.202   1.283   4.949  0.1615 -0.4215  0.0196
  136CHL1  H27A16322   7.213   1.176   4.924  1.0723 -0.4206  0.3742
  136CHL1  H27B16323   7.295   1.302   5.006  0.7295 -0.7628 -0.7706
  136CHL1  H27C16324   7.119   1.292   5.022  0.3270 -0.2318  0.1889
  137CHL1    C316325   1.877   0.994   4.390 -0.0793 -0.2857  0.4947
  137CHL1    H316326   1.862   1.093   4.437 -2.1073  0.1194 -0.8486
  137CHL1    O316327   1.927   1.029   4.262 -0.1815  0.1692  0.2691
  137CHL1   H3'16328   1.948   0.942   4.226 -1.5028 -0.1833  0.2889
  137CHL1    C416329   1.973   0.907   4.468 -0.4329  0.1121 -0.5394
  137CHL1   H4A16330   2.005   0.834   4.391  0.6558 -0.6033  0.5423
  137CHL1   H4B16331   2.061   0.971   4.488 -0.7324  1.0343 -2.0427
  137CHL1    C516332   1.911   0.841   4.582  0.8580  0.4816 -0.0248
  137CHL1    C616333   1.967   0.842   4.703 -0.0180 -0.0313  0.3616
  137CHL1    H616334   2.061   0.898   4.714 -0.5356  1.5040 -2.1827
  137CHL1    C716335   1.910   0.763   4.825 -0.2456 -0.6018  0.6679
  137CHL1   H7A16336   1.997   0.718   4.878  0.4630  2.1204  2.0085
  137CHL1   H7B16337   1.857   0.832   4.895  1.0421 -0.5262  1.6115
  137CHL1    C816338   1.806   0.652   4.786  0.4753  0.0684 -0.0848
  137CHL1    H816339   1.866   0.570   4.741 -1.8648 -1.6036 -0.3623
  137CHL1   C1416340   1.722   0.601   4.904  0.1897 -0.2062 -0.0601
  137CHL1   H1416341   1.652   0.681   4.938  1.0529 -0.0388  1.3894
  137CHL1   C1516342   1.799   0.575   5.035 -0.0745  0.0827  0.4552
  137CHL1  H15A16343   1.880   0.502   5.012  0.3629  0.1659  1.6333
  137CHL1  H15B16344   1.846   0.670   5.069 -1.6375  1.1254 -0.2272
  137CHL1   C1616345   1.690   0.520   5.129 -0.0847  0.8871 -0.2497
  137CHL1  H16A16346   1.738   0.448   5.199 -0.8581  2.0777  1.5855
  137CHL1  H16B16347   1.652   0.599   5.196 -1.8011 -0.0020 -0.1210
  137CHL1   C1716348   1.576   0.475   5.037 -0.1413  0.6296  0.7288
  137CHL1   H1716349   1.490   0.545   5.034 -1.2992 -0.3574  4.5840
  137CHL1   C1316350   1.630   0.487   4.891  0.3101  0.3540 -0.0704
  137CHL1   C1816351   1.693   0.350   4.852 -0.0024 -0.2365  1.0143
  137CHL1  H18A16352   1.775   0.331   4.924  0.7308  1.4503  0.6917
  137CHL1  H18B16353   1.614   0.272   4.851 -1.3424  1.0014 -2.0188
  137CHL1  H18C16354   1.739   0.357   4.751  0.5955  0.3442  1.3193
  137CHL1   C1216355   1.530   0.537   4.785 -0.0592  0.3245  0.1339
  137CHL1  H12A16356   1.469   0.451   4.749  0.5722  0.6529 -1.8257
  137CHL1  H12B16357   1.467   0.618   4.828  2.8194  2.4569  0.6425
  137CHL1   C1116358   1.603   0.600   4.659 -0.5375  0.3723 -0.3319
  137CHL1  H11A16359   1.639   0.510   4.605 -0.8474  0.4624 -0.6861
  137CHL1  H11B16360   1.519   0.641   4.599 -0.2227 -1.0220 -1.7975
  137CHL1    C916361   1.711   0.698   4.678 -0.5489 -1.2457  0.0719
  137CHL1    H916362   1.660   0.786   4.722  1.4442  0.5089 -0.9868
  137CHL1   C1016363   1.786   0.758   4.552  0.2319  0.1969  0.0504
  137CHL1   C1916364   1.824   0.635   4.466  0.6860 -0.0964  0.6823
  137CHL1  H19A16365   1.890   0.577   4.534 -1.2704 -0.6960  2.1872
  137CHL1  H19B16366   1.736   0.583   4.424 -0.0163  0.3161  1.6086
  137CHL1  H19C16367   1.885   0.654   4.376 -0.2118 -0.8324 -0.0963
  137CHL1    C116368   1.686   0.859   4.484 -0.2583  0.2794 -0.2159
  137CHL1   H1A16369   1.594   0.813   4.443 -1.5926  3.0120 -0.5074
  137CHL1   H1B16370   1.651   0.932   4.560  0.2086  0.6553 -0.3563
  137CHL1    C216371   1.737   0.929   4.365  0.5775 -0.2434  0.9061
  137CHL1   H2A16372   1.666   1.013   4.345 -0.9544 -1.4859  0.9346
  137CHL1   H2B16373   1.729   0.864   4.276 -2.3214  1.5526 -0.3132
  137CHL1   C2016374   1.508   0.342   5.093  0.2118 -0.1901  0.3350
  137CHL1   H2016375   1.587   0.265   5.077  2.1536  2.1946 -2.7826
  137CHL1   C2116376   1.371   0.324   5.019 -0.3937  0.3436  0.0019
  137CHL1  H21A16377   1.298   0.407   5.019 -1.2775 -0.4154 -0.6087
  137CHL1  H21B16378   1.330   0.229   5.060 -0.2670  0.8750  1.4352
  137CHL1  H21C16379   1.392   0.306   4.912  0.2942 -0.9178  0.3192
  137CHL1   C2216380   1.485   0.352   5.246 -0.2700 -0.3451  0.1514
  137CHL1  H22A16381   1.579   0.351   5.305 -1.5923 -0.2961  2.3676
  137CHL1  H22B16382   1.429   0.446   5.265  1.0072  1.3216 -3.4766
  137CHL1   C2316383   1.406   0.236   5.308 -0.3560 -0.2968 -0.1068
  137CHL1  H23A16384   1.396   0.261   5.416  1.5606  1.0628 -0.1948
  137CHL1  H23B16385   1.306   0.233   5.261  0.2443  0.9220 -1.5508
  137CHL1   C2416386   1.470   0.100   5.293  0.1152  0.3728  0.1287
  137CHL1  H24A16387   1.489   0.088   5.184  1.6383  1.1927  0.2731
  137CHL1  H24B16388   1.562   0.092   5.354 -0.4598  2.5749  1.3976
  137CHL1   C2516389   1.380  -0.021   5.334 -0.5558  0.2461 -0.4942
  137CHL1   H2516390   1.291  -0.021   5.267  0.0469 -1.9474 -1.3630
  137CHL1   C2616391   1.444  -0.159   5.299 -0.1915 -0.2596 -0.3278
  137CHL1  H26A16392   1.427  -0.238   5.375  1.0245  0.3573  0.6337
  137CHL1  H26B16393   1.410  -0.198   5.201  0.7124 -1.3607 -0.2336
  137CHL1  H26C16394   1.552  -0.145   5.278 -0.9815  1.2476 -4.0894
  137CHL1   C2716395   1.320  -0.018   5.478 -0.6524  0.3263 -0.8307
  137CHL1  H27A16396   1.255   0.071   5.488 -0.1266  0.5598  0.7637
  137CHL1  H27B16397   1.271  -0.114   5.504  0.7237 -0.9999 -2.7723
  137CHL1  H27C16398   1.406  -0.009   5.547 -1.5584  1.2916  0.2029
  138CHL1    C316399   7.678   0.843   3.645 -0.8769  0.0938 -0.8763
  138CHL1    H316400   7.652   0.909   3.730  0.5974 -1.3913  0.7830
  138CHL1    O316401   7.724   0.922   3.532  0.2726  0.3688  0.4727
  138CHL1   H3'16402   7.793   0.975   3.572  1.6338  0.2871 -1.6338
  138CHL1    C416403   7.783   0.743   3.708  0.4961  0.0083  0.1944
  138CHL1   H4A16404   7.825   0.680   3.627  3.9726  2.1640  0.1398
  138CHL1   H4B16405   7.874   0.800   3.735  0.1630  1.3479 -1.3096
  138CHL1    C516406   7.720   0.672   3.827 -0.7512  0.2301  0.1393
  138CHL1    C616407   7.782   0.684   3.949  0.5826 -0.4896  0.3446
  138CHL1    H616408   7.887   0.716   3.958  0.6432 -1.1935  2.8724
  138CHL1    C716409   7.735   0.613   4.078 -0.4898 -0.5505  0.0819
  138CHL1   H7A16410   7.816   0.556   4.129 -0.6798 -3.1309 -2.2767
  138CHL1   H7B16411   7.697   0.696   4.141 -2.3223 -1.1352 -0.1857
  138CHL1    C816412   7.618   0.516   4.054  0.4968 -0.1020 -0.0264
  138CHL1    H816413   7.655   0.421   4.010 -0.9392 -0.6677 -0.0696
  138CHL1   C1416414   7.547   0.496   4.189  0.4301 -0.5821  0.4948
  138CHL1   H1416415   7.502   0.596   4.205  0.8078  0.4748 -3.8160
  138CHL1   C1516416   7.626   0.463   4.316  0.0066 -0.5264 -0.5483
  138CHL1  H15A16417   7.709   0.392   4.297  0.5226 -0.4161  1.1303
  138CHL1  H15B16418   7.669   0.557   4.356 -0.6879 -0.4838  0.1185
  138CHL1   C1616419   7.522   0.406   4.415 -0.7773  0.3898 -0.1153
  138CHL1  H16A16420   7.555   0.321   4.479 -1.3466 -0.7961 -1.3482
  138CHL1  H16B16421   7.514   0.488   4.489  0.5308 -0.0234  0.5233
  138CHL1   C1716422   7.392   0.396   4.334  0.6786  0.8280 -0.5175
  138CHL1   H1716423   7.334   0.488   4.357 -0.5127 -0.4690  2.1371
  138CHL1   C1316424   7.428   0.399   4.186  0.1705 -0.0772 -0.2349
  138CHL1   C1816425   7.476   0.259   4.134 -0.2720  0.7853 -0.3277
  138CHL1  H18A16426   7.390   0.191   4.114 -0.1761  0.9660 -1.4027
  138CHL1  H18B16427   7.526   0.274   4.036 -1.0464  1.4088 -0.6319
  138CHL1  H18C16428   7.549   0.209   4.201  0.5169  0.3155 -1.4973
  138CHL1   C1216429   7.325   0.459   4.084  0.6530 -0.3586 -0.6022
  138CHL1  H12A16430   7.235   0.394   4.084  0.9379 -0.7595 -1.2495
  138CHL1  H12B16431   7.294   0.553   4.135  0.8919 -1.1228  0.9998
  138CHL1   C1116432   7.394   0.486   3.952  0.5998 -0.3905 -0.2425
  138CHL1  H11A16433   7.427   0.389   3.909  1.5596 -0.8618  1.4642
  138CHL1  H11B16434   7.325   0.544   3.886 -0.5461 -0.6468  0.6830
  138CHL1    C916435   7.516   0.576   3.954 -0.4784  0.4208 -0.9476
  138CHL1    H916436   7.494   0.676   3.997  4.7666  2.2184 -1.7043
  138CHL1   C1016437   7.581   0.613   3.810 -0.4988 -0.0615 -0.6260
  138CHL1   C1916438   7.589   0.481   3.736  0.1355 -0.1928  0.5216
  138CHL1  H19A16439   7.656   0.417   3.797 -0.2728 -2.0916 -0.9271
  138CHL1  H19B16440   7.493   0.433   3.708  1.8746 -3.2083 -0.7220
  138CHL1  H19C16441   7.648   0.490   3.642  1.2632 -0.5039  1.1847
  138CHL1    C116442   7.486   0.709   3.728 -0.5271  0.7534 -0.6552
  138CHL1   H1A16443   7.400   0.645   3.695  0.3123  0.1986 -1.8679
  138CHL1   H1B16444   7.442   0.784   3.797 -0.6106 -0.4529  0.6571
  138CHL1    C216445   7.551   0.774   3.602  0.2752  0.1762  0.0834
  138CHL1   H2A16446   7.466   0.840   3.575  0.2958 -0.2577 -1.1027
  138CHL1   H2B16447   7.558   0.698   3.521  1.3690  1.4060 -1.0148
  138CHL1   C2016448   7.301   0.284   4.392  0.1810  0.4276 -0.3807
  138CHL1   H2016449   7.360   0.191   4.375  1.6587  1.2396  0.0893
  138CHL1   C2116450   7.178   0.270   4.300 -0.3725  0.1832 -0.5500
  138CHL1  H21A16451   7.128   0.367   4.278  0.7283  1.1950  1.1935
  138CHL1  H21B16452   7.109   0.197   4.348  1.5060 -0.2616  1.6666
  138CHL1  H21C16453   7.196   0.220   4.202  0.3990 -3.1607  1.1282
  138CHL1   C2216454   7.271   0.303   4.544  0.6765  0.0314  0.5360
  138CHL1  H22A16455   7.346   0.261   4.614  0.5102 -0.3566  0.4848
  138CHL1  H22B16456   7.254   0.411   4.564 -0.2369 -0.3257  1.8475
  138CHL1   C2316457   7.147   0.222   4.594 -0.2504  0.8527 -0.3902
  138CHL1  H23A16458   7.048   0.248   4.550 -1.0994 -1.0416  0.2911
  138CHL1  H23B16459   7.165   0.114   4.576  0.0851  1.2526 -2.7287
  138CHL1   C2416460   7.145   0.240   4.749 -0.5315 -0.0213  0.5080
  138CHL1  H24A16461   7.232   0.194   4.801 -0.7505 -0.8127  0.2016
  138CHL1  H24B16462   7.143   0.349   4.768  1.3367  0.0141  0.7180
  138CHL1   C2516463   7.015   0.190   4.826 -0.2034  0.9543  0.0507
  138CHL1   H2516464   6.928   0.247   4.787 -1.3011 -0.7234 -0.0539
  138CHL1   C2616465   6.985   0.044   4.787  0.1277 -0.4066 -0.7675
  138CHL1  H26A16466   6.897  -0.008   4.831  2.0669 -2.5547  0.8146
  138CHL1  H26B16467   6.967   0.033   4.678 -0.7847  0.2218 -0.6938
  138CHL1  H26C16468   7.076  -0.016   4.806  0.2949  0.1153  0.1610
  138CHL1   C2716469   7.027   0.203   4.976 -0.1420 -0.0007 -0.5116
  138CHL1  H27A16470   7.123   0.158   5.006  1.6117  1.9165 -2.7953
  138CHL1  H27B16471   7.040   0.313   4.988 -0.0631 -0.0861  0.1694
  138CHL1  H27C16472   6.937   0.167   5.030 -0.2289 -1.2793 -1.4518
  139CHL1    C316473   1.137   7.444   3.915 -0.2542  0.8351  0.3560
  139CHL1    H316474   1.139   7.536   3.978  2.7063  2.1012 -1.3973
  139CHL1    O316475   1.171   7.482   3.785  0.6018  0.5894 -0.2186
  139CHL1   H3'16476   1.156   7.404   3.731 -1.0265  0.2962  0.5940
  139CHL1    C416477   1.242   7.352   3.973 -0.3890 -0.6026  0.7988
  139CHL1   H4A16478   1.258   7.258   3.915 -0.5015  0.7063 -1.5096
  139CHL1   H4B16479   1.339   7.406   3.978  0.0373 -1.3721  1.0003
  139CHL1    C516480   1.202   7.307   4.113  0.2857  0.0070  0.5511
  139CHL1    C616481   1.280   7.323   4.217 -0.5238  0.7252 -0.4022
  139CHL1    H616482   1.374   7.377   4.202  0.7962 -1.4048 -0.2210
  139CHL1    C716483   1.249   7.284   4.357  0.3350  0.4356  0.1332
  139CHL1   H7A16484   1.326   7.227   4.414 -0.8770 -0.7227  0.6708
  139CHL1   H7B16485   1.220   7.376   4.413 -1.4719  0.1147 -0.2355
  139CHL1    C816486   1.128   7.197   4.361  0.5205 -0.0641 -0.2341
  139CHL1    H816487   1.154   7.098   4.318 -3.1090 -0.3870 -2.0741
  139CHL1   C1416488   1.078   7.178   4.507  0.2802 -0.2582  0.0063
  139CHL1   H1416489   1.047   7.282   4.531  0.6763  0.5736 -2.7219
  139CHL1   C1516490   1.171   7.131   4.619 -0.0661  0.6535  1.0882
  139CHL1  H15A16491   1.241   7.047   4.597  1.9221  2.4726  0.0581
  139CHL1  H15B16492   1.242   7.213   4.639  1.9447 -1.3993  2.8954
  139CHL1   C1616493   1.080   7.100   4.735  0.0857  0.2443  0.1468
  139CHL1  H16A16494   1.105   6.994   4.759 -2.4593 -0.4504 -0.0075
  139CHL1  H16B16495   1.098   7.166   4.821  1.3325  0.4536 -0.2562
  139CHL1   C1716496   0.933   7.120   4.685 -0.3433  0.1783 -0.3246
  139CHL1   H1716497   0.915   7.229   4.695  0.0910  0.2385 -0.1971
  139CHL1   C1316498   0.945   7.100   4.529 -0.1196  0.1691 -1.0134
  139CHL1   C1816499   0.975   6.950   4.496  0.1409  0.1899  0.2835
  139CHL1  H18A16500   0.884   6.898   4.532  0.3805 -2.4806 -2.6293
  139CHL1  H18B16501   0.976   6.930   4.387 -1.4643  0.8794  0.1111
  139CHL1  H18C16502   1.063   6.908   4.548  0.4365  1.4276  0.8294
  139CHL1   C1216503   0.827   7.160   4.436 -0.1157  0.3379  0.0422
  139CHL1  H12A16504   0.747   7.083   4.449  0.6711 -0.4468  0.3201
  139CHL1  H12B16505   0.804   7.259   4.480 -0.3303 -0.1725  1.1251
  139CHL1   C1116506   0.883   7.157   4.296 -0.1817  0.0034 -0.2834
  139CHL1  H11A16507   0.907   7.054   4.263  2.6494  0.8256 -1.0533
  139CHL1  H11B16508   0.806   7.193   4.225  2.0977  0.9918 -2.3921
  139CHL1    C916509   1.014   7.241   4.276  0.1398  0.0612 -0.2878
  139CHL1    H916510   0.987   7.344   4.306  0.3042 -0.3465  1.3672
  139CHL1   C1016511   1.059   7.254   4.129  0.5437  0.2702 -0.6576
  139CHL1   C1916512   1.053   7.118   4.057  0.1288  0.1474  0.0448
  139CHL1  H19A16513   1.087   7.042   4.131 -2.1566  0.0739  1.0769
  139CHL1  H19B16514   0.949   7.085   4.041  1.0437 -1.8809 -2.3781
  139CHL1  H19C16515   1.111   7.108   3.963  0.0857  1.6000 -0.1527
  139CHL1    C116516   0.955   7.350   4.060 -0.5176 -0.3951  0.3785
  139CHL1   H1A16517   0.855   7.303   4.063 -0.2491 -1.2419 -1.9440
  139CHL1   H1B16518   0.954   7.441   4.123  1.5296  0.4393 -0.7148
  139CHL1    C216519   0.993   7.380   3.915  0.1805 -0.3696 -0.4622
  139CHL1   H2A16520   0.923   7.450   3.865 -0.0422 -1.1701 -1.2878
  139CHL1   H2B16521   0.999   7.284   3.859  2.1333 -0.9818  0.6986
  139CHL1   C2016522   0.826   7.047   4.766 -0.3608 -0.4817  1.0095
  139CHL1   H2016523   0.730   7.047   4.710 -0.9893 -0.7015  2.0515
  139CHL1   C2116524   0.782   7.133   4.887 -0.2520 -0.0636  0.3047
  139CHL1  H21A16525   0.694   7.099   4.946  0.2552 -0.2361  0.9722
  139CHL1  H21B16526   0.763   7.240   4.863  1.0927 -0.3110 -2.1835
  139CHL1  H21C16527   0.858   7.132   4.968  1.3300 -2.3565 -1.0871
  139CHL1   C2216528   0.855   6.901   4.802  0.0438 -0.3207  0.7797
  139CHL1  H22A16529   0.941   6.860   4.744 -0.5388 -2.5910  1.4407
  139CHL1  H22B16530   0.882   6.895   4.910 -2.0278 -0.2583  1.3374
  139CHL1   C2316531   0.739   6.797   4.782 -0.5122 -0.1719  0.0457
  139CHL1  H23A16532   0.719   6.788   4.673 -0.2259  0.8127 -0.1054
  139CHL1  H23B16533   0.781   6.700   4.815  2.3448  0.0806 -2.4562
  139CHL1   C2416534   0.614   6.846   4.861  0.6876  0.3783  0.1563
  139CHL1  H24A16535   0.640   6.906   4.951  0.2741  0.7663  0.0251
  139CHL1  H24B16536   0.557   6.922   4.803  1.7994 -0.3000 -1.9107
  139CHL1   C2516537   0.523   6.740   4.909  0.3209 -0.1591 -0.4570
  139CHL1   H2516538   0.494   6.676   4.823 -0.7701 -1.6789  0.9858
  139CHL1   C2616539   0.587   6.657   5.021 -0.6115 -0.5294 -0.2494
  139CHL1  H26A16540   0.695   6.632   5.009 -1.2905 -3.5846 -0.5425
  139CHL1  H26B16541   0.580   6.715   5.116  0.5235 -0.8171  0.0309
  139CHL1  H26C16542   0.533   6.563   5.041  1.3305 -1.5475  0.5434
  139CHL1   C2716543   0.391   6.817   4.961 -0.4960  0.3068 -0.3590
  139CHL1  H27A16544   0.359   6.891   4.884  0.2113 -0.2778 -1.2494
  139CHL1  H27B16545   0.298   6.758   4.972 -1.3017  1.1319 -2.2478
  139CHL1  H27C16546   0.407   6.868   5.058 -5.2818 -0.4781  1.0889
  140CHL1    C316547   0.612   0.559   3.578  0.5485 -0.6178 -0.4994
  140CHL1    H316548   0.512   0.520   3.607  0.4647  0.9041  1.4387
  140CHL1    O316549   0.635   0.515   3.447  0.5044  0.2643 -0.3514
  140CHL1   H3'16550   0.548   0.517   3.406  0.9492 -0.5874 -1.3646
  140CHL1    C416551   0.608   0.717   3.586  0.6535  0.9957 -0.3178
  140CHL1   H4A16552   0.696   0.759   3.533  0.1348  1.0202 -1.1724
  140CHL1   H4B16553   0.514   0.744   3.534  0.6347 -0.6640 -1.2141
  140CHL1    C516554   0.602   0.754   3.732 -0.1761 -0.4048  0.2007
  140CHL1    C616555   0.500   0.822   3.783  0.2497 -0.0179 -0.4499
  140CHL1    H616556   0.423   0.870   3.720  0.8938  0.2793 -1.0151
  140CHL1    C716557   0.501   0.863   3.924 -0.5296 -0.2860 -0.5810
  140CHL1   H7A16558   0.485   0.973   3.931 -0.9863 -0.3736 -0.1692
  140CHL1   H7B16559   0.420   0.820   3.988  1.4795 -1.0320  1.6171
  140CHL1    C816560   0.630   0.848   4.009  0.4281  0.2917 -0.1905
  140CHL1    H816561   0.698   0.925   3.967 -0.3831  0.4998 -1.1738
  140CHL1   C1416562   0.588   0.864   4.156 -0.2340  0.8842 -0.1376
  140CHL1   H1416563   0.519   0.778   4.174  0.6924 -0.3419 -2.0642
  140CHL1   C1516564   0.509   0.993   4.194  0.1699  0.8059 -0.2343
  140CHL1  H15A16565   0.560   1.084   4.155  1.9779 -0.8158 -1.8864
  140CHL1  H15B16566   0.403   1.002   4.162  0.2105  0.2553 -0.5363
  140CHL1   C1616567   0.531   0.992   4.346 -0.1312 -0.8037  0.3709
  140CHL1  H16A16568   0.561   1.092   4.382  0.0348 -0.1114 -1.5890
  140CHL1  H16B16569   0.429   0.971   4.387  0.1033 -0.4290  1.1810
  140CHL1   C1716570   0.633   0.873   4.383 -0.6684  0.6204 -0.2752
  140CHL1   H1716571   0.564   0.787   4.394  1.4699 -0.9669  1.8393
  140CHL1   C1316572   0.709   0.850   4.247 -0.0320 -0.1002  0.5542
  140CHL1   C1816573   0.802   0.968   4.226 -0.1136  0.1704 -0.3911
  140CHL1  H18A16574   0.852   0.972   4.127 -1.0951  0.0099 -0.9145
  140CHL1  H18B16575   0.752   1.065   4.247 -2.3215 -1.1149  0.6496
  140CHL1  H18C16576   0.883   0.956   4.300  2.6511 -2.4074 -3.5201
  140CHL1   C1216577   0.782   0.713   4.227 -0.2523  0.2459  0.4130
  140CHL1  H12A16578   0.880   0.717   4.279  0.8515  2.9298 -1.5951
  140CHL1  H12B16579   0.717   0.631   4.265 -0.5822  0.3928  0.1775
  140CHL1   C1116580   0.818   0.681   4.081  0.3674 -0.0284  0.4063
  140CHL1  H11A16581   0.904   0.743   4.048 -0.9413  1.2387 -0.7454
  140CHL1  H11B16582   0.847   0.576   4.060  1.1880  0.6772 -2.3238
  140CHL1    C916583   0.695   0.711   3.986 -0.1121  0.5081  0.1762
  140CHL1    H916584   0.618   0.636   4.015  1.6050 -1.9375 -1.2191
  140CHL1   C1016585   0.714   0.698   3.825  0.0053 -0.2281 -0.6585
  140CHL1   C1916586   0.844   0.768   3.784 -0.3934  0.3043  0.1495
  140CHL1  H19A16587   0.842   0.879   3.779  0.6325  0.3065 -0.5416
  140CHL1  H19B16588   0.933   0.733   3.841  0.4875 -2.4583 -2.6725
  140CHL1  H19C16589   0.878   0.745   3.681  3.4319  2.2276  0.7865
  140CHL1    C116590   0.726   0.546   3.804 -0.9096 -0.4433  0.5666
  140CHL1   H1A16591   0.801   0.487   3.859 -0.7693 -0.8006  0.0004
  140CHL1   H1B16592   0.630   0.508   3.846  0.2570 -0.5541  3.3172
  140CHL1    C216593   0.728   0.500   3.657 -0.8234  0.0654  0.0903
  140CHL1   H2A16594   0.723   0.390   3.647  0.1118  0.1496 -1.6386
  140CHL1   H2B16595   0.821   0.536   3.608 -0.5663 -0.4677  0.1827
  140CHL1   C2016596   0.711   0.882   4.514  0.0272 -0.3198 -0.1656
  140CHL1   H2016597   0.800   0.949   4.513 -0.4766  0.4436  1.7003
  140CHL1   C2116598   0.761   0.741   4.553 -0.3207  0.2861  0.5209
  140CHL1  H21A16599   0.860   0.734   4.504 -0.4069  2.4231 -0.0443
  140CHL1  H21B16600   0.685   0.670   4.511 -2.0658  1.6579  1.2146
  140CHL1  H21C16601   0.775   0.732   4.663 -2.8636 -0.2056  0.8880
  140CHL1   C2216602   0.622   0.950   4.627 -0.1495  0.0153  0.4484
  140CHL1  H22A16603   0.587   1.053   4.605  1.4041  1.5967  4.3526
  140CHL1  H22B16604   0.537   0.879   4.636  1.0707 -1.7799 -1.3283
  140CHL1   C2316605   0.688   0.954   4.776  0.5081 -0.2013  0.2067
  140CHL1  H23A16606   0.690   0.852   4.821  1.3035 -0.9799 -1.4807
  140CHL1  H23B16607   0.796   0.979   4.765  0.2958  0.4611 -0.4526
  140CHL1   C2416608   0.618   1.061   4.866  0.2408  0.7426 -0.0239
  140CHL1  H24A16609   0.612   1.160   4.816  0.5315  0.1297 -1.3166
  140CHL1  H24B16610   0.511   1.029   4.870  0.3435  0.0528 -1.7894
  140CHL1   C2516611   0.682   1.077   4.999  0.3519  0.0388 -0.3223
  140CHL1   H2516612   0.719   0.976   5.024  0.8800  0.0646 -0.9691
  140CHL1   C2616613   0.573   1.114   5.101 -0.2930  0.3690  0.5062
  140CHL1  H26A16614   0.635   1.134   5.192  2.5070 -3.9914 -0.1610
  140CHL1  H26B16615   0.518   1.210   5.088  0.9723  0.9982 -0.4408
  140CHL1  H26C16616   0.503   1.032   5.128 -0.2725 -0.0032 -0.5387
  140CHL1   C2716617   0.791   1.184   4.983  0.3401 -0.3412  0.2706
  140CHL1  H27A16618   0.876   1.157   4.916  0.4111  0.2161  0.1254
  140CHL1  H27B16619   0.739   1.276   4.948  2.1321  0.4478 -0.4605
  140CHL1  H27C16620   0.843   1.204   5.079  0.4133 -0.4643  0.2564
  141DOPC     N16621   5.272   4.993   7.332  0.6374 -0.7443 -0.2221
  141DOPC   C1216622   5.130   4.950   7.289 -0.2772 -0.9426 -0.4242
  141DOPC  H12A16623   5.085   4.876   7.354 -1.5552 -1.8945 -2.2941
  141DOPC  H12B16624   5.140   4.894   7.197  1.2851 -0.7366 -0.4116
  141DOPC   C1316625   5.359   4.887   7.392  0.3006 -1.0640 -0.5513
  141DOPC  H13A16626   5.296   4.841   7.466  0.7111 -0.1000  0.4225
  141DOPC  H13B16627   5.378   4.812   7.317  1.8735 -0.7966 -0.4508
  141DOPC  H13C16628   5.450   4.921   7.439 -0.8698  2.7496 -0.7236
  141DOPC   C1416629   5.254   5.093   7.445 -0.2287 -0.1782  0.2785
  141DOPC  H14A16630   5.175   5.162   7.418 -1.7144 -1.0698  2.2010
  141DOPC  H14B16631   5.206   5.045   7.528 -2.0801  4.2574  2.1060
  141DOPC  H14C16632   5.343   5.144   7.480 -1.6793  1.0591  2.3653
  141DOPC   C1516633   5.348   5.064   7.224  0.2441  0.0791 -0.2535
  141DOPC  H15A16634   5.289   5.145   7.183  0.3966 -0.4565 -1.5677
  141DOPC  H15B16635   5.368   4.999   7.141 -0.0704 -0.6983  0.2707
  141DOPC  H15C16636   5.440   5.105   7.265  0.2048  1.0027 -1.0648
  141DOPC   C1116637   5.019   5.054   7.266 -0.6329 -0.1520 -0.1514
  141DOPC  H11A16638   4.937   4.992   7.225  0.8497 -0.7747 -2.3252
  141DOPC  H11B16639   4.997   5.098   7.366  0.3152  1.7180 -0.7298
  141DOPC     P16640   5.038   5.141   7.030  0.3566  0.2642  0.0264
  141DOPC   O1316641   5.146   5.219   6.966 -0.6171  0.1570  0.1522
  141DOPC   O1416642   4.901   5.178   6.989  0.2533 -0.2055 -0.1234
  141DOPC   O1216643   5.052   5.162   7.179 -0.2300 -0.0397 -0.0337
  141DOPC   O1116644   5.055   4.985   7.003 -0.0324  0.1615 -0.3228
  141DOPC    C116645   5.144   4.938   6.903 -0.1722 -0.7151  0.3906
  141DOPC    HA16646   5.154   4.828   6.914 -1.2113 -1.0896 -1.7102
  141DOPC    HB16647   5.243   4.986   6.916 -0.3539 -0.4466  0.8020
  141DOPC    C216648   5.084   4.962   6.761 -0.1701  0.0867  0.0398
  141DOPC    HS16649   5.082   5.072   6.751  1.2538  0.0862 -0.4838
  141DOPC   O2116650   4.951   4.904   6.752  0.3290 -0.0578 -0.8769
  141DOPC   C2116651   4.873   4.965   6.666 -0.0762  0.3447 -0.1850
  141DOPC   O2216652   4.886   5.080   6.630  0.1414 -0.3997  0.1922
  141DOPC   C2216653   4.765   4.871   6.613  0.2954 -0.9080 -0.4001
  141DOPC   H2R16654   4.706   4.858   6.707  1.6946 -1.2099  0.4784
  141DOPC   H2S16655   4.818   4.779   6.582 -0.1768 -1.7098  1.0515
  141DOPC    C316656   5.187   4.920   6.650 -0.0702  0.0573 -1.1866
  141DOPC    HX16657   5.208   4.812   6.659 -3.4512 -0.5773  1.1610
  141DOPC    HY16658   5.275   4.981   6.679 -0.1123  1.5831 -3.9073
  141DOPC   O3116659   5.158   4.962   6.520 -0.4769 -0.1365  0.3913
  141DOPC   C3116660   5.090   4.878   6.448 -0.9158  0.0509 -0.0680
  141DOPC   O3216661   5.054   4.768   6.486 -0.0538 -0.0399 -0.5826
  141DOPC   C3216662   5.045   4.942   6.310 -0.6322 -0.0642 -0.0973
  141DOPC   H2X16663   4.938   4.961   6.334 -0.2865  0.2192  1.3005
  141DOPC   H2Y16664   5.102   5.035   6.291 -0.4082 -0.2623 -0.4026
  141DOPC   C2316665   4.674   4.948   6.503  0.6570  0.0218  0.2085
  141DOPC   H3R16666   4.730   5.001   6.423  0.1149  2.9382  1.6456
  141DOPC   H3S16667   4.616   5.025   6.558 -0.6879 -1.6613  1.2566
  141DOPC   C2416668   4.587   4.850   6.420  0.0826  0.3246  0.1078
  141DOPC   H4R16669   4.508   4.903   6.362 -0.2287 -0.6675 -0.4078
  141DOPC   H4S16670   4.530   4.790   6.493  2.0017 -0.2711  1.1832
  141DOPC   C2516671   4.665   4.761   6.320  0.7167 -0.1646  0.1280
  141DOPC   H5R16672   4.751   4.710   6.369  0.3889 -1.4319 -0.5523
  141DOPC   H5S16673   4.703   4.819   6.234  0.7875  0.2931  0.4655
  141DOPC   C2616674   4.573   4.653   6.266 -0.1511  0.4803  0.0073
  141DOPC   H6R16675   4.519   4.694   6.178  0.6802 -0.7699 -1.1350
  141DOPC   H6S16676   4.509   4.616   6.349  1.3591 -0.0441  0.9856
  141DOPC   C2716677   4.649   4.534   6.202 -0.0384 -0.4888  0.2748
  141DOPC   H7R16678   4.714   4.565   6.118  0.6608 -1.4445  0.4370
  141DOPC   H7S16679   4.567   4.477   6.153 -1.2018  1.0872  0.3288
  141DOPC   C2816680   4.735   4.444   6.300 -0.4727 -0.2128 -0.2799
  141DOPC   H8R16681   4.830   4.502   6.304 -0.2090 -0.5007 -1.6262
  141DOPC   H8S16682   4.766   4.351   6.248  0.0235 -0.8617  1.1247
  141DOPC   C2916683   4.681   4.422   6.438  0.7378  0.6341 -0.5333
  141DOPC   H9R16684   4.701   4.490   6.522 -0.8137 -0.8323  1.1312
  141DOPC  C21016685   4.591   4.321   6.471 -1.8282  0.1176  0.5510
  141DOPC  H10R16686   4.537   4.313   6.566 -2.1828  1.7873  0.5175
  141DOPC  C21116687   4.542   4.217   6.372  0.7847 -0.5098 -0.0371
  141DOPC  H11R16688   4.572   4.115   6.404 -0.2946 -0.7487  0.2346
  141DOPC  H11S16689   4.595   4.230   6.275  0.2222 -0.5896 -0.3562
  141DOPC  C21216690   4.388   4.245   6.352 -0.9277  0.2430  0.6423
  141DOPC  H12R16691   4.385   4.345   6.305 -0.3244 -0.6011 -1.3285
  141DOPC  H12S16692   4.332   4.238   6.447  0.7663 -1.6792  1.5770
  141DOPC  C21316693   4.317   4.143   6.257 -0.3286  0.1804  0.8837
  141DOPC  H13R16694   4.225   4.195   6.223  1.0779  0.6001 -2.7424
  141DOPC  H13S16695   4.284   4.051   6.311  1.1541 -0.4254  0.8010
  141DOPC  C21416696   4.404   4.106   6.136  0.2883  0.1762 -0.9166
  141DOPC  H14R16697   4.443   4.006   6.161  0.0945 -0.0265 -1.4144
  141DOPC  H14S16698   4.498   4.164   6.122 -0.1468  1.7290  1.8902
  141DOPC  C21516699   4.318   4.102   6.007  1.0894  0.0424 -0.0662
  141DOPC  H15R16700   4.296   4.208   5.983  0.5337  0.0580  0.4968
  141DOPC  H15S16701   4.224   4.045   6.017  1.6137 -1.0440 -1.0449
  141DOPC  C21616702   4.391   4.037   5.889 -0.5643  0.4600  0.2222
  141DOPC  H16R16703   4.397   3.927   5.890 -2.2697  0.3549  1.2737
  141DOPC  H16S16704   4.498   4.067   5.882 -0.8560  1.6734  0.7131
  141DOPC  C21716705   4.334   4.055   5.753  1.1216  0.1334 -0.0195
  141DOPC  H17R16706   4.403   4.004   5.683  2.3525 -2.1457  2.7020
  141DOPC  H17S16707   4.335   4.164   5.728 -1.3636  0.1036 -0.5557
  141DOPC  C21816708   4.194   3.983   5.723 -0.9395 -0.2466  0.3086
  141DOPC  H18R16709   4.120   4.008   5.802  0.3904  2.5994  0.8094
  141DOPC  H18S16710   4.212   3.874   5.727 -1.9042 -0.4531 -0.5299
  141DOPC  H18T16711   4.163   3.995   5.617  0.6194 -1.3904 -0.3199
  141DOPC   C3316712   5.056   4.838   6.199  0.2886  0.0458 -0.0360
  141DOPC   H3X16713   4.999   4.749   6.233  1.9309 -0.5353  1.2942
  141DOPC   H3Y16714   5.163   4.813   6.183 -0.0478 -0.3692 -1.8553
  141DOPC   C3416715   4.988   4.875   6.064  0.4819 -0.7358 -0.1576
  141DOPC   H4X16716   5.029   4.976   6.043  1.8622 -1.2730 -0.1557
  141DOPC   H4Y16717   4.877   4.882   6.072  0.5333 -1.6813  2.0115
  141DOPC   C3516718   5.020   4.776   5.945 -0.5416  0.5593 -1.0713
  141DOPC   H5X16719   5.125   4.804   5.922 -0.5047 -0.9157 -2.9679
  141DOPC   H5Y16720   4.967   4.810   5.853 -0.1264  1.8375 -0.8499
  141DOPC   C3616721   4.989   4.623   5.971 -0.3155 -0.0798  0.5291
  141DOPC   H6X16722   5.061   4.581   6.044 -0.2871 -0.6935  0.1531
  141DOPC   H6Y16723   4.884   4.620   6.008 -1.1344  1.9111 -1.3985
  141DOPC   C3716724   4.987   4.539   5.836  0.6394 -0.1864 -0.4947
  141DOPC   H7X16725   4.933   4.594   5.756 -2.4755 -2.9024 -0.4226
  141DOPC   H7Y16726   5.097   4.536   5.819  0.6846  1.6681 -0.8169
  141DOPC   C3816727   4.922   4.402   5.846  0.5821  1.0824 -0.4849
  141DOPC   H8X16728   4.916   4.347   5.750  1.0414 -1.2345  0.7327
  141DOPC   H8Y16729   4.820   4.423   5.884  0.3529 -0.7863  0.0109
  141DOPC   C3916730   4.995   4.308   5.940  0.0576  0.5427  0.0325
  141DOPC   H9X16731   4.982   4.327   6.048  1.7373  0.2214  0.3278
  141DOPC  C31016732   5.103   4.231   5.917 -0.3992 -0.2653  0.3471
  141DOPC  H10X16733   5.141   4.198   6.014 -1.3332  1.2759  1.2941
  141DOPC  C31116734   5.181   4.206   5.784  0.0790 -0.5723  0.5042
  141DOPC  H11X16735   5.289   4.227   5.802 -0.2925  0.2120  2.0052
  141DOPC  H11Y16736   5.136   4.265   5.702  0.6104 -0.2260  0.4554
  141DOPC  C31216737   5.144   4.063   5.742 -0.2182  0.2387 -0.3159
  141DOPC  H12X16738   5.035   4.053   5.724 -0.2780  0.8881 -0.3456
  141DOPC  H12Y16739   5.168   3.990   5.822 -1.2207  0.3236  0.0827
  141DOPC  C31316740   5.222   4.022   5.615 -1.0118 -0.5283 -0.5892
  141DOPC  H13X16741   5.234   4.111   5.549 -1.7279  0.2107  0.2370
  141DOPC  H13Y16742   5.325   3.989   5.641 -0.4472  0.6244 -1.2599
  141DOPC  C31416743   5.150   3.913   5.542 -0.0549  0.3736 -0.0345
  141DOPC  H14X16744   5.155   3.811   5.588 -0.8254 -0.4741 -1.7502
  141DOPC  H14Y16745   5.046   3.933   5.512  0.3396  0.3705 -1.4564
  141DOPC  C31516746   5.221   3.891   5.401  0.3787 -0.5924 -0.2897
  141DOPC  H15X16747   5.328   3.880   5.429 -0.0158 -0.7378  1.2556
  141DOPC  H15Y16748   5.229   3.986   5.344  1.5376 -1.3048 -1.3633
  141DOPC  C31616749   5.184   3.775   5.317  0.6580  0.1091  0.4950
  141DOPC  H16X16750   5.172   3.684   5.379  1.0084  1.1894  2.2067
  141DOPC  H16Y16751   5.080   3.781   5.279  0.7696 -1.7017 -0.2099
  141DOPC  C31716752   5.270   3.742   5.192 -0.8898 -0.1708  0.3445
  141DOPC  H17X16753   5.277   3.835   5.131 -1.0804 -0.1753  0.3150
  141DOPC  H17Y16754   5.374   3.709   5.216 -0.6256 -0.4895 -1.1152
  141DOPC  C31816755   5.223   3.637   5.087 -0.0955 -0.0209 -0.5208
  141DOPC  H18X16756   5.124   3.665   5.045  0.9356 -0.7864 -3.7608
  141DOPC  H18Y16757   5.304   3.613   5.015  2.7246  0.0808  2.3929
  141DOPC  H18Z16758   5.208   3.540   5.141  3.3487  0.5412  1.7436
  142DOPC     N16759   5.181   4.041   7.145  0.5914 -0.0305  0.3570
  142DOPC   C1216760   5.300   4.027   7.053 -0.5164  0.7205  0.0577
  142DOPC  H12A16761   5.310   3.923   7.028 -0.6471  0.5125  0.8463
  142DOPC  H12B16762   5.391   4.031   7.111 -0.8052  3.5559  0.4824
  142DOPC   C1316763   5.184   3.943   7.256  0.2221  0.7736 -0.9393
  142DOPC  H13A16764   5.092   3.942   7.314  0.2750  1.0954 -0.8500
  142DOPC  H13B16765   5.206   3.843   7.221 -0.5024 -0.5768  2.0969
  142DOPC  H13C16766   5.262   3.972   7.324 -1.4354  0.4828  1.2073
  142DOPC   C1416767   5.050   4.021   7.068 -0.8132  0.1632  0.2384
  142DOPC  H14A16768   5.035   4.093   6.989 -0.9382  0.1070  0.2098
  142DOPC  H14B16769   5.041   3.923   7.022 -1.9362  0.1442  0.4670
  142DOPC  H14C16770   4.964   4.017   7.133 -0.5798 -1.2993  0.4929
  142DOPC   C1516771   5.162   4.174   7.203  0.7021 -0.2439 -0.6603
  142DOPC  H15A16772   5.224   4.201   7.287 -0.4717  3.2829 -0.7774
  142DOPC  H15B16773   5.065   4.189   7.248  1.4441  2.8980  0.1030
  142DOPC  H15C16774   5.182   4.249   7.128 -1.3224  0.9952 -0.0390
  142DOPC   C1116775   5.304   4.110   6.923 -0.7391  0.1252  0.3006
  142DOPC  H11A16776   5.390   4.082   6.859 -2.0591  0.2115 -1.6234
  142DOPC  H11B16777   5.214   4.090   6.859 -1.3462  0.8361  0.9179
  142DOPC     P16778   5.445   4.318   7.000 -0.0107  0.1713 -0.1743
  142DOPC   O1316779   5.515   4.244   7.114  0.3671  0.0320 -0.2919
  142DOPC   O1416780   5.399   4.457   7.033  0.1414  0.2261  0.2371
  142DOPC   O1216781   5.310   4.253   6.947 -0.0102  0.1655  0.3935
  142DOPC   O1116782   5.543   4.317   6.873  0.0524 -0.4882 -0.2242
  142DOPC    C116783   5.492   4.378   6.754 -0.1058  0.2106 -0.3191
  142DOPC    HA16784   5.495   4.488   6.771  1.5364  0.0638  0.4765
  142DOPC    HB16785   5.384   4.353   6.740 -0.0927 -0.9716  1.4567
  142DOPC    C216786   5.565   4.336   6.623  0.4334 -0.4011  0.0993
  142DOPC    HS16787   5.511   4.388   6.540 -0.5505 -1.4130  0.0700
  142DOPC   O2116788   5.567   4.195   6.601 -0.3401 -0.0466 -0.3218
  142DOPC   C2116789   5.454   4.147   6.541  0.6806 -0.5215 -0.2244
  142DOPC   O2216790   5.354   4.210   6.507 -0.3287 -0.2898 -0.0798
  142DOPC   C2216791   5.474   3.996   6.543  0.5568 -0.0466  0.3437
  142DOPC   H2R16792   5.373   3.948   6.546 -0.0730  1.2318  0.5502
  142DOPC   H2S16793   5.531   3.981   6.637  0.7382 -3.6714 -0.2168
  142DOPC    C316794   5.708   4.385   6.618 -0.0541  0.2505  0.2398
  142DOPC    HX16795   5.758   4.379   6.717 -1.3875 -1.5341  0.8576
  142DOPC    HY16796   5.702   4.496   6.606 -2.6970 -0.0944 -2.9839
  142DOPC   O3116797   5.786   4.333   6.509  0.3315  0.6633  0.4575
  142DOPC   C3116798   5.853   4.218   6.526 -0.3469 -0.4782  0.9019
  142DOPC   O3216799   5.844   4.147   6.618  0.0651  0.5294 -0.4197
  142DOPC   C3216800   5.951   4.193   6.407  0.8030 -0.6279 -0.2284
  142DOPC   H2X16801   5.899   4.242   6.323  1.2969  0.8416  0.2931
  142DOPC   H2Y16802   6.042   4.250   6.437 -1.0824  3.3228 -1.3928
  142DOPC   C2316803   5.573   3.947   6.440 -0.5921 -0.2826  0.0626
  142DOPC   H3R16804   5.662   4.014   6.447  0.2386 -1.5365  3.2284
  142DOPC   H3S16805   5.541   3.958   6.335  0.4425 -0.4113 -0.2759
  142DOPC   C2416806   5.612   3.800   6.468  0.7963  0.4389 -0.0953
  142DOPC   H4R16807   5.616   3.774   6.576  1.6145 -1.0938 -0.4575
  142DOPC   H4S16808   5.705   3.770   6.415 -0.3370 -2.8847 -0.4168
  142DOPC   C2516809   5.510   3.711   6.398  0.1749 -0.4734 -0.7756
  142DOPC   H5R16810   5.498   3.759   6.298 -2.4658  0.1472 -0.2243
  142DOPC   H5S16811   5.411   3.716   6.447  1.0211  1.7612  0.8993
  142DOPC   C2616812   5.555   3.565   6.368  0.2810  0.2709  0.1202
  142DOPC   H6R16813   5.582   3.528   6.469 -0.5189  0.1058  0.2808
  142DOPC   H6S16814   5.648   3.570   6.307 -1.6926 -0.1089 -3.1630
  142DOPC   C2716815   5.447   3.483   6.304  0.5550 -0.2436  0.2618
  142DOPC   H7R16816   5.414   3.539   6.214 -0.2511 -0.0860  0.6480
  142DOPC   H7S16817   5.363   3.481   6.377  0.9811  0.9242  0.8242
  142DOPC   C2816818   5.493   3.342   6.278 -0.7202  1.2669  0.5550
  142DOPC   H8R16819   5.525   3.281   6.365 -2.1414 -0.2869  0.0508
  142DOPC   H8S16820   5.580   3.362   6.211 -1.7459  0.3114 -1.1405
  142DOPC   C2916821   5.386   3.264   6.206 -0.0435 -0.4724 -1.4337
  142DOPC   H9R16822   5.297   3.279   6.269  0.1806 -1.8310 -0.7558
  142DOPC  C21016823   5.383   3.186   6.095 -0.2739 -0.1504  0.4017
  142DOPC  H10R16824   5.287   3.144   6.060 -0.0206  0.1841 -0.7473
  142DOPC  C21116825   5.497   3.154   6.002 -0.5260  0.0182  0.6172
  142DOPC  H11R16826   5.496   3.048   5.969 -0.4196  0.4503 -0.8560
  142DOPC  H11S16827   5.600   3.173   6.040 -0.2430  0.5210 -0.3795
  142DOPC  C21216828   5.491   3.231   5.866 -0.1964 -0.4809 -0.3682
  142DOPC  H12R16829   5.498   3.338   5.895 -1.7603 -0.0912 -1.3341
  142DOPC  H12S16830   5.388   3.218   5.828 -0.9743 -2.3704  2.0945
  142DOPC  C21316831   5.598   3.183   5.770  0.3769 -0.6523  0.5217
  142DOPC  H13R16832   5.615   3.074   5.780 -1.6760 -0.9453  1.2431
  142DOPC  H13S16833   5.693   3.237   5.787  1.9136 -1.8766 -3.1976
  142DOPC  C21416834   5.559   3.213   5.624  0.9658  0.3766  0.0562
  142DOPC  H14R16835   5.530   3.319   5.608  1.1802  0.4072 -0.1390
  142DOPC  H14S16836   5.477   3.145   5.592  1.7190 -0.7124  0.3739
  142DOPC  C21516837   5.675   3.170   5.537  0.4246 -0.3319 -0.1901
  142DOPC  H15R16838   5.689   3.063   5.564 -0.3619 -0.6925 -1.1351
  142DOPC  H15S16839   5.762   3.231   5.567  1.2442 -1.5252 -0.0693
  142DOPC  C21616840   5.659   3.189   5.388 -0.6664 -0.6951  0.0361
  142DOPC  H16R16841   5.650   3.297   5.364  0.3006 -0.3786  1.0160
  142DOPC  H16S16842   5.576   3.124   5.354 -0.1385 -3.0396  2.8399
  142DOPC  C21716843   5.781   3.117   5.308  0.2260 -0.2938  0.3820
  142DOPC  H17R16844   5.793   3.015   5.349 -2.6881 -0.6698  0.5544
  142DOPC  H17S16845   5.874   3.176   5.323  0.0887  0.1402 -0.4163
  142DOPC  C21816846   5.754   3.124   5.161 -0.3192 -0.3315 -1.0168
  142DOPC  H18R16847   5.680   3.046   5.136 -1.2637  0.2017  0.0184
  142DOPC  H18S16848   5.843   3.106   5.098 -0.2798 -3.0150 -0.3058
  142DOPC  H18T16849   5.704   3.216   5.124 -0.2939 -0.2737 -0.9109
  142DOPC   C3316850   5.966   4.040   6.398  0.7795 -0.4192  0.2565
  142DOPC   H3X16851   5.899   4.005   6.317 -0.7453  0.5557  1.0385
  142DOPC   H3Y16852   5.940   3.982   6.489 -1.7360  0.4849  0.1940
  142DOPC   C3416853   6.120   3.999   6.400  0.2556  0.0306  0.0967
  142DOPC   H4X16854   6.163   4.010   6.503  0.5714  0.8818 -0.1165
  142DOPC   H4Y16855   6.171   4.073   6.335 -1.4451  0.3071 -0.9587
  142DOPC   C3516856   6.126   3.852   6.343 -0.2098 -0.0018 -0.6457
  142DOPC   H5X16857   6.043   3.796   6.391  1.2666 -1.1706  0.6435
  142DOPC   H5Y16858   6.224   3.816   6.380 -0.0446  1.2378  0.1859
  142DOPC   C3616859   6.135   3.857   6.190  0.4182 -0.0837 -0.1117
  142DOPC   H6X16860   6.041   3.908   6.157  0.2546  1.0318  1.9365
  142DOPC   H6Y16861   6.223   3.918   6.162  0.7564  0.1139  1.3256
  142DOPC   C3716862   6.160   3.722   6.131  0.0315 -0.3274  0.5056
  142DOPC   H7X16863   6.252   3.672   6.168  2.0605  1.3417 -1.9288
  142DOPC   H7Y16864   6.082   3.650   6.164  1.4739 -1.4811  1.5008
  142DOPC   C3816865   6.169   3.708   5.978  0.0011 -0.0931  0.3585
  142DOPC   H8X16866   6.082   3.766   5.942  0.7458  0.3729 -0.7256
  142DOPC   H8Y16867   6.160   3.602   5.946  1.8561  0.0038 -0.6099
  142DOPC   C3916868   6.294   3.769   5.921 -0.3006 -0.0444  0.4312
  142DOPC   H9X16869   6.383   3.705   5.930 -2.8172 -3.9833 -0.1817
  142DOPC  C31016870   6.302   3.884   5.851 -0.3199  0.0379  0.0785
  142DOPC  H10X16871   6.403   3.909   5.816 -0.5836 -2.3878 -2.8018
  142DOPC  C31116872   6.194   3.991   5.838 -0.2360 -0.8155  0.2381
  142DOPC  H11X16873   6.241   4.090   5.853 -1.9394 -0.0442  0.7639
  142DOPC  H11Y16874   6.119   3.974   5.918 -0.1299 -0.5431  0.3956
  142DOPC  C31216875   6.124   4.005   5.705  0.1985  0.4570 -0.6628
  142DOPC  H12X16876   6.193   3.993   5.619 -1.2492 -0.4025 -1.7459
  142DOPC  H12Y16877   6.068   4.100   5.711 -0.5045 -0.0233  1.3236
  142DOPC  C31316878   6.026   3.896   5.679 -0.1498  0.0740 -0.3451
  142DOPC  H13X16879   6.073   3.796   5.679  1.7837  0.8515  2.5207
  142DOPC  H13Y16880   5.958   3.883   5.766  1.3802 -0.8094  0.7753
  142DOPC  C31416881   5.928   3.908   5.559  0.3568 -0.2169 -0.1119
  142DOPC  H14X16882   5.983   3.915   5.462  0.3635  0.7669 -0.0475
  142DOPC  H14Y16883   5.863   3.819   5.562 -2.7480  1.7923 -2.0717
  142DOPC  C31516884   5.831   4.031   5.556  0.1294 -0.1994  0.0236
  142DOPC  H15X16885   5.883   4.127   5.576 -1.0747  0.0174  2.3193
  142DOPC  H15Y16886   5.743   4.013   5.621 -0.6946  1.7028 -0.5010
  142DOPC  C31616887   5.759   4.053   5.414 -0.9435  0.1096 -0.4272
  142DOPC  H16X16888   5.696   4.145   5.418 -0.4110  0.5153 -1.0911
  142DOPC  H16Y16889   5.837   4.085   5.342 -0.7440  1.2614  0.2714
  142DOPC  C31716890   5.687   3.937   5.356  0.3967 -0.3563 -0.4008
  142DOPC  H17X16891   5.762   3.855   5.351  0.2919 -0.5430  0.7766
  142DOPC  H17Y16892   5.616   3.901   5.434  0.6825 -1.9209 -0.8313
  142DOPC  C31816893   5.625   3.956   5.220 -0.5276 -0.6419 -0.5987
  142DOPC  H18X16894   5.709   3.985   5.154  1.6202 -1.8620  1.4415
  142DOPC  H18Y16895   5.573   3.861   5.195 -3.1272 -0.2104  2.5407
  142DOPC  H18Z16896   5.555   4.041   5.210  2.3073  1.7162 -1.7604
  143DOPC     N16897   2.401   5.128   6.996 -0.5808 -0.2760  0.6954
  143DOPC   C1216898   2.440   5.081   6.857  0.2335 -0.4728 -0.0141
  143DOPC  H12A16899   2.511   4.999   6.860  1.6006  0.6363 -0.8808
  143DOPC  H12B16900   2.494   5.158   6.805  0.0697 -1.0312 -1.0337
  143DOPC   C1316901   2.348   5.264   6.993  0.0467 -0.1473 -0.1705
  143DOPC  H13A16902   2.265   5.279   6.926 -0.6166 -0.3878  0.5801
  143DOPC  H13B16903   2.315   5.291   7.093  0.1995  0.7923 -0.3707
  143DOPC  H13C16904   2.428   5.334   6.975  0.9363  0.1130  3.8412
  143DOPC   C1416905   2.514   5.118   7.091 -0.8477  0.3854 -0.7756
  143DOPC  H14A16906   2.480   5.138   7.191 -0.4725  1.7229 -0.8876
  143DOPC  H14B16907   2.558   5.020   7.084 -1.2578  0.2354 -1.4262
  143DOPC  H14C16908   2.590   5.194   7.077  0.1878 -0.1933  1.4331
  143DOPC   C1516909   2.284   5.046   7.054 -0.4400  0.5257  0.0190
  143DOPC  H15A16910   2.193   5.050   6.996 -0.2843 -2.1970 -0.5405
  143DOPC  H15B16911   2.260   5.070   7.157  1.2885  2.8507 -0.0261
  143DOPC  H15C16912   2.315   4.943   7.042 -0.4037  0.4974  0.3376
  143DOPC   C1116913   2.331   5.041   6.746 -0.0889  0.1759 -0.2744
  143DOPC  H11A16914   2.274   5.135   6.730  0.4919  0.7008  0.6083
  143DOPC  H11B16915   2.377   5.019   6.647 -1.0456  0.1848 -0.7297
  143DOPC     P16916   2.281   4.783   6.795 -0.0404  0.5046  0.1737
  143DOPC   O1316917   2.285   4.732   6.932 -0.3019  0.2024 -0.1566
  143DOPC   O1416918   2.396   4.761   6.708  0.1600  0.1392 -0.0531
  143DOPC   O1216919   2.250   4.937   6.791 -0.0109  0.6286  0.0832
  143DOPC   O1116920   2.158   4.718   6.729 -0.4084  0.0602 -0.1858
  143DOPC    C116921   2.152   4.626   6.622 -0.1320 -0.1156 -0.2350
  143DOPC    HA16922   2.052   4.579   6.616 -0.6647  1.0046 -0.3694
  143DOPC    HB16923   2.228   4.550   6.650  0.0742 -0.1914 -0.9793
  143DOPC    C216924   2.204   4.683   6.484 -0.0333  0.1139  0.4439
  143DOPC    HS16925   2.285   4.754   6.507 -1.5363  1.2125  2.7341
  143DOPC   O2116926   2.096   4.731   6.409  0.2369  0.5852 -0.4140
  143DOPC   C2116927   2.105   4.844   6.340  0.2264  0.0848 -0.1818
  143DOPC   O2216928   2.202   4.918   6.336 -0.0622 -0.5292 -0.3404
  143DOPC   C2216929   1.985   4.847   6.256  0.0567 -0.0138  0.1683
  143DOPC   H2R16930   1.911   4.927   6.281 -0.3739  0.0806 -1.2761
  143DOPC   H2S16931   1.924   4.754   6.256  1.7663 -1.1722 -0.3919
  143DOPC    C316932   2.270   4.568   6.402 -0.2421 -0.7085  0.4881
  143DOPC    HX16933   2.192   4.489   6.390  0.2594 -1.6133  2.6635
  143DOPC    HY16934   2.358   4.512   6.440  0.5591 -0.2596 -0.6330
  143DOPC   O3116935   2.307   4.619   6.269  0.0628  0.1736  0.2615
  143DOPC   C3116936   2.423   4.685   6.277  0.9517 -0.2669 -0.2788
  143DOPC   O3216937   2.498   4.677   6.370 -0.2356 -0.5843 -0.0075
  143DOPC   C3216938   2.458   4.765   6.152  0.6016  0.5468  0.1473
  143DOPC   H2X16939   2.514   4.691   6.091  0.1396 -0.0616  0.4633
  143DOPC   H2Y16940   2.366   4.793   6.097  1.2302  1.1745 -0.6181
  143DOPC   C2316941   2.027   4.879   6.105 -0.0623 -0.0718 -0.0785
  143DOPC   H3R16942   2.100   4.963   6.106  1.5124 -1.3795  0.7808
  143DOPC   H3S16943   1.944   4.918   6.043 -0.6676 -0.7856  0.2617
  143DOPC   C2416944   2.097   4.758   6.046 -0.1008 -0.0513  0.1433
  143DOPC   H4R16945   2.030   4.669   6.049  0.0351 -0.2211 -1.1241
  143DOPC   H4S16946   2.186   4.727   6.103 -0.0952  0.0336  0.1805
  143DOPC   C2516947   2.136   4.785   5.897  0.2501 -0.0665 -0.3354
  143DOPC   H5R16948   2.048   4.768   5.832 -0.6304 -3.1382  1.4527
  143DOPC   H5S16949   2.197   4.696   5.874 -0.3024 -0.5910  0.1857
  143DOPC   C2616950   2.219   4.915   5.868 -0.1302 -0.0292 -0.0471
  143DOPC   H6R16951   2.286   4.940   5.953 -0.1407 -0.5274  0.1081
  143DOPC   H6S16952   2.147   4.999   5.860  0.1144  0.0965 -1.0001
  143DOPC   C2716953   2.302   4.913   5.741  0.0096  0.1645  0.0592
  143DOPC   H7R16954   2.259   4.856   5.656 -0.1717 -0.8457  0.8170
  143DOPC   H7S16955   2.400   4.873   5.774  0.1501  0.2528 -0.2504
  143DOPC   C2816956   2.342   5.056   5.698  0.1610 -0.2483 -0.1353
  143DOPC   H8R16957   2.334   5.132   5.780 -1.1470 -0.9011  0.3739
  143DOPC   H8S16958   2.276   5.096   5.618 -1.2804  0.5242  1.3660
  143DOPC   C2916959   2.475   5.060   5.628 -0.2094 -0.1805 -0.1161
  143DOPC   H9R16960   2.556   5.111   5.683  0.0955 -0.1454 -0.5924
  143DOPC  C21016961   2.501   5.014   5.507  0.3257  0.3903  0.5552
  143DOPC  H10R16962   2.597   5.034   5.457  0.8484 -0.0559  1.3396
  143DOPC  C21116963   2.400   4.939   5.421 -0.1382 -0.5078 -0.5979
  143DOPC  H11R16964   2.298   4.940   5.463 -0.1124  1.0371 -0.4970
  143DOPC  H11S16965   2.428   4.835   5.396  0.4697 -0.4431 -0.2283
  143DOPC  C21216966   2.394   5.011   5.285 -0.4422  0.2132 -0.3238
  143DOPC  H12R16967   2.492   5.001   5.233 -1.0902 -0.4935 -1.4190
  143DOPC  H12S16968   2.370   5.119   5.297 -0.5345  0.1692 -0.1085
  143DOPC  C21316969   2.295   4.949   5.191 -0.2315 -0.2394  0.1272
  143DOPC  H13R16970   2.283   5.027   5.114  3.3719  0.7277  0.3651
  143DOPC  H13S16971   2.195   4.942   5.240 -0.0882  1.8100  0.7804
  143DOPC  C21416972   2.327   4.814   5.122  1.5570 -0.0272 -0.0983
  143DOPC  H14R16973   2.237   4.783   5.065  0.4284  0.2484  1.4665
  143DOPC  H14S16974   2.337   4.734   5.199  1.5843 -0.6368 -0.7221
  143DOPC  C21516975   2.451   4.810   5.033  0.7224 -0.1614 -0.9059
  143DOPC  H15R16976   2.482   4.705   5.015 -0.1236 -0.7338  0.8093
  143DOPC  H15S16977   2.535   4.851   5.094  0.1699 -0.9734  0.4221
  143DOPC  C21616978   2.439   4.879   4.897 -0.7045 -0.3262 -0.4391
  143DOPC  H16R16979   2.538   4.917   4.865 -0.5841  0.9877  1.3466
  143DOPC  H16S16980   2.375   4.968   4.911  1.4418  1.1186  0.8666
  143DOPC  C21716981   2.379   4.792   4.785 -0.6467 -0.0926  0.2908
  143DOPC  H17R16982   2.443   4.701   4.789  1.4256  1.3094  1.1499
  143DOPC  H17S16983   2.401   4.847   4.691  1.4832 -1.6148 -0.1802
  143DOPC  C21816984   2.227   4.765   4.787 -0.3000  0.0222  0.3333
  143DOPC  H18R16985   2.198   4.695   4.705  0.2765  1.1717 -0.8885
  143DOPC  H18S16986   2.179   4.864   4.779  0.6500  0.3746 -1.6777
  143DOPC  H18T16987   2.191   4.713   4.878 -0.4969  0.6050  0.5900
  143DOPC   C3316988   2.534   4.889   6.193  0.5285 -0.8258 -0.3374
  143DOPC   H3X16989   2.630   4.859   6.240  0.8382 -0.6919 -0.8869
  143DOPC   H3Y16990   2.475   4.958   6.258  1.8382  0.1716 -0.1645
  143DOPC   C3416991   2.573   4.973   6.073  0.4541 -0.0205 -0.0510
  143DOPC   H4X16992   2.490   5.040   6.042  2.9374  3.3643  0.0558
  143DOPC   H4Y16993   2.606   4.904   5.994 -0.0071  0.0212 -0.2830
  143DOPC   C3516994   2.690   5.077   6.093  0.1183  0.2974  0.0834
  143DOPC   H5X16995   2.778   5.021   6.130 -0.0627 -0.4953 -0.6494
  143DOPC   H5Y16996   2.675   5.167   6.157  0.7518  2.2533 -2.3535
  143DOPC   C3616997   2.736   5.144   5.958 -0.2919  0.1350 -0.3704
  143DOPC   H6X16998   2.759   5.056   5.894 -2.3693  0.9052 -2.2827
  143DOPC   H6Y16999   2.660   5.199   5.900 -1.0962  0.5385  1.0320
  143DOPC   C3717000   2.857   5.237   5.962  0.5447  0.2179 -0.4252
  143DOPC   H7X17001   2.833   5.337   6.003 -1.2483  0.1038 -1.1203
  143DOPC   H7Y17002   2.928   5.197   6.038  0.6209  2.0918  0.5462
  143DOPC   C3817003   2.906   5.281   5.821  0.4322  0.1554 -0.2854
  143DOPC   H8X17004   2.976   5.204   5.783  0.9532  0.0624  0.8220
  143DOPC   H8Y17005   2.968   5.371   5.843 -0.4674  0.5169  0.8686
  143DOPC   C3917006   2.804   5.322   5.717  0.2902 -0.2889 -0.4768
  143DOPC   H9X17007   2.727   5.392   5.750  1.2417  0.5229  0.0810
  143DOPC  C31017008   2.780   5.263   5.597 -0.2437  0.3146 -0.0004
  143DOPC  H10X17009   2.687   5.290   5.545  0.6025 -0.5539 -2.0800
  143DOPC  C31117010   2.873   5.153   5.538  0.2164  0.2299  0.2517
  143DOPC  H11X17011   2.848   5.053   5.579 -0.6496 -0.4394 -1.8054
  143DOPC  H11Y17012   2.978   5.174   5.568  1.3828 -1.7098 -2.1405
  143DOPC  C31217013   2.868   5.132   5.389 -0.0864  0.1201  0.0060
  143DOPC  H12X17014   2.881   5.229   5.336  1.8604  0.5747  1.1900
  143DOPC  H12Y17015   2.774   5.081   5.360 -0.9733  0.0611  2.7368
  143DOPC  C31317016   2.993   5.057   5.341  0.8041 -0.3051 -0.6609
  143DOPC  H13X17017   3.087   5.107   5.375 -0.3923  1.3886  0.2826
  143DOPC  H13Y17018   2.998   4.956   5.387  0.2862 -1.0704 -2.2004
  143DOPC  C31417019   2.981   5.038   5.190 -0.2208 -0.4158 -0.6607
  143DOPC  H14X17020   2.897   4.967   5.179 -0.9286 -0.0265  1.7506
  143DOPC  H14Y17021   2.959   5.131   5.132  0.5267 -0.1885 -0.5994
  143DOPC  C31517022   3.121   4.978   5.141  0.0022  0.4183 -0.7247
  143DOPC  H15X17023   3.129   4.875   5.183 -1.8708 -0.3362 -2.0467
  143DOPC  H15Y17024   3.213   5.030   5.174 -0.6557 -1.0527  4.2182
  143DOPC  C31617025   3.122   4.955   4.990 -0.5929 -0.2562 -0.2295
  143DOPC  H16X17026   3.028   4.899   4.975 -0.0298 -0.9274 -1.4332
  143DOPC  H16Y17027   3.120   5.050   4.933  0.6537  0.8687  1.4906
  143DOPC  C31717028   3.246   4.872   4.955  0.5179  0.3802 -0.2358
  143DOPC  H17X17029   3.337   4.919   5.000 -0.6058  1.6126  0.8378
  143DOPC  H17Y17030   3.231   4.772   5.001  1.9421  0.4622  0.4763
  143DOPC  C31817031   3.267   4.851   4.803 -0.1641  0.0783  0.1171
  143DOPC  H18X17032   3.353   4.782   4.787 -1.0809 -1.0294 -0.1762
  143DOPC  H18Y17033   3.182   4.799   4.755 -0.0237  0.8388 -1.0082
  143DOPC  H18Z17034   3.290   4.948   4.754 -1.0213 -0.1365 -0.7554
  144DOPC     N17035   4.617   3.028   7.305  0.2177  0.6497  0.2144
  144DOPC   C1217036   4.651   2.918   7.202 -0.1792  0.2320  0.3787
  144DOPC  H12A17037   4.629   2.820   7.242  0.7920  0.6420  2.0227
  144DOPC  H12B17038   4.757   2.911   7.183 -0.2344 -0.1392  0.1866
  144DOPC   C1317039   4.472   3.029   7.355 -0.3826 -0.9806  0.0110
  144DOPC  H13A17040   4.455   3.101   7.434  1.5686 -0.4552  0.0218
  144DOPC  H13B17041   4.406   3.046   7.271  0.3714 -1.0406 -0.6054
  144DOPC  H13C17042   4.446   2.929   7.388 -1.8536 -1.4473 -2.3395
  144DOPC   C1417043   4.644   3.159   7.240 -0.1759 -0.1745  0.1753
  144DOPC  H14A17044   4.557   3.192   7.185 -0.5810  1.4998  1.7406
  144DOPC  H14B17045   4.668   3.246   7.299 -1.2947  1.5996 -1.8178
  144DOPC  H14C17046   4.730   3.148   7.175 -1.9280  0.1126 -2.3545
  144DOPC   C1517047   4.703   3.028   7.429 -0.2085 -0.5031  0.0350
  144DOPC  H15A17048   4.680   2.947   7.496  0.2726 -0.6400  0.0357
  144DOPC  H15B17049   4.690   3.121   7.484 -1.8272  0.1680 -1.3769
  144DOPC  H15C17050   4.801   3.001   7.394 -0.5033 -2.2346  0.4886
  144DOPC   C1117051   4.586   2.930   7.062  0.0617 -0.0477 -0.1103
  144DOPC  H11A17052   4.616   3.030   7.026  1.1617  0.5296  2.2441
  144DOPC  H11B17053   4.632   2.852   6.996 -0.7893 -1.4703  0.9091
  144DOPC     P17054   4.372   2.790   7.048 -0.5038 -0.0544  0.1842
  144DOPC   O1317055   4.228   2.809   7.043  0.0787 -0.7127 -0.1284
  144DOPC   O1417056   4.428   2.701   7.154 -0.2451  0.5098  0.3395
  144DOPC   O1217057   4.445   2.931   7.066  0.4997  0.1741  0.7296
  144DOPC   O1117058   4.430   2.749   6.907  0.4008 -0.7719  0.4380
  144DOPC    C117059   4.417   2.839   6.797 -0.3733 -0.8936 -0.4383
  144DOPC    HA17060   4.494   2.809   6.723 -0.5496 -1.1846 -0.5048
  144DOPC    HB17061   4.445   2.942   6.827  1.1758 -0.7784 -2.1106
  144DOPC    C217062   4.292   2.833   6.715 -0.4241  0.0475 -0.4647
  144DOPC    HS17063   4.210   2.861   6.784 -0.4369 -0.5853 -0.2238
  144DOPC   O2117064   4.280   2.698   6.668 -0.0619  0.3531 -0.0360
  144DOPC   C2117065   4.164   2.640   6.696  0.7998  0.3615  0.2883
  144DOPC   O2217066   4.077   2.687   6.770  0.0560 -0.2626  0.6147
  144DOPC   C2217067   4.164   2.507   6.622 -0.3964 -0.3180  0.2381
  144DOPC   H2R17068   4.227   2.444   6.688  3.1049 -0.2525 -2.7495
  144DOPC   H2S17069   4.222   2.516   6.528  0.2160 -0.8237  0.5605
  144DOPC    C317070   4.286   2.925   6.591  0.7683 -0.6461  0.1474
  144DOPC    HX17071   4.370   2.888   6.528  0.6860 -1.7530  0.6627
  144DOPC    HY17072   4.314   3.028   6.623  2.3119 -1.2719  0.9475
  144DOPC   O3117073   4.168   2.918   6.507 -0.9041  0.3154  0.2842
  144DOPC   C3117074   4.068   2.993   6.546 -0.3784  0.0967  0.6825
  144DOPC   O3217075   4.063   3.055   6.649 -0.3814 -0.2195 -0.1601
  144DOPC   C3217076   3.950   2.962   6.445  0.0570  0.4016  0.9512
  144DOPC   H2X17077   3.914   3.055   6.396 -1.1975  0.3595  1.7540
  144DOPC   H2Y17078   3.978   2.888   6.367  0.0877  2.6177 -1.2572
  144DOPC   C2317079   4.034   2.446   6.595  1.0329 -0.5224 -0.2009
  144DOPC   H3R17080   3.972   2.514   6.533  0.8869 -1.8652 -1.5987
  144DOPC   H3S17081   3.963   2.428   6.679 -0.0407 -0.0622 -0.9879
  144DOPC   C2417082   4.052   2.309   6.524 -1.1558 -0.0193  0.1255
  144DOPC   H4R17083   4.116   2.252   6.594  0.1801  0.8915 -0.2904
  144DOPC   H4S17084   4.112   2.323   6.431 -2.8772 -1.5386 -1.2781
  144DOPC   C2517085   3.928   2.232   6.484  0.0916 -1.0762 -0.7288
  144DOPC   H5R17086   3.859   2.305   6.437 -3.3747 -3.4131  0.3189
  144DOPC   H5S17087   3.889   2.206   6.585  0.3359 -0.2921 -0.4231
  144DOPC   C2617088   3.967   2.122   6.384  0.5090  0.4997  0.9892
  144DOPC   H6R17089   3.881   2.053   6.397  1.0916 -0.1307  1.5577
  144DOPC   H6S17090   4.054   2.058   6.406  1.1028  1.2394  0.8455
  144DOPC   C2717091   3.971   2.170   6.239  0.3547  0.4650  0.3715
  144DOPC   H7R17092   3.987   2.085   6.170 -1.6467  0.8254 -0.5837
  144DOPC   H7S17093   4.057   2.240   6.229  2.1564 -1.4673  1.4412
  144DOPC   C2817094   3.845   2.232   6.180  0.5000  0.1127  0.2423
  144DOPC   H8R17095   3.860   2.259   6.074  0.8672 -0.5571  0.1179
  144DOPC   H8S17096   3.830   2.332   6.226 -0.2561  0.5851 -0.9920
  144DOPC   C2917097   3.731   2.135   6.206 -0.2934 -0.0284 -0.3711
  144DOPC   H9R17098   3.711   2.121   6.313  1.4062 -1.1226 -0.1573
  144DOPC  C21017099   3.660   2.069   6.119  0.1113  0.2934  0.5820
  144DOPC  H10R17100   3.581   2.001   6.153  0.9167 -0.4548  1.0142
  144DOPC  C21117101   3.672   2.089   5.965 -0.1013  0.1056 -0.1293
  144DOPC  H11R17102   3.752   2.158   5.933  1.1022 -0.9511  0.5149
  144DOPC  H11S17103   3.581   2.138   5.924 -0.3162 -2.1162 -2.5562
  144DOPC  C21217104   3.706   1.955   5.897  0.1459  0.3598  0.1480
  144DOPC  H12R17105   3.788   1.908   5.955 -1.5344 -0.5043  1.9451
  144DOPC  H12S17106   3.738   1.965   5.791  3.1019  0.6721  0.9819
  144DOPC  C21317107   3.593   1.856   5.894 -0.2126  0.2422  0.0382
  144DOPC  H13R17108   3.548   1.837   5.993 -2.1982 -0.3985 -0.9285
  144DOPC  H13S17109   3.638   1.763   5.853 -0.5807 -0.2189  0.6601
  144DOPC  C21417110   3.478   1.893   5.802 -0.4375 -1.2934  0.0597
  144DOPC  H14R17111   3.520   1.929   5.706  0.1740 -5.2818 -1.3633
  144DOPC  H14S17112   3.419   1.973   5.851  1.1890 -0.6143  1.0014
  144DOPC  C21517113   3.377   1.784   5.768 -1.0051 -0.2474 -0.5456
  144DOPC  H15R17114   3.333   1.729   5.854 -0.0286  1.7246  1.3165
  144DOPC  H15S17115   3.435   1.713   5.706  0.4307  0.8852 -0.5819
  144DOPC  C21617116   3.255   1.811   5.680 -0.1933 -0.5614  0.0215
  144DOPC  H16R17117   3.282   1.842   5.576 -1.8607 -2.8208 -1.1931
  144DOPC  H16S17118   3.192   1.895   5.717 -0.6325  0.0764 -2.0162
  144DOPC  C21717119   3.173   1.687   5.640  0.2402 -0.2179  0.2583
  144DOPC  H17R17120   3.145   1.621   5.726  1.2709 -0.8827  0.1076
  144DOPC  H17S17121   3.231   1.627   5.567  0.3641  0.9710 -0.6402
  144DOPC  C21817122   3.048   1.724   5.554 -0.2305 -0.3339  0.2218
  144DOPC  H18R17123   2.962   1.764   5.611 -0.2800 -0.9539  0.5874
  144DOPC  H18S17124   3.010   1.631   5.505 -0.3090  0.1127 -0.5963
  144DOPC  H18T17125   3.071   1.803   5.479  0.7762  0.2313  1.0964
  144DOPC   C3317126   3.831   2.903   6.527 -0.7132 -0.2900  0.4847
  144DOPC   H3X17127   3.797   2.993   6.583 -1.8666  0.4780 -1.3353
  144DOPC   H3Y17128   3.878   2.820   6.583  0.1947 -0.2873 -0.2593
  144DOPC   C3417129   3.706   2.855   6.448 -0.2765  0.8621  0.4645
  144DOPC   H4X17130   3.613   2.846   6.508  0.0340 -1.2570  0.7190
  144DOPC   H4Y17131   3.735   2.753   6.413 -1.3782 -0.3726  2.8364
  144DOPC   C3517132   3.679   2.948   6.325  0.3348 -0.1236 -0.1162
  144DOPC   H5X17133   3.759   2.920   6.252 -1.1020  0.9333 -2.2144
  144DOPC   H5Y17134   3.699   3.051   6.362 -3.8010  1.1748 -0.9739
  144DOPC   C3617135   3.535   2.942   6.270  0.2515 -0.1241  1.1809
  144DOPC   H6X17136   3.518   2.839   6.232  0.1225  0.3842 -0.1969
  144DOPC   H6Y17137   3.467   2.973   6.352 -2.5742  1.0070 -1.3855
  144DOPC   C3717138   3.502   3.032   6.144 -0.2707 -0.0856 -0.0660
  144DOPC   H7X17139   3.520   3.137   6.176 -1.7972 -0.5625  2.6937
  144DOPC   H7Y17140   3.566   3.002   6.058  0.8998  1.8941  0.0364
  144DOPC   C3817141   3.360   3.035   6.100 -0.3079 -0.2912 -0.1607
  144DOPC   H8X17142   3.349   3.129   6.043  0.1382 -0.4331 -0.4850
  144DOPC   H8Y17143   3.291   3.038   6.187 -0.0187 -1.3278  0.1222
  144DOPC   C3917144   3.320   2.918   6.012 -0.3407 -0.0400 -0.2072
  144DOPC   H9X17145   3.308   2.818   6.057  1.6698 -0.1623  0.1547
  144DOPC  C31017146   3.316   2.918   5.875 -0.1054 -0.0692 -0.5577
  144DOPC  H10X17147   3.275   2.824   5.837 -1.6935 -0.3915  1.7640
  144DOPC  C31117148   3.334   3.036   5.786 -1.0522  0.1977 -0.4236
  144DOPC  H11X17149   3.394   3.001   5.699  0.6139  0.8057  0.4362
  144DOPC  H11Y17150   3.383   3.115   5.846 -2.4215  1.4618 -0.9106
  144DOPC  C31217151   3.200   3.082   5.735 -0.4518 -0.9300 -0.2312
  144DOPC  H12X17152   3.142   3.139   5.810 -2.0116 -0.7924 -1.4712
  144DOPC  H12Y17153   3.145   2.997   5.689 -0.3362 -0.2577 -1.6728
  144DOPC  C31317154   3.218   3.185   5.617 -0.0167  0.0787  0.0757
  144DOPC  H13X17155   3.256   3.278   5.664 -0.8708  0.0482  0.8663
  144DOPC  H13Y17156   3.293   3.149   5.544  0.7356  0.3888  0.6817
  144DOPC  C31417157   3.090   3.199   5.535 -0.2773 -0.6400 -0.6720
  144DOPC  H14X17158   3.056   3.110   5.477 -2.5460 -1.1043  1.2489
  144DOPC  H14Y17159   3.010   3.216   5.610  2.2434  1.9296  1.6756
  144DOPC  C31517160   3.099   3.322   5.443  0.4804  0.2420  0.8766
  144DOPC  H15X17161   3.125   3.416   5.497 -0.7962  0.6781  0.7884
  144DOPC  H15Y17162   2.996   3.344   5.407  1.0985 -2.0514 -2.7606
  144DOPC  C31617163   3.183   3.292   5.315  0.7159  0.1362 -0.8628
  144DOPC  H16X17164   3.282   3.253   5.346  0.5526  0.4717  0.1131
  144DOPC  H16Y17165   3.133   3.203   5.269  0.5437 -0.4865  0.4950
  144DOPC  C31717166   3.187   3.421   5.224  0.5340 -0.1619 -0.0256
  144DOPC  H17X17167   3.109   3.491   5.260  1.5827  0.8553  0.3320
  144DOPC  H17Y17168   3.287   3.464   5.246 -0.0248 -0.2679  3.2426
  144DOPC  C31817169   3.166   3.399   5.075  0.0677 -0.3477  0.4900
  144DOPC  H18X17170   3.168   3.486   5.005 -0.9224 -0.9162 -0.2651
  144DOPC  H18Y17171   3.245   3.330   5.039  0.0330 -2.4531  3.9834
  144DOPC  H18Z17172   3.066   3.357   5.054 -0.9389  1.7859  0.7739
  145DOPC     N17173   3.530   5.038   7.136 -0.1968 -0.8408 -0.6506
  145DOPC   C1217174   3.528   5.110   7.005  0.5953 -0.0345 -0.1846
  145DOPC  H12A17175   3.442   5.077   6.949 -1.5665  0.8555  2.3814
  145DOPC  H12B17176   3.615   5.072   6.954  1.0654 -1.6425  1.7128
  145DOPC   C1317177   3.665   5.046   7.199  0.0231  0.8269  0.3592
  145DOPC  H13A17178   3.688   5.150   7.216  0.6927  0.6093  0.8731
  145DOPC  H13B17179   3.663   5.003   7.298 -2.5995  0.5948  0.2729
  145DOPC  H13C17180   3.744   4.992   7.147  0.9426  0.7222  1.8107
  145DOPC   C1417181   3.500   4.896   7.120  0.4600 -0.1399 -0.7279
  145DOPC  H14A17182   3.524   4.842   7.210 -0.9735 -3.4715 -2.1766
  145DOPC  H14B17183   3.399   4.872   7.092  0.4499 -1.6181  0.4630
  145DOPC  H14C17184   3.560   4.852   7.041  1.6232  0.4187 -0.1851
  145DOPC   C1517185   3.436   5.090   7.231 -0.6244  0.1857  0.7038
  145DOPC  H15A17186   3.438   5.032   7.322 -1.2918  0.7075  1.0526
  145DOPC  H15B17187   3.331   5.086   7.207 -0.5986  2.0183  0.1665
  145DOPC  H15C17188   3.456   5.192   7.260 -1.0669 -0.1561  2.2759
  145DOPC   C1117189   3.541   5.266   6.982 -0.8464  0.7395 -0.7437
  145DOPC  H11A17190   3.526   5.292   6.876  1.1075 -1.7283 -1.7233
  145DOPC  H11B17191   3.457   5.322   7.028  0.3698  1.0981  1.1810
  145DOPC     P17192   3.663   5.427   7.143 -0.1553 -0.1280  0.0976
  145DOPC   O1317193   3.794   5.496   7.152 -0.2148  0.3589 -0.1771
  145DOPC   O1417194   3.603   5.373   7.268 -0.1864  0.0407  0.6308
  145DOPC   O1217195   3.670   5.305   7.034  0.2529  0.1762  0.5861
  145DOPC   O1117196   3.563   5.531   7.079  0.3504  0.4093  0.0222
  145DOPC    C117197   3.594   5.653   7.008 -0.3466  0.2032 -0.5182
  145DOPC    HA17198   3.680   5.699   7.062  1.1536 -1.3138 -1.5274
  145DOPC    HB17199   3.513   5.729   7.013 -1.7601 -1.1218 -2.3319
  145DOPC    C217200   3.624   5.635   6.856 -0.1818 -0.1340 -0.2438
  145DOPC    HS17201   3.534   5.589   6.809 -2.2699  2.1747  1.2603
  145DOPC   O2117202   3.745   5.555   6.841 -0.2116  0.5462 -0.5562
  145DOPC   C2117203   3.735   5.457   6.751  0.3853  0.1494 -0.3070
  145DOPC   O2217204   3.645   5.440   6.674  0.3365  0.1991  0.3003
  145DOPC   C2217205   3.855   5.364   6.762  0.2772  0.2962  0.4255
  145DOPC   H2R17206   3.836   5.296   6.847 -1.9163 -1.6218 -1.4455
  145DOPC   H2S17207   3.948   5.425   6.768  1.2635 -0.7326 -2.5070
  145DOPC    C317208   3.629   5.773   6.781 -0.2781 -0.2354 -0.4117
  145DOPC    HX17209   3.696   5.837   6.842 -1.5491  0.8626 -0.1389
  145DOPC    HY17210   3.529   5.820   6.784  0.5405  1.5271  0.3917
  145DOPC   O3117211   3.686   5.751   6.650 -0.8284 -0.6583 -0.2660
  145DOPC   C3117212   3.604   5.734   6.552  0.1294  0.2360  0.0368
  145DOPC   O3217213   3.482   5.745   6.566 -0.9500 -0.5624 -0.0099
  145DOPC   C3217214   3.673   5.713   6.418 -0.5701 -0.5564  0.4347
  145DOPC   H2X17215   3.633   5.789   6.348 -1.7438  1.0583  2.7427
  145DOPC   H2Y17216   3.781   5.731   6.435 -0.0164 -0.4825 -2.6500
  145DOPC   C2317217   3.883   5.279   6.632 -0.0729 -0.2353  0.0759
  145DOPC   H3R17218   3.790   5.231   6.593  0.6113 -2.0093  0.5327
  145DOPC   H3S17219   3.943   5.189   6.658 -1.6099 -2.0766 -2.2317
  145DOPC   C2417220   3.967   5.352   6.525 -0.5181  0.1644 -0.1530
  145DOPC   H4R17221   4.075   5.365   6.544 -0.5596 -1.0776  1.0960
  145DOPC   H4S17222   3.915   5.450   6.516  0.1475  0.6571  1.0894
  145DOPC   C2517223   3.959   5.276   6.392  0.1216  0.0943  0.4284
  145DOPC   H5R17224   3.979   5.355   6.316  1.4374  1.9767  2.5966
  145DOPC   H5S17225   3.861   5.224   6.385  0.9254 -1.4445  0.0071
  145DOPC   C2617226   4.069   5.172   6.371 -0.1988 -0.4791 -0.3338
  145DOPC   H6R17227   4.084   5.118   6.467 -2.0960  0.0364  0.2874
  145DOPC   H6S17228   4.162   5.229   6.350  0.1657 -1.0054 -0.1860
  145DOPC   C2717229   4.054   5.068   6.264  0.3514 -0.0781 -0.3880
  145DOPC   H7R17230   3.958   5.016   6.282  0.9300 -0.2537  2.7594
  145DOPC   H7S17231   4.129   4.988   6.283  1.0943 -0.5958 -4.5152
  145DOPC   C2817232   4.044   5.105   6.115 -0.5413 -0.3476 -0.1811
  145DOPC   H8R17233   4.121   5.182   6.096 -0.1667 -0.7504 -0.3240
  145DOPC   H8S17234   3.944   5.147   6.091 -0.2443  0.9513  0.7960
  145DOPC   C2917235   4.068   4.982   6.032  0.4147 -0.0366  1.0403
  145DOPC   H9R17236   4.020   4.892   6.074 -1.3105  1.0978  1.5933
  145DOPC  C21017237   4.130   4.983   5.917 -0.4006 -0.3508  0.2327
  145DOPC  H10R17238   4.126   4.894   5.853 -1.4366  0.8231 -1.4211
  145DOPC  C21117239   4.172   5.095   5.825  0.4997  0.0145 -0.1714
  145DOPC  H11R17240   4.283   5.102   5.831  0.7000 -1.8224 -0.9122
  145DOPC  H11S17241   4.123   5.189   5.858 -0.7152 -0.3921 -0.7650
  145DOPC  C21217242   4.139   5.067   5.677 -0.1174  0.7350 -0.5308
  145DOPC  H12R17243   4.033   5.034   5.668  0.0425 -0.1752  0.6571
  145DOPC  H12S17244   4.208   4.983   5.651 -0.4682 -0.2318  1.4579
  145DOPC  C21317245   4.162   5.190   5.584  0.2858  0.4001  0.2715
  145DOPC  H13R17246   4.264   5.229   5.604  0.5156 -1.0380  2.1816
  145DOPC  H13S17247   4.089   5.270   5.610 -0.6995  0.6849 -2.9414
  145DOPC  C21417248   4.143   5.160   5.427 -0.3127 -0.1280 -0.0061
  145DOPC  H14R17249   4.046   5.108   5.409  0.2310 -0.8452 -0.9490
  145DOPC  H14S17250   4.221   5.088   5.396 -0.2109  0.6825 -1.7662
  145DOPC  C21517251   4.174   5.288   5.346  0.0679 -0.3526 -0.2056
  145DOPC  H15R17252   4.275   5.329   5.372 -0.0331 -0.2295 -0.0026
  145DOPC  H15S17253   4.100   5.367   5.368 -1.4787 -2.4311  2.8368
  145DOPC  C21617254   4.186   5.258   5.197  0.0060  0.4522  0.0959
  145DOPC  H16R17255   4.080   5.248   5.165 -1.1382  1.8255  3.0694
  145DOPC  H16S17256   4.225   5.155   5.179 -0.5001  0.1523  0.6559
  145DOPC  C21717257   4.272   5.355   5.127 -0.2941  0.4341 -0.5903
  145DOPC  H17R17258   4.375   5.328   5.157 -0.8508 -1.1432  0.0277
  145DOPC  H17S17259   4.254   5.460   5.160 -2.0382 -0.3574  1.1814
  145DOPC  C21817260   4.265   5.328   4.975 -0.1367 -0.0220  0.1939
  145DOPC  H18R17261   4.335   5.396   4.922  0.4107  0.1190  1.0704
  145DOPC  H18S17262   4.160   5.318   4.939  0.2334 -1.9308 -0.4869
  145DOPC  H18T17263   4.311   5.229   4.956  0.9725  0.6981 -1.1035
  145DOPC   C3317264   3.638   5.569   6.366 -0.3392 -0.0301  0.3483
  145DOPC   H3X17265   3.528   5.571   6.346 -0.1961 -0.4764 -0.5159
  145DOPC   H3Y17266   3.658   5.500   6.450  0.0073  1.7735  1.8155
  145DOPC   C3417267   3.721   5.524   6.241 -0.1992  0.1129 -0.7458
  145DOPC   H4X17268   3.698   5.419   6.215  0.3097 -0.0206 -0.6756
  145DOPC   H4Y17269   3.827   5.518   6.275  0.1437  2.4946 -1.2521
  145DOPC   C3517270   3.713   5.614   6.120  0.1293  0.0298  0.2801
  145DOPC   H5X17271   3.742   5.720   6.138  1.1791 -0.4801  1.7965
  145DOPC   H5Y17272   3.610   5.616   6.078  1.3303  1.5175 -2.9429
  145DOPC   C3617273   3.798   5.577   5.994 -0.3445 -0.5212  0.0318
  145DOPC   H6X17274   3.786   5.660   5.921 -0.4679 -1.0144 -0.5176
  145DOPC   H6Y17275   3.907   5.573   6.019 -0.7218  0.0425  1.9198
  145DOPC   C3717276   3.755   5.441   5.929 -0.2342  0.0102  0.2696
  145DOPC   H7X17277   3.763   5.357   6.002 -0.0842  1.4668  2.0024
  145DOPC   H7Y17278   3.649   5.441   5.898 -0.1173  0.2582 -0.1362
  145DOPC   C3817279   3.841   5.415   5.801  1.0525 -0.0376  0.0287
  145DOPC   H8X17280   3.817   5.308   5.782 -1.0656  0.8311 -2.8960
  145DOPC   H8Y17281   3.949   5.434   5.820  0.8813  1.1341 -0.1231
  145DOPC   C3917282   3.792   5.504   5.690  0.4875 -0.3705 -0.1506
  145DOPC   H9X17283   3.689   5.476   5.663  0.2674  0.4572 -0.1699
  145DOPC  C31017284   3.860   5.593   5.618 -0.7280 -1.0997  0.2239
  145DOPC  H10X17285   3.808   5.629   5.528  1.5770 -1.7370 -1.4847
  145DOPC  C31117286   4.009   5.631   5.633 -0.2137 -0.2805  0.0906
  145DOPC  H11X17287   4.072   5.565   5.569 -0.0259 -0.4538  0.4564
  145DOPC  H11Y17288   4.038   5.615   5.738 -0.0489 -0.8771 -0.0448
  145DOPC  C31217289   4.037   5.780   5.592 -0.2040  0.2172  0.2011
  145DOPC  H12X17290   3.980   5.839   5.667 -0.8831  0.4519 -0.4846
  145DOPC  H12Y17291   4.001   5.802   5.490  0.4402  1.7448  0.2747
  145DOPC  C31317292   4.177   5.825   5.615 -0.3700 -0.4528  0.1740
  145DOPC  H13X17293   4.210   5.798   5.718  0.9810  1.7225  0.3769
  145DOPC  H13Y17294   4.243   5.783   5.535  0.3707  3.4998 -1.5284
  145DOPC  C31417295   4.192   5.980   5.622 -0.2805 -0.1194 -0.2712
  145DOPC  H14X17296   4.123   6.014   5.703  2.6753  0.8972  2.0088
  145DOPC  H14Y17297   4.294   6.007   5.656 -0.5178  0.1583  0.2363
  145DOPC  C31517298   4.151   6.048   5.484 -0.0285  0.5115  0.0090
  145DOPC  H15X17299   4.042   6.050   5.464  0.3149  0.1129 -2.2225
  145DOPC  H15Y17300   4.203   5.983   5.410 -1.3126  0.2367 -0.6859
  145DOPC  C31617301   4.206   6.191   5.464  0.8002 -0.3251  0.0397
  145DOPC  H16X17302   4.142   6.247   5.536  0.2946 -2.4150  1.2962
  145DOPC  H16Y17303   4.312   6.202   5.494  0.7813  1.6043 -0.4432
  145DOPC  C31717304   4.202   6.247   5.318 -0.2653 -0.2762 -0.7018
  145DOPC  H17X17305   4.240   6.351   5.307  0.1812  0.2431  3.6363
  145DOPC  H17Y17306   4.286   6.193   5.269 -1.1523 -0.3959 -2.1348
  145DOPC  C31817307   4.065   6.232   5.239 -0.9381 -0.0615  1.0248
  145DOPC  H18X17308   4.002   6.152   5.283 -1.2060 -0.9991 -0.9591
  145DOPC  H18Y17309   4.007   6.327   5.248 -2.6837 -0.8621 -1.0030
  145DOPC  H18Z17310   4.078   6.209   5.131 -3.0528 -0.6298  0.8454
  146DOPC     N17311   6.371   3.752   7.172  0.5842  0.9686 -0.3348
  146DOPC   C1217312   6.480   3.790   7.079 -0.0090 -0.1844  0.7592
  146DOPC  H12A17313   6.492   3.704   7.013 -1.2287  1.2778 -1.5023
  146DOPC  H12B17314   6.569   3.804   7.137 -1.3137  2.0591  2.3590
  146DOPC   C1317315   6.400   3.615   7.234 -0.2632  0.2351  0.0002
  146DOPC  H13A17316   6.403   3.543   7.154  0.3248  0.7252 -0.4186
  146DOPC  H13B17317   6.493   3.603   7.287 -0.0704  1.1907 -0.1101
  146DOPC  H13C17318   6.323   3.588   7.306 -0.6588  0.2888 -0.4008
  146DOPC   C1417319   6.238   3.737   7.101 -0.3992 -0.5148  0.3185
  146DOPC  H14A17320   6.163   3.694   7.165 -0.7324  0.5957  0.7020
  146DOPC  H14B17321   6.206   3.840   7.092 -0.2080 -0.3399  1.4412
  146DOPC  H14C17322   6.244   3.683   7.008 -0.7793  1.3919 -0.8713
  146DOPC   C1517323   6.364   3.845   7.292  0.9423  1.0047 -0.2356
  146DOPC  H15A17324   6.458   3.833   7.343  1.1781 -2.4104 -1.2248
  146DOPC  H15B17325   6.284   3.823   7.361  0.6255 -1.0664 -1.1664
  146DOPC  H15C17326   6.359   3.949   7.266  1.6897  1.5377  1.5973
  146DOPC   C1117327   6.466   3.916   6.990 -0.0588  0.0410 -0.5409
  146DOPC  H11A17328   6.565   3.928   6.940 -0.0912 -1.1402 -0.9355
  146DOPC  H11B17329   6.392   3.889   6.911 -0.8918 -1.2437  0.6485
  146DOPC     P17330   6.313   4.134   7.019 -0.0153 -0.1716 -0.0291
  146DOPC   O1317331   6.356   4.276   7.044  0.4093 -0.1345  0.4576
  146DOPC   O1417332   6.192   4.091   7.086 -0.2118 -0.1934  0.3581
  146DOPC   O1217333   6.430   4.032   7.062  0.1042  0.1577  0.0826
  146DOPC   O1117334   6.303   4.122   6.856  0.6245  0.7163  0.0540
  146DOPC    C117335   6.397   4.165   6.771 -0.3684  0.1929  0.2076
  146DOPC    HA17336   6.494   4.177   6.825  1.0321  1.0663 -2.3372
  146DOPC    HB17337   6.359   4.262   6.733 -1.2647  0.5940  1.9910
  146DOPC    C217338   6.416   4.059   6.654  0.6420 -0.2351  0.5265
  146DOPC    HS17339   6.313   4.020   6.637  0.1691 -0.2245  2.9719
  146DOPC   O2117340   6.507   3.952   6.677 -0.0318 -0.5830 -0.2404
  146DOPC   C2117341   6.477   3.834   6.619 -0.2507 -0.3971 -0.5158
  146DOPC   O2217342   6.372   3.814   6.564 -0.1154  0.0984  0.1924
  146DOPC   C2217343   6.580   3.732   6.661  0.4025  0.0686  0.5124
  146DOPC   H2R17344   6.521   3.642   6.688 -0.9483  0.7390 -0.1054
  146DOPC   H2S17345   6.634   3.773   6.749 -1.4998 -0.5237  2.0190
  146DOPC    C317346   6.457   4.140   6.520 -1.0109  0.2759  0.2489
  146DOPC    HX17347   6.555   4.187   6.541  0.2286 -1.8684 -0.3923
  146DOPC    HY17348   6.384   4.222   6.503 -2.1234 -0.8467 -0.6007
  146DOPC   O3117349   6.446   4.054   6.396 -0.0157 -0.1927  0.1926
  146DOPC   C3117350   6.564   4.010   6.355  0.2003 -0.4302  0.2296
  146DOPC   O3217351   6.671   4.033   6.411 -0.2629  0.1202  0.4920
  146DOPC   C3217352   6.536   3.948   6.222 -0.1025  0.1526  0.1215
  146DOPC   H2X17353   6.484   3.852   6.237  0.6835 -0.3438 -0.2623
  146DOPC   H2Y17354   6.474   4.021   6.165 -1.0229 -0.9459 -0.3198
  146DOPC   C2317355   6.677   3.676   6.554  0.3533  0.2851 -0.8343
  146DOPC   H3R17356   6.742   3.601   6.606  0.5064 -0.8374 -2.5428
  146DOPC   H3S17357   6.732   3.762   6.510  1.3133 -0.4610 -1.1438
  146DOPC   C2417358   6.598   3.599   6.451 -0.8534 -0.4685 -0.1152
  146DOPC   H4R17359   6.523   3.662   6.399 -1.7671 -2.6669 -1.6182
  146DOPC   H4S17360   6.546   3.511   6.494  2.3629 -1.2613  2.6125
  146DOPC   C2517361   6.685   3.555   6.337 -0.5498  0.1233 -0.0426
  146DOPC   H5R17362   6.767   3.484   6.363 -0.2280  0.3474 -0.4307
  146DOPC   H5S17363   6.732   3.649   6.301 -0.9856  0.4601  0.2713
  146DOPC   C2617364   6.602   3.486   6.226 -0.0732 -0.4230 -0.0301
  146DOPC   H6R17365   6.523   3.555   6.187  1.2344  0.6099 -0.9484
  146DOPC   H6S17366   6.543   3.400   6.264 -0.8535  0.6784  1.3959
  146DOPC   C2717367   6.671   3.456   6.084 -0.1819  0.0706 -0.0657
  146DOPC   H7R17368   6.587   3.407   6.031 -0.2494 -1.5682  1.4359
  146DOPC   H7S17369   6.750   3.382   6.110 -0.6754  0.2242  2.0703
  146DOPC   C2817370   6.739   3.582   6.024 -0.3578  0.0095  0.2313
  146DOPC   H8R17371   6.820   3.617   6.091 -0.7136  1.2784  0.0202
  146DOPC   H8S17372   6.660   3.660   6.029 -2.6703 -2.1539  0.0645
  146DOPC   C2917373   6.793   3.557   5.888  0.3560 -0.3119  0.2797
  146DOPC   H9R17374   6.897   3.520   5.886  0.4712  0.0226 -0.4079
  146DOPC  C21017375   6.744   3.585   5.768 -0.2516  0.5325 -0.4901
  146DOPC  H10R17376   6.811   3.553   5.687 -0.4266  0.5411 -0.6362
  146DOPC  C21117377   6.609   3.639   5.735  1.2096 -0.3865  0.6713
  146DOPC  H11R17378   6.620   3.747   5.713 -0.2280 -0.1753  0.8977
  146DOPC  H11S17379   6.542   3.652   5.822 -2.7288 -0.9565 -1.9848
  146DOPC  C21217380   6.532   3.562   5.618 -0.1790  0.5855 -0.0794
  146DOPC  H12R17381   6.470   3.480   5.661  2.0570  0.0304  2.2809
  146DOPC  H12S17382   6.605   3.506   5.556  1.1950 -0.0026  1.9851
  146DOPC  C21317383   6.444   3.644   5.520  1.1101 -0.3795  0.6395
  146DOPC  H13R17384   6.509   3.709   5.457  0.4682  0.4966  0.8676
  146DOPC  H13S17385   6.376   3.704   5.584 -1.6028 -1.6462 -0.8706
  146DOPC  C21417386   6.343   3.564   5.439  0.1479  0.3714  0.5880
  146DOPC  H14R17387   6.279   3.508   5.510 -0.1078  0.3788  0.3630
  146DOPC  H14S17388   6.393   3.488   5.375 -1.3097 -1.1632  1.2005
  146DOPC  C21517389   6.257   3.656   5.350 -0.0983 -0.1195 -0.4025
  146DOPC  H15R17390   6.319   3.694   5.266 -1.8106 -0.0758 -1.7094
  146DOPC  H15S17391   6.210   3.740   5.406  2.6927  0.7696  0.7690
  146DOPC  C21617392   6.141   3.574   5.283 -0.0223 -0.4875 -0.0701
  146DOPC  H16R17393   6.082   3.515   5.356  2.9371 -0.8261  2.2226
  146DOPC  H16S17394   6.193   3.500   5.218 -0.1367  1.4383 -2.5011
  146DOPC  C21717395   6.065   3.670   5.190  0.5250  0.8023 -0.4037
  146DOPC  H17R17396   6.142   3.719   5.128  2.4994  0.4604  1.6372
  146DOPC  H17S17397   6.019   3.754   5.247 -0.9513  2.2961 -3.5707
  146DOPC  C21817398   5.965   3.603   5.101  0.0743 -0.3216 -0.6372
  146DOPC  H18R17399   5.941   3.670   5.016 -2.3563 -1.3716 -0.8744
  146DOPC  H18S17400   5.870   3.600   5.159  0.0773  1.2652 -0.5113
  146DOPC  H18T17401   5.987   3.499   5.067 -1.3758 -0.1252 -2.3216
  146DOPC   C3317402   6.667   3.910   6.138  0.0090 -0.9903  0.5432
  146DOPC   H3X17403   6.616   3.869   6.048 -1.5521  1.0986  0.3929
  146DOPC   H3Y17404   6.734   3.832   6.179  2.5743 -0.0237 -1.5202
  146DOPC   C3417405   6.757   4.027   6.100  0.9996 -0.2270  0.9580
  146DOPC   H4X17406   6.844   3.994   6.039  1.6420  2.2598  0.4244
  146DOPC   H4Y17407   6.796   4.080   6.190  0.9337  1.0906  0.2251
  146DOPC   C3517408   6.692   4.140   6.024  0.3213 -0.2846 -0.1301
  146DOPC   H5X17409   6.753   4.233   6.032 -0.4487  0.1115  1.4465
  146DOPC   H5Y17410   6.588   4.171   6.047  0.3101 -0.1391 -0.3767
  146DOPC   C3617411   6.689   4.099   5.873 -0.7520 -0.1283  0.4980
  146DOPC   H6X17412   6.794   4.087   5.838 -1.4477  0.9723 -2.2804
  146DOPC   H6Y17413   6.646   3.996   5.865 -0.1022 -0.3475 -0.3437
  146DOPC   C3717414   6.633   4.191   5.770 -0.0716 -0.1610  0.1917
  146DOPC   H7X17415   6.547   4.245   5.817 -0.1828 -2.3438  2.6768
  146DOPC   H7Y17416   6.703   4.273   5.742  1.2873  0.2192  4.0366
  146DOPC   C3817417   6.575   4.111   5.651 -0.4681 -0.5656  0.2367
  146DOPC   H8X17418   6.490   4.045   5.680  0.4200 -1.7455  0.2292
  146DOPC   H8Y17419   6.662   4.047   5.623 -0.5912  0.3039 -2.3497
  146DOPC   C3917420   6.544   4.210   5.535  0.1419 -0.6612  0.9602
  146DOPC   H9X17421   6.573   4.316   5.539  0.5223 -0.5986 -1.7941
  146DOPC  C31017422   6.486   4.168   5.416  0.6006 -0.2794 -0.2542
  146DOPC  H10X17423   6.455   4.238   5.338 -1.0272 -2.6435 -1.8546
  146DOPC  C31117424   6.458   4.025   5.380  0.0792  0.1658 -0.7341
  146DOPC  H11X17425   6.359   4.019   5.330  0.1255  1.1734 -0.9787
  146DOPC  H11Y17426   6.460   3.960   5.470 -0.7093  0.6646 -0.3457
  146DOPC  C31217427   6.562   3.976   5.275  0.6759 -0.2230  0.0439
  146DOPC  H12X17428   6.546   3.867   5.283 -3.0956  0.1884 -0.0831
  146DOPC  H12Y17429   6.663   4.013   5.303 -1.3890  3.8522  3.4122
  146DOPC  C31317430   6.520   4.004   5.127  0.1094 -0.0033  0.0991
  146DOPC  H13X17431   6.426   3.947   5.111  0.6523 -0.9683  0.2212
  146DOPC  H13Y17432   6.504   4.113   5.113  2.3993  0.0399 -3.4792
  146DOPC  C31417433   6.618   3.941   5.036  0.1887 -0.1950  0.4193
  146DOPC  H14X17434   6.639   3.832   5.046  1.2122 -0.0371  0.1337
  146DOPC  H14Y17435   6.579   3.934   4.933  2.0164  0.7933 -0.3919
  146DOPC  C31517436   6.742   4.024   5.028 -0.5003  0.4292 -0.4321
  146DOPC  H15X17437   6.787   4.035   5.129 -1.0972 -2.8368  0.3056
  146DOPC  H15Y17438   6.716   4.125   4.991 -0.9424 -0.3189 -2.2984
  146DOPC  C31617439   6.845   3.972   4.927 -0.2363 -0.5931  0.0518
  146DOPC  H16X17440   6.916   3.897   4.966  0.6732 -0.3192 -1.0361
  146DOPC  H16Y17441   6.790   3.919   4.846 -0.4970  1.1243 -0.9509
  146DOPC  C31717442   6.934   4.078   4.856 -0.2449 -0.1380 -0.3417
  146DOPC  H17X17443   7.006   4.034   4.783  1.0261  0.6017  0.4261
  146DOPC  H17Y17444   6.865   4.148   4.804  0.3710  0.9496  0.2700
  146DOPC  C31817445   7.023   4.158   4.952  0.3267  0.0944  0.7456
  146DOPC  H18X17446   6.966   4.202   5.037  3.4787 -1.4925  3.9075
  146DOPC  H18Y17447   7.098   4.089   4.993  1.3649  0.9375  0.3146
  146DOPC  H18Z17448   7.079   4.235   4.894 -0.9700 -0.3794 -1.2310
  147DOPC     N17449   2.724   4.373   7.486 -0.7346 -0.2931  0.0076
  147DOPC   C1217450   2.654   4.361   7.353 -0.3125  0.4977  0.1436
  147DOPC  H12A17451   2.625   4.461   7.325  0.7495  0.7288 -0.1771
  147DOPC  H12B17452   2.568   4.297   7.360  0.4511 -0.6260 -0.5191
  147DOPC   C1317453   2.645   4.439   7.584  0.0250 -0.0306  0.3330
  147DOPC  H13A17454   2.681   4.422   7.685  0.6267 -0.9981 -0.0347
  147DOPC  H13B17455   2.643   4.539   7.543 -0.1274 -0.9811 -2.1487
  147DOPC  H13C17456   2.545   4.399   7.583 -0.0289  0.1010  0.4279
  147DOPC   C1417457   2.851   4.451   7.460  0.0039 -0.7442 -0.1401
  147DOPC  H14A17458   2.923   4.408   7.392 -2.3423 -0.3165 -3.0606
  147DOPC  H14B17459   2.823   4.543   7.412  2.3357 -0.4235 -1.0293
  147DOPC  H14C17460   2.902   4.474   7.553  0.2830  1.0795 -0.7031
  147DOPC   C1517461   2.763   4.247   7.546  0.5651  0.2474 -0.2253
  147DOPC  H15A17462   2.673   4.188   7.557  0.5861  0.5904  2.7948
  147DOPC  H15B17463   2.815   4.253   7.641  0.7519 -0.0059 -0.3105
  147DOPC  H15C17464   2.832   4.187   7.488 -0.4062 -0.6876 -0.4496
  147DOPC   C1117465   2.734   4.310   7.227 -0.3484 -0.5517  0.4060
  147DOPC  H11A17466   2.663   4.302   7.141 -0.5952 -1.1676  0.6624
  147DOPC  H11B17467   2.807   4.388   7.196  0.4169 -1.1638  0.6507
  147DOPC     P17468   2.730   4.046   7.226 -0.0270 -0.2314  0.1036
  147DOPC   O1317469   2.594   4.055   7.193  0.2549  0.1928 -0.0826
  147DOPC   O1417470   2.766   3.967   7.347 -0.0497 -0.2582  0.1734
  147DOPC   O1217471   2.796   4.185   7.247 -0.2643  0.1035 -0.3075
  147DOPC   O1117472   2.808   3.983   7.105  0.5462 -0.1982  0.2146
  147DOPC    C117473   2.929   4.041   7.054  0.3202  0.7487  0.0354
  147DOPC    HA17474   2.981   3.951   7.013 -1.8339 -0.2050 -0.7872
  147DOPC    HB17475   2.991   4.091   7.131 -2.5929  1.3861  2.1259
  147DOPC    C217476   2.912   4.148   6.937  1.9709  0.4849 -0.5520
  147DOPC    HS17477   2.858   4.237   6.977  0.6094 -0.6015  0.1013
  147DOPC   O2117478   2.850   4.086   6.826  0.2577  0.1279 -0.2119
  147DOPC   C2117479   2.789   4.159   6.733  0.2521  0.1440  0.2253
  147DOPC   O2217480   2.768   4.277   6.740  0.0302 -0.9158  0.5910
  147DOPC   C2217481   2.751   4.073   6.616  0.5611  0.4825  0.8461
  147DOPC   H2R17482   2.675   4.132   6.561 -1.8551 -1.4109  2.0021
  147DOPC   H2S17483   2.692   3.992   6.664  0.2386  0.0106 -0.3191
  147DOPC    C317484   3.050   4.205   6.896 -0.6883 -0.0469  0.0874
  147DOPC    HX17485   3.114   4.251   6.975  2.4739 -0.9212 -1.8139
  147DOPC    HY17486   3.027   4.277   6.815 -1.3335  0.0900  0.3794
  147DOPC   O3117487   3.133   4.098   6.831  0.4246  0.4891 -0.3815
  147DOPC   C3117488   3.257   4.128   6.783  0.7907 -0.2881  0.1766
  147DOPC   O3217489   3.306   4.238   6.768 -0.1916 -0.2656  0.6366
  147DOPC   C3217490   3.310   3.995   6.730  0.0744 -0.5935  0.2926
  147DOPC   H2X17491   3.353   3.937   6.814  2.8124 -1.1745 -1.3832
  147DOPC   H2Y17492   3.230   3.930   6.689 -0.0613  1.1667 -2.4516
  147DOPC   C2317493   2.865   4.028   6.519  0.1586 -1.1812  0.3998
  147DOPC   H3R17494   2.816   3.953   6.453  3.3926 -2.7800 -0.3940
  147DOPC   H3S17495   2.939   3.985   6.590  0.0894 -0.1441  1.1246
  147DOPC   C2417496   2.920   4.143   6.433  0.1956  0.5987 -0.3224
  147DOPC   H4R17497   3.002   4.107   6.368 -1.1761 -0.6971 -1.3887
  147DOPC   H4S17498   2.972   4.217   6.498  1.9848  0.2139 -1.2427
  147DOPC   C2517499   2.818   4.212   6.341 -1.1664 -0.2456  0.3934
  147DOPC   H5R17500   2.721   4.234   6.391 -1.3136  3.9121 -1.2425
  147DOPC   H5S17501   2.796   4.160   6.245  1.5951 -0.3457 -0.2519
  147DOPC   C2617502   2.881   4.343   6.292  0.3749  0.0571 -0.3081
  147DOPC   H6R17503   2.975   4.321   6.237  0.9422  1.9435 -0.1706
  147DOPC   H6S17504   2.896   4.398   6.387  0.3514  0.2523 -0.4165
  147DOPC   C2717505   2.780   4.402   6.193 -0.2485 -1.0222  0.7128
  147DOPC   H7R17506   2.688   4.434   6.247  0.2185  3.3929 -0.7406
  147DOPC   H7S17507   2.767   4.323   6.115 -0.6164  0.2299 -0.5274
  147DOPC   C2817508   2.822   4.532   6.108  0.1839 -0.6080 -0.4278
  147DOPC   H8R17509   2.858   4.600   6.188 -2.2061  0.2970 -0.0458
  147DOPC   H8S17510   2.729   4.588   6.086 -0.7596 -1.2340  1.6829
  147DOPC   C2917511   2.902   4.514   5.983 -0.7187 -0.2748  0.9462
  147DOPC   H9R17512   2.985   4.441   5.985 -2.5493 -2.5371  0.1262
  147DOPC  C21017513   2.868   4.562   5.860 -0.1902 -0.2975  0.6377
  147DOPC  H10R17514   2.939   4.535   5.780 -1.4131 -1.0171 -0.2516
  147DOPC  C21117515   2.757   4.657   5.821 -0.3706 -0.2916  0.4504
  147DOPC  H11R17516   2.720   4.712   5.910  1.4958 -0.6105  1.4775
  147DOPC  H11S17517   2.672   4.595   5.787  0.8899 -1.0993 -1.4155
  147DOPC  C21217518   2.802   4.768   5.731  0.1216  0.5940  0.3766
  147DOPC  H12R17519   2.891   4.819   5.773  0.9162  0.7582 -1.3882
  147DOPC  H12S17520   2.721   4.843   5.718 -1.8452 -1.7288 -2.2174
  147DOPC  C21317521   2.826   4.717   5.586  0.2762  0.5143  0.4646
  147DOPC  H13R17522   2.897   4.632   5.584  0.2134  0.4796 -0.6195
  147DOPC  H13S17523   2.870   4.805   5.535 -0.8225  1.2207  0.6997
  147DOPC  C21417524   2.700   4.678   5.514  0.2807 -0.0571 -0.1063
  147DOPC  H14R17525   2.609   4.737   5.538  0.3956  0.3751 -0.7036
  147DOPC  H14S17526   2.679   4.574   5.544  0.8435 -0.4799 -1.1147
  147DOPC  C21517527   2.726   4.694   5.359  0.0618 -0.2491  0.6343
  147DOPC  H15R17528   2.722   4.804   5.344 -1.2445  0.0545  2.7554
  147DOPC  H15S17529   2.640   4.638   5.317  0.2945 -0.5185  0.5082
  147DOPC  C21617530   2.849   4.626   5.309 -0.4543 -0.1186 -0.3395
  147DOPC  H16R17531   2.836   4.519   5.336  0.5041  0.0453  0.9066
  147DOPC  H16S17532   2.933   4.663   5.372  0.3844 -0.3091 -1.3256
  147DOPC  C21717533   2.886   4.655   5.158 -0.2769 -0.3116  0.3752
  147DOPC  H17R17534   2.871   4.765   5.148  1.7242  0.2892  2.7500
  147DOPC  H17S17535   2.819   4.601   5.089  0.1416 -1.1245  0.5910
  147DOPC  C21817536   3.024   4.609   5.131  0.0219 -0.4088  0.0761
  147DOPC  H18R17537   3.091   4.651   5.209 -1.9216  0.8043  1.1701
  147DOPC  H18S17538   3.064   4.655   5.037 -2.7685  0.2530 -0.9013
  147DOPC  H18T17539   3.035   4.499   5.118  1.4659 -0.2209 -0.5022
  147DOPC   C3317540   3.429   4.002   6.633  0.4081  0.1796  0.4261
  147DOPC   H3X17541   3.470   3.901   6.608 -0.3229  0.0270 -0.2114
  147DOPC   H3Y17542   3.506   4.061   6.688 -2.5312  4.0477  0.7844
  147DOPC   C3417543   3.405   4.068   6.505  0.1088 -0.1097  0.0212
  147DOPC   H4X17544   3.502   4.074   6.452 -1.4657  0.5787 -2.9692
  147DOPC   H4Y17545   3.370   4.173   6.516  2.1836  0.5668  0.5091
  147DOPC   C3517546   3.308   3.980   6.423  0.4115  1.0120  0.4244
  147DOPC   H5X17547   3.207   3.963   6.467  0.7272 -0.1569  0.7166
  147DOPC   H5Y17548   3.359   3.882   6.416  0.5292  0.9823  1.6034
  147DOPC   C3617549   3.290   4.022   6.273 -0.8560  0.2612  0.0597
  147DOPC   H6X17550   3.279   4.132   6.271  1.3347  0.5528  0.8799
  147DOPC   H6Y17551   3.384   4.012   6.215 -0.5486 -0.3569  0.6510
  147DOPC   C3717552   3.180   3.945   6.196  0.0314 -0.0406 -0.5421
  147DOPC   H7X17553   3.204   3.836   6.192 -2.2826 -0.6077 -0.4191
  147DOPC   H7Y17554   3.091   3.965   6.259 -1.4878 -2.4164 -1.7486
  147DOPC   C3817555   3.150   3.993   6.053  0.0731 -0.4143  0.0804
  147DOPC   H8X17556   3.234   3.962   5.988  1.5242  0.6437  1.3663
  147DOPC   H8Y17557   3.145   4.104   6.053 -2.4536 -0.3964  2.7003
  147DOPC   C3917558   3.024   3.934   6.005 -0.1188  0.7963  0.2163
  147DOPC   H9X17559   3.005   3.832   6.041 -1.3248  1.2457  0.8963
  147DOPC  C31017560   2.927   3.995   5.940  0.6954  0.3310  0.2083
  147DOPC  H10X17561   2.835   3.939   5.921  2.1354 -1.8614 -0.7912
  147DOPC  C31117562   2.924   4.133   5.883 -1.0873 -0.0345  0.9497
  147DOPC  H11X17563   3.022   4.184   5.895  0.1654 -2.2617  0.7910
  147DOPC  H11Y17564   2.840   4.192   5.926 -1.7179  0.7510 -1.2696
  147DOPC  C31217565   2.898   4.119   5.730 -0.1980 -0.8084 -0.2513
  147DOPC  H12X17566   2.811   4.073   5.678  0.1055  0.7794 -2.3044
  147DOPC  H12Y17567   2.988   4.066   5.691  0.6686 -0.8263  1.6532
  147DOPC  C31317568   2.901   4.259   5.670 -0.0370 -0.4175  0.2671
  147DOPC  H13X17569   2.821   4.330   5.699  0.3707  0.7529 -1.3190
  147DOPC  H13Y17570   2.995   4.301   5.711  0.7380 -0.7715 -1.0868
  147DOPC  C31417571   2.913   4.280   5.516  0.1746 -0.0221  0.1710
  147DOPC  H14X17572   2.809   4.259   5.482  0.8220 -2.1900 -0.6311
  147DOPC  H14Y17573   2.942   4.386   5.497 -1.6793  0.9549  2.2690
  147DOPC  C31517574   3.019   4.189   5.454  0.0184 -0.7333  1.2296
  147DOPC  H15X17575   3.001   4.082   5.475  0.1870 -0.4390  3.0035
  147DOPC  H15Y17576   3.115   4.211   5.506  0.5413 -1.5089  0.6031
  147DOPC  C31617577   3.034   4.210   5.300 -0.3846  0.4211  0.1727
  147DOPC  H16X17578   2.954   4.183   5.228 -0.8863  1.0651  0.4792
  147DOPC  H16Y17579   3.061   4.316   5.276  0.9385  0.0709  0.0141
  147DOPC  C31717580   3.148   4.119   5.248  0.4518  1.2430  0.6146
  147DOPC  H17X17581   3.238   4.153   5.304  0.8327  1.2153  0.0319
  147DOPC  H17Y17582   3.124   4.013   5.270 -0.7692  1.5576  0.8529
  147DOPC  C31817583   3.170   4.152   5.100  0.0595  0.1793  0.2064
  147DOPC  H18X17584   3.272   4.123   5.066  0.0599 -1.4811  1.4576
  147DOPC  H18Y17585   3.096   4.098   5.038  0.9616 -1.5462  0.5600
  147DOPC  H18Z17586   3.165   4.261   5.079  3.4157  0.4971  0.4664
  148DOPC     N17587   1.792   5.890   7.256 -1.3650 -0.1591  0.5880
  148DOPC   C1217588   1.825   5.892   7.106 -0.6565 -0.6599  0.3505
  148DOPC  H12A17589   1.754   5.832   7.051 -1.1954  1.4569 -1.3911
  148DOPC  H12B17590   1.917   5.841   7.078 -0.1191  0.6448 -0.3555
  148DOPC   C1317591   1.900   5.960   7.335  0.2275  0.1641 -0.0095
  148DOPC  H13A17592   1.912   6.058   7.292 -0.9868 -0.0341 -0.8573
  148DOPC  H13B17593   1.870   5.974   7.438 -0.5704 -1.1799 -0.0267
  148DOPC  H13C17594   1.993   5.907   7.320 -0.1011  0.4298 -4.3199
  148DOPC   C1417595   1.786   5.743   7.299  0.2809 -0.2120  0.1060
  148DOPC  H14A17596   1.715   5.684   7.244  1.0011 -0.3871 -0.6519
  148DOPC  H14B17597   1.880   5.691   7.294 -0.1240 -1.4562  3.2749
  148DOPC  H14C17598   1.764   5.740   7.405  0.1387 -0.4716  0.0707
  148DOPC   C1517599   1.647   5.946   7.276 -0.3350  0.5138 -0.2968
  148DOPC  H15A17600   1.581   5.882   7.220 -0.3661 -0.8693  1.2360
  148DOPC  H15B17601   1.640   6.047   7.239  1.0456  1.8171  2.6255
  148DOPC  H15C17602   1.620   5.950   7.381 -2.2188 -2.7641 -0.5239
  148DOPC   C1117603   1.815   6.032   7.044 -0.0620  0.1516  0.3287
  148DOPC  H11A17604   1.817   6.009   6.936  0.8297 -0.5030  0.4763
  148DOPC  H11B17605   1.717   6.080   7.068 -0.3208 -0.7576  1.1563
  148DOPC     P17606   2.064   6.128   7.009  0.4937 -0.3032  0.0602
  148DOPC   O1317607   2.173   6.080   7.102  0.1743 -0.4447  0.4929
  148DOPC   O1417608   2.079   6.264   6.951 -0.0426 -0.0196 -0.2077
  148DOPC   O1217609   1.925   6.108   7.081  0.3271 -0.2222 -0.2085
  148DOPC   O1117610   2.062   6.026   6.882  0.3381 -0.1023 -0.7715
  148DOPC    C117611   2.048   6.062   6.747 -0.0824  0.3458  0.8480
  148DOPC    HA17612   2.041   6.169   6.720 -1.8580  0.1111  0.2945
  148DOPC    HB17613   1.954   6.009   6.722 -0.4026  0.3693  1.9629
  148DOPC    C217614   2.166   5.995   6.663 -0.3170 -0.8649  0.0371
  148DOPC    HS17615   2.261   6.051   6.678 -1.2373  0.7749  0.0289
  148DOPC   O2117616   2.138   5.976   6.524 -0.6837  0.0227  0.1433
  148DOPC   C2117617   2.147   6.081   6.451 -0.0918  0.3658 -0.8098
  148DOPC   O2217618   2.170   6.193   6.494  0.0072  0.2095  0.3684
  148DOPC   C2217619   2.099   6.046   6.314 -0.0283 -0.2164 -0.4202
  148DOPC   H2R17620   2.010   6.110   6.296  0.2072 -0.2932 -2.0066
  148DOPC   H2S17621   2.079   5.937   6.303  1.5734 -0.4835 -0.9837
  148DOPC    C317622   2.194   5.852   6.727  0.1167  0.5673  0.0431
  148DOPC    HX17623   2.100   5.798   6.751  0.1026 -0.8434 -2.7447
  148DOPC    HY17624   2.249   5.851   6.824 -1.3677 -3.1073  0.9864
  148DOPC   O3117625   2.275   5.768   6.645  0.0713  0.4568  0.0686
  148DOPC   C3117626   2.403   5.806   6.618 -0.0592  0.3703 -1.0994
  148DOPC   O3217627   2.465   5.893   6.680  0.1015  0.1052  0.1334
  148DOPC   C3217628   2.475   5.721   6.509 -0.0176 -0.1944  0.2347
  148DOPC   H2X17629   2.517   5.633   6.563 -0.1504 -1.5246 -1.6915
  148DOPC   H2Y17630   2.388   5.701   6.443  0.7946  0.6644 -1.1584
  148DOPC   C2317631   2.191   6.087   6.199 -0.5131  0.3139 -0.1433
  148DOPC   H3R17632   2.242   6.179   6.236 -2.0047  1.0426  0.1701
  148DOPC   H3S17633   2.130   6.118   6.111  0.5019 -0.1768 -1.0407
  148DOPC   C2417634   2.296   5.981   6.173  0.0543 -1.0339 -0.5340
  148DOPC   H4R17635   2.257   5.891   6.121 -2.6422  0.4611 -1.3487
  148DOPC   H4S17636   2.327   5.950   6.275  0.0865  0.4929 -0.0384
  148DOPC   C2517637   2.425   6.039   6.099  0.3226 -0.5741  0.1900
  148DOPC   H5R17638   2.505   5.962   6.098 -1.8688 -3.0497  0.8263
  148DOPC   H5S17639   2.452   6.125   6.164 -2.7559  0.4733  0.2696
  148DOPC   C2617640   2.384   6.082   5.958 -0.0497  0.3897 -0.1078
  148DOPC   H6R17641   2.304   6.158   5.968  0.8227  1.1312  1.5877
  148DOPC   H6S17642   2.344   5.999   5.894 -2.1566 -0.7694  2.5298
  148DOPC   C2717643   2.512   6.148   5.894  0.1645 -0.2339  0.2501
  148DOPC   H7R17644   2.598   6.078   5.887  0.3845  0.0397  0.2023
  148DOPC   H7S17645   2.537   6.231   5.964 -1.2669  0.8248 -0.4360
  148DOPC   C2817646   2.475   6.212   5.756  0.0984 -0.8098 -0.3041
  148DOPC   H8R17647   2.550   6.279   5.709  0.1919 -0.6354  0.0922
  148DOPC   H8S17648   2.383   6.271   5.780  1.1176  0.0518  1.7672
  148DOPC   C2917649   2.448   6.096   5.661 -0.2347 -0.3443  0.1672
  148DOPC   H9R17650   2.540   6.035   5.655  1.3498  1.4682  3.3947
  148DOPC  C21017651   2.337   6.059   5.594 -0.0960 -0.2559  0.7916
  148DOPC  H10R17652   2.354   5.977   5.522  1.2662  0.4757  0.2406
  148DOPC  C21117653   2.204   6.130   5.590 -0.2753  0.0169  0.4831
  148DOPC  H11R17654   2.209   6.215   5.661  1.0113  1.2462 -1.0117
  148DOPC  H11S17655   2.126   6.059   5.626  1.6427 -1.7693  1.3437
  148DOPC  C21217656   2.162   6.156   5.447  0.1815 -0.6751  0.0805
  148DOPC  H12R17657   2.067   6.212   5.450  0.4666  0.2757 -3.5126
  148DOPC  H12S17658   2.129   6.060   5.401 -1.5095 -0.2257  0.2823
  148DOPC  C21317659   2.270   6.233   5.372 -0.0196 -0.5637  0.1715
  148DOPC  H13R17660   2.359   6.171   5.347  1.3128  0.7134  1.4615
  148DOPC  H13S17661   2.316   6.312   5.436  1.3567 -1.2636  0.0797
  148DOPC  C21417662   2.226   6.302   5.247  0.9317 -0.3299 -1.1881
  148DOPC  H14R17663   2.307   6.366   5.205  0.7098 -0.4172 -1.7660
  148DOPC  H14S17664   2.144   6.371   5.276  1.4945 -0.9000  2.1742
  148DOPC  C21517665   2.169   6.207   5.144  0.5082  0.8319  0.9511
  148DOPC  H15R17666   2.079   6.152   5.182  0.2691  0.7187  0.2274
  148DOPC  H15S17667   2.248   6.131   5.127 -0.7316 -0.0057 -1.5023
  148DOPC  C21617668   2.145   6.281   5.013  0.0848  0.3778 -0.1427
  148DOPC  H16R17669   2.242   6.328   4.986  0.1341 -0.2531 -1.1254
  148DOPC  H16S17670   2.064   6.356   5.016 -1.1336 -0.9188  0.3188
  148DOPC  C21717671   2.101   6.183   4.907  0.8245 -0.2211 -0.0754
  148DOPC  H17R17672   2.091   6.242   4.813 -1.3187  0.0991  0.3033
  148DOPC  H17S17673   1.997   6.151   4.926  1.2191 -1.1978  0.5736
  148DOPC  C21817674   2.190   6.058   4.887  0.2726 -0.4245  0.3715
  148DOPC  H18R17675   2.179   6.013   4.786  2.8636  1.4381 -0.8620
  148DOPC  H18S17676   2.176   5.985   4.969 -0.1905 -0.2066  0.4879
  148DOPC  H18T17677   2.293   6.098   4.878  0.0261 -0.0288 -1.0154
  148DOPC   C3317678   2.603   5.793   6.456  0.4818  0.0766 -0.8465
  148DOPC   H3X17679   2.692   5.788   6.522 -0.5323 -1.8828  0.4741
  148DOPC   H3Y17680   2.585   5.900   6.433  0.1345  0.1338 -0.3361
  148DOPC   C3417681   2.659   5.736   6.320 -0.5674 -0.4873  0.1791
  148DOPC   H4X17682   2.750   5.795   6.297 -0.9642 -0.6480 -2.0562
  148DOPC   H4Y17683   2.581   5.757   6.244 -0.1395 -1.3515 -0.5240
  148DOPC   C3517684   2.701   5.587   6.335  1.0293  0.1076  0.2983
  148DOPC   H5X17685   2.611   5.528   6.360  1.5776 -0.4523  0.9667
  148DOPC   H5Y17686   2.787   5.578   6.404  1.4365 -2.0547 -0.4245
  148DOPC   C3617687   2.744   5.525   6.197  0.4887  0.1832  0.6393
  148DOPC   H6X17688   2.751   5.414   6.203  1.9844  0.1801 -0.5790
  148DOPC   H6Y17689   2.686   5.556   6.107 -1.0082 -1.4199  0.9981
  148DOPC   C3717690   2.888   5.563   6.175  0.2194  0.2721 -0.6269
  148DOPC   H7X17691   2.935   5.587   6.273 -2.2623 -0.2395  0.7946
  148DOPC   H7Y17692   2.942   5.478   6.129 -0.6192  0.1169 -1.3559
  148DOPC   C3817693   2.918   5.674   6.068  0.1889  0.4157  0.4130
  148DOPC   H8X17694   3.028   5.683   6.057  0.1927 -0.4480 -0.3631
  148DOPC   H8Y17695   2.889   5.765   6.125  0.4978  1.0909 -0.4839
  148DOPC   C3917696   2.850   5.663   5.933 -0.0258 -0.0882  0.3689
  148DOPC   H9X17697   2.780   5.580   5.915 -2.0459  1.1168  2.2302
  148DOPC  C31017698   2.872   5.741   5.826  0.4187 -0.1430  1.1076
  148DOPC  H10X17699   2.806   5.727   5.740 -0.1370  1.0548  1.3217
  148DOPC  C31117700   2.970   5.860   5.814 -0.0529  0.7815 -0.0784
  148DOPC  H11X17701   3.064   5.839   5.759 -0.3941  3.6701 -1.9757
  148DOPC  H11Y17702   3.005   5.882   5.917  0.6326 -0.7075  0.0301
  148DOPC  C31217703   2.902   5.982   5.760  0.7095  0.2184  0.5475
  148DOPC  H12X17704   2.954   6.080   5.768 -0.8390  1.2646 -1.3439
  148DOPC  H12Y17705   2.805   5.997   5.811  0.9138  0.0804  0.9767
  148DOPC  C31317706   2.870   5.971   5.608  0.9284  0.3774 -0.0127
  148DOPC  H13X17707   2.793   5.895   5.583  0.8198 -0.1462  1.7719
  148DOPC  H13Y17708   2.827   6.066   5.571 -1.3542 -1.0984 -1.3733
  148DOPC  C31417709   2.988   5.949   5.510 -0.1921  0.4085  0.0265
  148DOPC  H14X17710   3.045   5.857   5.535  3.1437  2.0430 -0.9239
  148DOPC  H14Y17711   2.954   5.928   5.407  1.0860  0.0117 -0.3348
  148DOPC  C31517712   3.087   6.066   5.509  0.6397  0.4938 -0.2952
  148DOPC  H15X17713   3.136   6.081   5.608  0.6297  1.1392 -0.3823
  148DOPC  H15Y17714   3.025   6.157   5.491 -2.6241 -0.7079  3.3023
  148DOPC  C31617715   3.196   6.051   5.409 -0.7064  0.0945 -0.1178
  148DOPC  H16X17716   3.283   6.120   5.422 -0.5051  0.0245 -1.0163
  148DOPC  H16Y17717   3.245   5.953   5.426 -0.2619 -0.2062 -2.6573
  148DOPC  C31717718   3.152   6.066   5.265 -0.3002  0.7777 -0.5968
  148DOPC  H17X17719   3.065   5.998   5.247 -0.0116  0.5280 -1.0584
  148DOPC  H17Y17720   3.116   6.171   5.268  1.2361  1.3983 -2.2797
  148DOPC  C31817721   3.263   6.045   5.167 -0.0018  0.0112  0.4585
  148DOPC  H18X17722   3.225   6.034   5.063  0.5941  2.2413 -0.0453
  148DOPC  H18Y17723   3.325   6.137   5.166  0.2593 -0.1423 -1.5973
  148DOPC  H18Z17724   3.323   5.965   5.217  1.3661  2.0581  2.2715
  149DOPC     N17725   2.782   2.527   7.523  0.5608 -0.4071 -0.1371
  149DOPC   C1217726   2.937   2.532   7.503 -0.2587  0.1138 -1.5266
  149DOPC  H12A17727   2.987   2.485   7.587  1.4363  2.9806 -0.8040
  149DOPC  H12B17728   2.965   2.635   7.517 -2.0941  0.4030  0.7893
  149DOPC   C1317729   2.737   2.411   7.454 -0.6982 -0.5469  0.2307
  149DOPC  H13A17730   2.777   2.322   7.500 -0.7645 -0.9067 -0.3948
  149DOPC  H13B17731   2.630   2.413   7.466 -0.7288  0.9245 -0.1734
  149DOPC  H13C17732   2.767   2.422   7.351  1.7975  0.6519  0.9874
  149DOPC   C1417733   2.724   2.656   7.477 -0.1115  0.8877 -0.0059
  149DOPC  H14A17734   2.787   2.731   7.522  2.5246 -1.4362  0.4730
  149DOPC  H14B17735   2.725   2.656   7.369 -2.4354 -0.4990 -0.0838
  149DOPC  H14C17736   2.618   2.656   7.497 -0.0912 -0.5877  0.1817
  149DOPC   C1517737   2.754   2.509   7.671 -0.0363 -0.2136 -0.2431
  149DOPC  H15A17738   2.825   2.442   7.717 -0.7792 -1.5469 -0.9709
  149DOPC  H15B17739   2.665   2.449   7.686 -0.5119  0.3496 -0.7904
  149DOPC  H15C17740   2.743   2.597   7.732 -0.7678 -2.0323  2.4145
  149DOPC   C1117741   3.007   2.492   7.371  0.6258 -0.7794  0.4977
  149DOPC  H11A17742   3.115   2.519   7.376  0.5418 -0.1272 -0.9195
  149DOPC  H11B17743   2.998   2.384   7.349 -1.6208 -0.4484 -0.4299
  149DOPC     P17744   2.979   2.707   7.219  0.3808  0.6237 -0.0502
  149DOPC   O1317745   2.988   2.797   7.343 -0.1777 -0.5028 -0.4273
  149DOPC   O1417746   2.888   2.752   7.111 -0.7311 -0.2064  0.0524
  149DOPC   O1217747   2.939   2.557   7.262 -0.6700 -0.3379 -0.2201
  149DOPC   O1117748   3.120   2.692   7.155 -1.2097 -0.3424 -0.4870
  149DOPC    C117749   3.148   2.695   7.013  0.1921  0.5234  0.1143
  149DOPC    HA17750   3.256   2.719   6.998  0.1139 -0.0695 -1.6696
  149DOPC    HB17751   3.083   2.764   6.955  1.7989  1.8538 -0.1769
  149DOPC    C217752   3.134   2.567   6.930  0.5829  0.6752 -0.4289
  149DOPC    HS17753   3.174   2.591   6.829 -0.6755  0.0739 -1.0968
  149DOPC   O2117754   2.997   2.527   6.922  0.4019 -0.2901  0.4602
  149DOPC   C2117755   2.919   2.596   6.834  0.6786  0.3286 -0.8506
  149DOPC   O2217756   2.943   2.690   6.762  0.3710  0.3281 -0.1967
  149DOPC   C2217757   2.780   2.532   6.853 -0.0599  0.0802 -0.1717
  149DOPC   H2R17758   2.736   2.560   6.951 -1.8596 -1.9293 -0.3351
  149DOPC   H2S17759   2.788   2.422   6.867 -2.2346  0.1521  2.4050
  149DOPC    C317760   3.222   2.451   6.984 -0.7767 -0.2194 -0.1124
  149DOPC    HX17761   3.158   2.404   7.062 -0.6780 -0.4702 -0.1788
  149DOPC    HY17762   3.309   2.493   7.038 -0.8732 -0.8822  0.5858
  149DOPC   O3117763   3.253   2.346   6.885  0.2472 -0.0400  0.0995
  149DOPC   C3117764   3.374   2.362   6.824  0.2302 -0.2728 -0.4321
  149DOPC   O3217765   3.452   2.455   6.844 -0.1085  0.2570  0.1618
  149DOPC   C3217766   3.391   2.245   6.724  0.0671  0.1302  0.1041
  149DOPC   H2X17767   3.368   2.148   6.773 -1.6749  0.3796 -0.1280
  149DOPC   H2Y17768   3.318   2.261   6.641  2.6370 -0.5120 -2.4496
  149DOPC   C2317769   2.670   2.571   6.751  0.3773 -0.7143  0.4273
  149DOPC   H3R17770   2.664   2.682   6.753  2.7207 -0.5450  1.1774
  149DOPC   H3S17771   2.577   2.521   6.786  0.2283  0.4712  1.8659
  149DOPC   C2417772   2.703   2.515   6.612  0.7445  0.3884  0.0292
  149DOPC   H4R17773   2.733   2.408   6.605  0.2662  0.3325 -1.6241
  149DOPC   H4S17774   2.782   2.582   6.571 -1.3201  3.2607  0.4771
  149DOPC   C2517775   2.590   2.529   6.508 -0.1293  0.1411  0.3660
  149DOPC   H5R17776   2.571   2.636   6.482  0.2685 -0.5305 -3.3303
  149DOPC   H5S17777   2.493   2.481   6.531  1.1642 -2.8681 -0.0775
  149DOPC   C2617778   2.646   2.476   6.374  0.1720  0.0708 -0.1120
  149DOPC   H6R17779   2.689   2.378   6.400 -0.5352 -0.3695 -0.5539
  149DOPC   H6S17780   2.727   2.545   6.341  0.7027 -0.2018  0.5944
  149DOPC   C2717781   2.534   2.460   6.268  0.0663  0.2352 -0.3708
  149DOPC   H7R17782   2.493   2.562   6.254  0.9674  0.5473 -0.7889
  149DOPC   H7S17783   2.452   2.396   6.306 -0.8828  1.7364  0.2205
  149DOPC   C2817784   2.587   2.389   6.139  0.3979 -0.0488 -0.2837
  149DOPC   H8R17785   2.582   2.278   6.149  0.0807  0.0985  1.6420
  149DOPC   H8S17786   2.696   2.410   6.135  0.4745 -0.6738 -2.7516
  149DOPC   C2917787   2.515   2.447   6.020 -1.0612 -0.4839  0.4725
  149DOPC   H9R17788   2.474   2.546   6.045 -1.7223 -0.1399 -1.7364
  149DOPC  C21017789   2.491   2.386   5.903 -1.1283  0.1601  0.4203
  149DOPC  H10R17790   2.456   2.448   5.820  0.6824  0.0300 -0.4899
  149DOPC  C21117791   2.547   2.249   5.863  0.9212 -1.1904  0.6583
  149DOPC  H11R17792   2.462   2.178   5.855 -0.5799  0.7228 -1.7272
  149DOPC  H11S17793   2.639   2.209   5.912  3.1878  0.2261 -2.1771
  149DOPC  C21217794   2.590   2.266   5.714 -0.2305 -0.0502  0.0473
  149DOPC  H12R17795   2.657   2.355   5.714  0.3842 -0.5064  0.3317
  149DOPC  H12S17796   2.506   2.285   5.643  0.3345 -0.8500 -0.8687
  149DOPC  C21317797   2.662   2.132   5.669 -0.3001 -0.2356  0.6240
  149DOPC  H13R17798   2.596   2.044   5.685  0.2406 -1.2762 -2.2794
  149DOPC  H13S17799   2.748   2.121   5.739 -0.0671  0.1280  0.3966
  149DOPC  C21417800   2.707   2.123   5.525  0.1250  0.3574  0.1598
  149DOPC  H14R17801   2.779   2.203   5.500  1.2186  0.6403  3.6609
  149DOPC  H14S17802   2.622   2.138   5.455  1.7617 -1.9280 -2.5095
  149DOPC  C21517803   2.779   1.987   5.497  0.5646 -0.2179  0.6377
  149DOPC  H15R17804   2.709   1.902   5.504  0.0717  0.1946  0.7838
  149DOPC  H15S17805   2.860   1.976   5.572  1.6851  1.3404 -0.2740
  149DOPC  C21617806   2.830   1.987   5.350  0.0376 -0.2050  0.4301
  149DOPC  H16R17807   2.899   1.901   5.337 -3.3591 -2.9594 -0.7335
  149DOPC  H16S17808   2.887   2.080   5.329  1.4827 -0.9027  1.1425
  149DOPC  C21717809   2.716   1.972   5.252 -0.4324  0.7703 -0.5682
  149DOPC  H17R17810   2.641   2.054   5.258  0.3256  1.3832  1.3416
  149DOPC  H17S17811   2.676   1.871   5.274 -0.4933  1.1874  1.3945
  149DOPC  C21817812   2.759   1.968   5.106  0.4320 -0.1147  0.3156
  149DOPC  H18R17813   2.677   1.923   5.046 -0.7445  1.3054  0.8005
  149DOPC  H18S17814   2.844   1.898   5.094  0.3976  0.1003 -1.4961
  149DOPC  H18T17815   2.789   2.065   5.059 -2.6011  0.5414 -0.5086
  149DOPC   C3317816   3.537   2.240   6.667  0.3400 -0.3843 -0.5479
  149DOPC   H3X17817   3.550   2.134   6.637 -0.7163 -1.4506  2.3934
  149DOPC   H3Y17818   3.604   2.254   6.755 -1.4188  0.2063  0.7410
  149DOPC   C3417819   3.577   2.337   6.555  0.0919  0.1771 -0.9299
  149DOPC   H4X17820   3.688   2.337   6.541  0.6025  1.6805  2.1552
  149DOPC   H4Y17821   3.552   2.442   6.584 -0.1444 -0.7874  2.8702
  149DOPC   C3517822   3.498   2.312   6.428  0.2886 -0.5063 -0.2992
  149DOPC   H5X17823   3.394   2.323   6.466  0.7105  1.0958  0.4773
  149DOPC   H5Y17824   3.522   2.210   6.392  1.1340 -1.3217  2.3123
  149DOPC   C3617825   3.522   2.421   6.326  0.0754 -0.2012  0.1218
  149DOPC   H6X17826   3.502   2.521   6.370 -0.1980  0.4165 -1.3405
  149DOPC   H6Y17827   3.626   2.419   6.287 -0.4392  1.8520 -1.5412
  149DOPC   C3717828   3.443   2.399   6.191  0.4852 -0.5062  0.3347
  149DOPC   H7X17829   3.487   2.303   6.154 -1.0958 -0.8248 -0.8238
  149DOPC   H7Y17830   3.334   2.383   6.208 -0.2831  1.7797 -1.7303
  149DOPC   C3817831   3.473   2.504   6.088  0.9570 -0.0909  0.1377
  149DOPC   H8X17832   3.579   2.534   6.102  1.2195 -1.7748  2.3240
  149DOPC   H8Y17833   3.411   2.589   6.124 -0.4164 -0.7110 -0.6925
  149DOPC   C3917834   3.455   2.473   5.939 -0.0065 -0.0927 -0.1016
  149DOPC   H9X17835   3.383   2.393   5.918  0.5930 -0.5852 -0.2852
  149DOPC  C31017836   3.529   2.540   5.837 -0.9186 -0.6560  0.4140
  149DOPC  H10X17837   3.522   2.515   5.731  0.2766  0.6978 -0.0165
  149DOPC  C31117838   3.620   2.657   5.863  0.3504  1.0091  0.7264
  149DOPC  H11X17839   3.569   2.711   5.946 -1.4829  1.4826 -0.6573
  149DOPC  H11Y17840   3.617   2.718   5.770  1.2906  3.1493  2.0314
  149DOPC  C31217841   3.769   2.616   5.889 -0.1582 -0.0739 -0.6729
  149DOPC  H12X17842   3.822   2.603   5.792 -0.7084 -2.0519 -0.7582
  149DOPC  H12Y17843   3.774   2.531   5.960 -0.3658  0.8851  0.5059
  149DOPC  C31317844   3.838   2.731   5.969 -0.4135  0.2680  0.3028
  149DOPC  H13X17845   3.837   2.818   5.900  1.3490 -0.0410 -0.1725
  149DOPC  H13Y17846   3.793   2.759   6.067  1.6144 -1.2033  1.7509
  149DOPC  C31417847   3.981   2.698   6.003 -0.3082  0.0819 -0.5558
  149DOPC  H14X17848   3.996   2.613   6.072 -0.5322 -0.4583 -1.1639
  149DOPC  H14Y17849   4.035   2.660   5.914  0.7256  0.1568  0.0266
  149DOPC  C31517850   4.055   2.815   6.069 -0.8454  0.3834 -1.0326
  149DOPC  H15X17851   4.000   2.863   6.152  0.7143 -0.9221  0.8457
  149DOPC  H15Y17852   4.051   2.894   5.991  2.0511 -0.2090 -1.9064
  149DOPC  C31617853   4.198   2.780   6.104 -0.1118 -0.8200 -0.5634
  149DOPC  H16X17854   4.261   2.756   6.016  0.6499  0.2335 -0.3241
  149DOPC  H16Y17855   4.244   2.877   6.133  2.0928 -1.1183 -2.7843
  149DOPC  C31717856   4.218   2.652   6.193  0.1121 -0.8713 -0.1846
  149DOPC  H17X17857   4.161   2.664   6.288  0.7760 -1.3583  0.2957
  149DOPC  H17Y17858   4.181   2.566   6.134 -0.0564 -0.0700 -1.2806
  149DOPC  C31817859   4.367   2.622   6.228  0.3896  0.2829 -0.2389
  149DOPC  H18X17860   4.406   2.686   6.310  3.8416 -2.4328  0.4675
  149DOPC  H18Y17861   4.375   2.514   6.255 -1.8290  0.3263  0.8585
  149DOPC  H18Z17862   4.434   2.626   6.140 -0.8617 -0.8703 -1.3048
  150DOPC     N17863   7.666   4.862   6.773 -0.0870 -0.0659 -0.3434
  150DOPC   C1217864   7.537   4.891   6.703 -0.6007  0.6378 -0.9577
  150DOPC  H12A17865   7.478   4.800   6.706  1.3951 -0.7005 -0.4511
  150DOPC  H12B17866   7.570   4.908   6.601  0.8556  0.3443 -0.5596
  150DOPC   C1317867   7.633   4.862   6.918  0.7816 -0.2326  0.0528
  150DOPC  H13A17868   7.592   4.949   6.966  1.6466 -0.4620  1.2705
  150DOPC  H13B17869   7.557   4.787   6.933  0.7660 -0.0839  0.7941
  150DOPC  H13C17870   7.716   4.818   6.972  0.5836  0.3431  0.8411
  150DOPC   C1417871   7.773   4.970   6.740 -0.0698  0.0374 -0.4416
  150DOPC  H14A17872   7.857   4.973   6.808  0.8135  2.3533 -1.5356
  150DOPC  H14B17873   7.807   4.956   6.639  2.6730  0.9479  0.2692
  150DOPC  H14C17874   7.719   5.063   6.737 -1.2890 -0.6341 -0.0857
  150DOPC   C1517875   7.729   4.731   6.725  0.1091 -0.0134  0.0483
  150DOPC  H15A17876   7.661   4.647   6.727 -0.2681  0.2838  1.9021
  150DOPC  H15B17877   7.814   4.696   6.781 -0.0698 -0.4308  0.0632
  150DOPC  H15C17878   7.760   4.748   6.623  0.4171 -1.8168 -0.1881
  150DOPC   C1117879   7.454   5.018   6.747  0.3672  0.5282  0.4862
  150DOPC  H11A17880   7.359   5.020   6.690  1.2265  0.0560 -1.0204
  150DOPC  H11B17881   7.411   4.995   6.846  0.1975 -0.8023  0.1345
  150DOPC     P17882   7.464   5.282   6.736  0.2789 -0.0332  0.0719
  150DOPC   O1317883   7.567   5.385   6.702 -0.2171 -0.3248  0.7646
  150DOPC   O1417884   7.374   5.304   6.852 -0.3387 -0.0187 -0.2368
  150DOPC   O1217885   7.528   5.136   6.752  0.1838  0.5109 -0.5203
  150DOPC   O1117886   7.371   5.275   6.611  0.2344 -0.3600 -0.6755
  150DOPC    C117887   7.401   5.207   6.491  0.4900  0.4757  0.4023
  150DOPC    HA17888   7.324   5.129   6.472  1.0970 -0.2071  0.6905
  150DOPC    HB17889   7.501   5.161   6.484  0.9229  1.5006 -0.3112
  150DOPC    C217890   7.408   5.304   6.372 -0.0325  0.0899  1.1241
  150DOPC    HS17891   7.491   5.377   6.384  1.3374 -0.6623 -2.4716
  150DOPC   O2117892   7.280   5.355   6.344  0.2414 -0.2402 -0.0783
  150DOPC   C2117893   7.275   5.482   6.325  0.7748  0.3619  0.2763
  150DOPC   O2217894   7.375   5.558   6.318  1.0666  0.5736 -0.4312
  150DOPC   C2217895   7.132   5.531   6.335  0.0054 -0.5797 -0.0723
  150DOPC   H2R17896   7.137   5.611   6.412 -1.5130 -0.0408 -0.5036
  150DOPC   H2S17897   7.069   5.446   6.369  0.6801 -0.7422  0.8064
  150DOPC    C317898   7.454   5.216   6.247  0.6899  0.0358  1.1614
  150DOPC    HX17899   7.365   5.153   6.227 -0.1996  1.8420 -1.0884
  150DOPC    HY17900   7.532   5.142   6.272  0.5910 -0.1901  0.8021
  150DOPC   O3117901   7.477   5.299   6.129 -0.4429 -0.6942  0.4367
  150DOPC   C3117902   7.596   5.361   6.134  0.2800  0.2026 -0.0787
  150DOPC   O3217903   7.689   5.334   6.207 -0.7960  0.0999  0.4291
  150DOPC   C3217904   7.600   5.489   6.041 -0.3212  0.0512 -0.6631
  150DOPC   H2X17905   7.499   5.506   5.998 -0.5009 -1.9100 -1.1515
  150DOPC   H2Y17906   7.637   5.576   6.099 -1.6138 -0.9094  1.8030
  150DOPC   C2317907   7.084   5.605   6.206 -0.4061  0.2018 -0.5480
  150DOPC   H3R17908   7.172   5.644   6.151 -1.1476  2.8235 -0.0194
  150DOPC   H3S17909   7.025   5.695   6.236 -1.3532 -0.4963 -0.2619
  150DOPC   C2417910   6.983   5.519   6.125 -0.4983 -0.0695  0.5123
  150DOPC   H4R17911   6.891   5.490   6.179  0.0963 -1.4181  0.8495
  150DOPC   H4S17912   7.030   5.422   6.096 -1.3141 -1.1677  2.6252
  150DOPC   C2517913   6.931   5.597   6.008 -0.7736  0.0849 -0.8670
  150DOPC   H5R17914   7.015   5.624   5.941  0.3181 -1.8474 -0.3402
  150DOPC   H5S17915   6.892   5.696   6.040  2.0674  1.0896 -0.2357
  150DOPC   C2617916   6.817   5.532   5.931 -0.2602  0.0120 -0.3281
  150DOPC   H6R17917   6.801   5.596   5.842 -1.4544 -0.0181 -0.1509
  150DOPC   H6S17918   6.721   5.537   5.986 -0.8009 -0.5943 -1.2011
  150DOPC   C2717919   6.848   5.392   5.867 -0.1000 -0.1987 -0.7617
  150DOPC   H7R17920   6.840   5.321   5.952  0.2118  0.7803  0.1164
  150DOPC   H7S17921   6.955   5.397   5.837  0.2631  0.1003  0.5240
  150DOPC   C2817922   6.746   5.349   5.759  0.0585 -0.2651  0.0014
  150DOPC   H8R17923   6.734   5.432   5.685 -3.5119 -0.5268  0.1086
  150DOPC   H8S17924   6.644   5.344   5.803  0.4334  0.3181  0.9465
  150DOPC   C2917925   6.787   5.224   5.690 -0.3056 -0.5984 -0.6265
  150DOPC   H9R17926   6.880   5.239   5.633  1.1059  1.4684  1.9997
  150DOPC  C21017927   6.725   5.110   5.706 -0.5328 -0.4408  0.1235
  150DOPC  H10R17928   6.778   5.024   5.663  1.7874  0.9712  0.0067
  150DOPC  C21117929   6.619   5.072   5.804  0.2005 -0.2003  0.3259
  150DOPC  H11R17930   6.530   5.018   5.764 -1.1330  2.0772  0.0336
  150DOPC  H11S17931   6.582   5.160   5.861 -3.2025 -1.4457  0.2734
  150DOPC  C21217932   6.688   4.979   5.908  0.6042  0.0220 -0.9673
  150DOPC  H12R17933   6.607   4.919   5.955  0.4399  2.5354  2.3171
  150DOPC  H12S17934   6.737   5.045   5.984 -1.4732  1.3589 -0.7037
  150DOPC  C21317935   6.799   4.879   5.864 -0.0235 -0.1253 -0.2667
  150DOPC  H13R17936   6.821   4.818   5.955 -1.2422  1.8227  1.4141
  150DOPC  H13S17937   6.891   4.938   5.844 -0.5143  0.1120 -1.9483
  150DOPC  C21417938   6.741   4.784   5.748  0.1125  0.0407 -0.7779
  150DOPC  H14R17939   6.824   4.714   5.721 -0.5101 -0.5869 -1.0915
  150DOPC  H14S17940   6.716   4.843   5.658  1.5052 -0.8591 -1.7944
  150DOPC  C21517941   6.628   4.690   5.800  0.4694  0.0197  0.5608
  150DOPC  H15R17942   6.541   4.748   5.839  2.0836  0.8585  3.1235
  150DOPC  H15S17943   6.673   4.643   5.890 -0.1917  0.6793  1.2611
  150DOPC  C21617944   6.591   4.575   5.704  1.2842 -0.0600 -0.4089
  150DOPC  H16R17945   6.526   4.508   5.764 -0.7744 -0.2372 -2.6560
  150DOPC  H16S17946   6.677   4.509   5.680  1.0614 -0.3088 -0.5328
  150DOPC  C21717947   6.524   4.616   5.576  0.1017  0.0324 -0.0073
  150DOPC  H17R17948   6.480   4.524   5.531  0.1696 -0.2855  0.5659
  150DOPC  H17S17949   6.603   4.653   5.508  0.3473 -0.7981 -0.1877
  150DOPC  C21817950   6.424   4.735   5.595  0.1883 -0.2378 -0.6353
  150DOPC  H18R17951   6.355   4.702   5.676 -1.2135  0.6664 -1.4271
  150DOPC  H18S17952   6.374   4.753   5.498 -1.6950 -1.2692  0.0977
  150DOPC  H18T17953   6.479   4.826   5.626  0.2575  0.1328 -1.8141
  150DOPC   C3317954   7.686   5.449   5.921  0.1301 -0.0814  0.2953
  150DOPC   H3X17955   7.646   5.507   5.835 -0.2085  1.3643  1.3781
  150DOPC   H3Y17956   7.667   5.346   5.884 -0.5868  1.3178 -3.7642
  150DOPC   C3417957   7.837   5.480   5.936  0.1244 -0.0245  0.3754
  150DOPC   H4X17958   7.878   5.417   6.018  0.2749 -0.0250  0.2984
  150DOPC   H4Y17959   7.850   5.584   5.974  0.7340 -0.0080  0.1201
  150DOPC   C3517960   7.929   5.458   5.817  0.0693  0.4912  0.4073
  150DOPC   H5X17961   7.919   5.360   5.766 -0.1508  0.3743  0.6739
  150DOPC   H5Y17962   8.034   5.456   5.855  0.5318  3.8520 -0.3207
  150DOPC   C3617963   7.927   5.557   5.703 -0.7367 -0.0135 -0.2764
  150DOPC   H6X17964   7.995   5.532   5.620 -1.7277  0.9457 -1.4207
  150DOPC   H6Y17965   7.825   5.567   5.659 -0.3180  4.1000 -0.7304
  150DOPC   C3717966   7.946   5.703   5.739  0.3175 -0.2117  0.1341
  150DOPC   H7X17967   7.878   5.731   5.822  0.5123  0.9113 -0.0700
  150DOPC   H7Y17968   8.050   5.720   5.773 -0.6797  3.9161  1.7264
  150DOPC   C3817969   7.914   5.801   5.620 -0.1013 -0.6744  0.1388
  150DOPC   H8X17970   7.935   5.902   5.662 -2.2708  0.0683 -0.3958
  150DOPC   H8Y17971   7.804   5.794   5.600 -0.1333  2.1655 -1.2038
  150DOPC   C3917972   8.001   5.792   5.499 -0.2861 -0.3068 -0.2111
  150DOPC   H9X17973   8.088   5.724   5.495  0.2953  0.4217 -0.2903
  150DOPC  C31017974   7.974   5.848   5.380 -0.0447  0.3310 -0.3620
  150DOPC  H10X17975   8.047   5.841   5.298  1.8210  1.1314  1.1865
  150DOPC  C31117976   7.861   5.939   5.347 -0.7339  0.0699 -0.6968
  150DOPC  H11X17977   7.894   6.043   5.327  0.3924 -0.3429 -1.0464
  150DOPC  H11Y17978   7.790   5.949   5.432  1.5976 -0.6024  1.4189
  150DOPC  C31217979   7.777   5.888   5.233  0.7244 -0.1199  0.7529
  150DOPC  H12X17980   7.722   5.793   5.249  2.3682 -1.3607 -0.5926
  150DOPC  H12Y17981   7.849   5.862   5.152  0.6030  0.8175  0.3353
  150DOPC  C31317982   7.670   5.989   5.196 -0.4960  0.1155 -0.4815
  150DOPC  H13X17983   7.582   5.974   5.262  0.3630 -2.3830  0.1851
  150DOPC  H13Y17984   7.706   6.089   5.229  0.7532 -0.4717 -0.0051
  150DOPC  C31417985   7.621   5.992   5.047 -0.0869  0.4916  0.3130
  150DOPC  H14X17986   7.705   6.017   4.980  0.2685  0.9533  0.9197
  150DOPC  H14Y17987   7.581   5.896   5.009  0.3311 -0.0389  1.1845
  150DOPC  C31517988   7.514   6.103   5.020  0.1513 -0.2916  0.2422
  150DOPC  H15X17989   7.546   6.192   5.079  2.4818 -0.9036 -0.0102
  150DOPC  H15Y17990   7.416   6.071   5.062  0.1940  0.0999  0.6519
  150DOPC  C31617991   7.496   6.141   4.873 -0.2057  0.2226 -0.2645
  150DOPC  H16X17992   7.591   6.179   4.830 -0.1092  2.8991  1.9643
  150DOPC  H16Y17993   7.466   6.049   4.820  1.9521 -0.8632  0.2989
  150DOPC  C31717994   7.395   6.249   4.850  0.1966  0.1846 -0.1505
  150DOPC  H17X17995   7.298   6.198   4.868  0.2075  0.6454  1.4152
  150DOPC  H17Y17996   7.405   6.331   4.924 -1.3190 -0.6473  1.0377
  150DOPC  C31817997   7.389   6.304   4.709  0.4177 -0.2890  0.5548
  150DOPC  H18X17998   7.377   6.218   4.639 -0.2171 -0.3599  0.7500
  150DOPC  H18Y17999   7.304   6.375   4.708  0.6838  0.0300  0.3422
  150DOPC  H18Z18000   7.485   6.358   4.692  0.2525  0.2801  1.3883
  151DOPC     N18001   0.365   4.038   6.894  0.2590  0.4388 -0.1679
  151DOPC   C1218002   0.380   4.183   6.871  0.3631 -0.1256 -0.5213
  151DOPC  H12A18003   0.434   4.229   6.953  1.3326 -0.0248 -1.2054
  151DOPC  H12B18004   0.279   4.219   6.879  0.7791  1.2487 -1.3275
  151DOPC   C1318005   0.316   4.009   7.033 -0.4723  0.5424 -0.1513
  151DOPC  H13A18006   0.290   3.904   7.043  1.2684 -0.0968 -1.6296
  151DOPC  H13B18007   0.390   4.037   7.106  1.4313 -0.1727 -1.7214
  151DOPC  H13C18008   0.231   4.072   7.053 -2.0387 -1.1375 -1.1437
  151DOPC   C1418009   0.489   3.954   6.876  0.7281 -0.5094 -0.1720
  151DOPC  H14A18010   0.555   3.982   6.957 -0.5785  0.4811  0.6095
  151DOPC  H14B18011   0.463   3.850   6.882  0.1107 -0.5209 -2.3533
  151DOPC  H14C18012   0.524   3.993   6.782 -0.1259  1.0269  0.1063
  151DOPC   C1518013   0.257   3.979   6.809 -0.6351 -0.2842  0.8679
  151DOPC  H15A18014   0.272   4.004   6.706 -1.8025  1.2970  1.0560
  151DOPC  H15B18015   0.172   4.040   6.836 -0.4257  1.0047 -1.1945
  151DOPC  H15C18016   0.231   3.876   6.830 -3.4983 -0.1959 -1.5303
  151DOPC   C1118017   0.442   4.244   6.739 -0.5324 -0.0838  0.6042
  151DOPC  H11A18018   0.368   4.216   6.661 -0.4074 -1.8719  1.0833
  151DOPC  H11B18019   0.444   4.355   6.747  1.7651 -0.0033 -0.3591
  151DOPC     P18020   0.699   4.247   6.787 -0.2847 -0.1553  0.4025
  151DOPC   O1318021   0.792   4.138   6.828 -0.6558 -0.3191  0.3170
  151DOPC   O1418022   0.659   4.327   6.905  0.2222 -0.0055  0.4871
  151DOPC   O1218023   0.575   4.189   6.710  0.4302  0.3028  0.4182
  151DOPC   O1118024   0.769   4.342   6.685 -0.0834 -0.6654  0.1035
  151DOPC    C118025   0.717   4.427   6.583 -0.1302  0.0381  0.0520
  151DOPC    HA18026   0.785   4.512   6.562  0.0053  0.3289  1.5857
  151DOPC    HB18027   0.614   4.467   6.593 -0.9610 -1.2612 -2.4243
  151DOPC    C218028   0.711   4.354   6.445 -0.3795  0.7322 -0.2464
  151DOPC    HS18029   0.667   4.254   6.465  1.7305 -0.4228 -1.0312
  151DOPC   O2118030   0.846   4.339   6.386 -0.6780  0.0282 -0.6807
  151DOPC   C2118031   0.872   4.224   6.331  0.9590  0.1251 -0.2532
  151DOPC   O2218032   0.822   4.120   6.360  0.2344  0.1417  0.1884
  151DOPC   C2218033   0.976   4.237   6.231 -0.4359  0.2786  0.6455
  151DOPC   H2R18034   1.075   4.241   6.281  0.3393 -0.8623 -0.7023
  151DOPC   H2S18035   0.966   4.331   6.172 -1.3574 -0.0189  0.3200
  151DOPC    C318036   0.635   4.434   6.342  0.1473  0.4709 -0.0088
  151DOPC    HX18037   0.693   4.527   6.328  1.2700 -0.3445 -1.0363
  151DOPC    HY18038   0.531   4.458   6.373  0.0990  2.4838 -1.5258
  151DOPC   O3118039   0.628   4.377   6.205 -0.2919 -0.7790 -0.8156
  151DOPC   C3118040   0.519   4.306   6.184  0.0149  0.3594 -0.3371
  151DOPC   O3218041   0.428   4.276   6.261 -0.0509 -0.5991 -0.0150
  151DOPC   C3218042   0.507   4.271   6.041 -0.0130  0.2254 -0.4023
  151DOPC   H2X18043   0.528   4.359   5.976 -1.3102 -0.1855 -1.4070
  151DOPC   H2Y18044   0.583   4.199   6.005  0.1175 -0.6595  1.5020
  151DOPC   C2318045   0.977   4.125   6.122  0.1439 -0.0357  0.2838
  151DOPC   H3R18046   0.887   4.119   6.057 -0.1345 -1.8299  0.7981
  151DOPC   H3S18047   0.981   4.024   6.168  0.5325 -0.5328 -0.7878
  151DOPC   C2418048   1.107   4.139   6.039  0.3633  0.2186 -0.3720
  151DOPC   H4R18049   1.103   4.045   5.979  0.2359 -0.6377  0.9358
  151DOPC   H4S18050   1.201   4.141   6.098 -0.8857  0.9452  1.7009
  151DOPC   C2518051   1.100   4.262   5.947 -0.2949 -0.8397  0.5523
  151DOPC   H5R18052   1.126   4.355   6.002 -1.6589  0.4593 -0.9376
  151DOPC   H5S18053   1.002   4.271   5.896 -0.2892 -0.9281  0.5257
  151DOPC   C2618054   1.204   4.243   5.829 -0.6122 -0.0521 -0.2545
  151DOPC   H6R18055   1.181   4.322   5.755 -1.1451  0.1413  0.1068
  151DOPC   H6S18056   1.201   4.141   5.784  1.0789 -0.2152 -0.0464
  151DOPC   C2718057   1.343   4.273   5.881  0.4097 -0.6126 -0.4536
  151DOPC   H7R18058   1.385   4.182   5.929  2.5087 -0.1237 -1.2729
  151DOPC   H7S18059   1.329   4.348   5.962 -0.0674 -1.1108 -0.0577
  151DOPC   C2818060   1.441   4.323   5.779  0.1303  0.5358  0.7705
  151DOPC   H8R18061   1.519   4.376   5.839 -0.6912  1.3652  1.1168
  151DOPC   H8S18062   1.386   4.402   5.725  0.2561 -0.6797 -1.2135
  151DOPC   C2918063   1.496   4.226   5.683 -0.1398  0.4157 -0.2031
  151DOPC   H9R18064   1.589   4.180   5.718 -1.0196 -1.3441 -0.0609
  151DOPC  C21018065   1.446   4.208   5.560 -0.6487  0.0136  1.2593
  151DOPC  H10R18066   1.494   4.137   5.490 -0.3708  1.8065 -0.4784
  151DOPC  C21118067   1.315   4.263   5.504 -0.8661  0.5141  0.3080
  151DOPC  H11R18068   1.268   4.337   5.572 -0.2145 -0.0698  1.4262
  151DOPC  H11S18069   1.243   4.181   5.484 -0.6531  0.9938 -3.0638
  151DOPC  C21218070   1.343   4.319   5.364  0.7956 -0.9672 -0.4879
  151DOPC  H12R18071   1.240   4.337   5.325  0.4240 -0.8526  0.5243
  151DOPC  H12S18072   1.381   4.235   5.302  0.4235 -0.8897 -0.8266
  151DOPC  C21318073   1.427   4.446   5.368  0.4942 -0.2306  0.0607
  151DOPC  H13R18074   1.528   4.426   5.409  0.6566  0.7181  0.1324
  151DOPC  H13S18075   1.388   4.516   5.444  0.7808  1.5022 -1.3266
  151DOPC  C21418076   1.429   4.525   5.231 -0.0126 -0.3754 -0.3674
  151DOPC  H14R18077   1.501   4.608   5.245  0.2201 -0.4201 -1.2399
  151DOPC  H14S18078   1.327   4.566   5.213 -0.7616 -2.1399 -0.4092
  151DOPC  C21518079   1.477   4.452   5.115 -0.3072 -0.7272 -0.6034
  151DOPC  H15R18080   1.494   4.512   5.023  1.7569  0.6920  0.6203
  151DOPC  H15S18081   1.407   4.370   5.088 -0.1005 -0.4226 -2.1639
  151DOPC  C21618082   1.610   4.381   5.139 -0.7958  0.4653 -0.2526
  151DOPC  H16R18083   1.602   4.303   5.218  1.0728 -0.1309 -0.5923
  151DOPC  H16S18084   1.676   4.461   5.179  1.5955 -1.1161 -0.7951
  151DOPC  C21718085   1.667   4.333   5.006 -0.6553  0.3258 -0.1787
  151DOPC  H17R18086   1.677   4.422   4.941  0.2430  2.0713  2.2186
  151DOPC  H17S18087   1.599   4.264   4.951  1.6252 -1.8058 -0.4586
  151DOPC  C21818088   1.797   4.262   5.022  0.0233  0.6825  0.5101
  151DOPC  H18R18089   1.878   4.338   5.021  0.0313  0.6720 -0.2173
  151DOPC  H18S18090   1.823   4.185   4.946 -2.1155 -0.0076  0.4186
  151DOPC  H18T18091   1.800   4.208   5.120  1.5432  0.9571  0.6531
  151DOPC   C3318092   0.360   4.234   6.007 -0.0859 -0.0980 -0.3167
  151DOPC   H3X18093   0.296   4.322   6.030  0.0411  0.2281 -1.1688
  151DOPC   H3Y18094   0.309   4.152   6.063  0.1144  0.2441  0.3821
  151DOPC   C3418095   0.349   4.217   5.856 -1.3107 -0.6589 -0.0039
  151DOPC   H4X18096   0.395   4.118   5.838  0.3485 -0.5577  2.9873
  151DOPC   H4Y18097   0.402   4.296   5.799 -2.0455  0.0236  0.2432
  151DOPC   C3518098   0.206   4.205   5.813 -0.0782 -0.3313 -0.3331
  151DOPC   H5X18099   0.165   4.306   5.832  0.9666 -0.1518  1.2013
  151DOPC   H5Y18100   0.154   4.137   5.884  0.1996 -0.9684 -0.7268
  151DOPC   C3618101   0.179   4.154   5.668 -0.5412  0.2969  0.1543
  151DOPC   H6X18102   0.234   4.203   5.584  1.9041 -0.5241  1.1860
  151DOPC   H6Y18103   0.195   4.044   5.662 -2.5763 -0.0322  0.1278
  151DOPC   C3718104   0.034   4.169   5.621  0.6039  0.4606  0.3427
  151DOPC   H7X18105  -0.030   4.116   5.695 -0.9106  0.5947 -0.8013
  151DOPC   H7Y18106   0.007   4.277   5.622 -1.3883  0.0110  0.1619
  151DOPC   C3818107   0.006   4.116   5.474 -0.5363 -0.7090 -0.1404
  151DOPC   H8X18108   0.062   4.176   5.399 -1.8740 -0.0419 -0.6331
  151DOPC   H8Y18109  -0.099   4.147   5.455 -0.3437  0.6307  0.8489
  151DOPC   C3918110   0.019   3.965   5.459  0.2283 -0.3582  0.3768
  151DOPC   H9X18111  -0.054   3.914   5.525 -1.5854  1.1782 -0.3625
  151DOPC  C31018112   0.099   3.884   5.389 -0.2514 -0.2935  0.2289
  151DOPC  H10X18113   0.101   3.777   5.418 -2.1584 -0.6561 -0.7798
  151DOPC  C31118114   0.202   3.931   5.292 -0.3901  0.0455  0.4707
  151DOPC  H11X18115   0.212   4.042   5.297  0.1415 -0.0084  0.6783
  151DOPC  H11Y18116   0.185   3.906   5.185  1.1935 -1.0954  0.4510
  151DOPC  C31218117   0.341   3.868   5.327 -0.1242  0.2109  0.0370
  151DOPC  H12X18118   0.411   3.901   5.248 -2.0708  0.2564 -1.7659
  151DOPC  H12Y18119   0.328   3.758   5.318  0.7567  0.1249 -0.3178
  151DOPC  C31318120   0.396   3.892   5.468 -0.7122  0.2321 -0.0349
  151DOPC  H13X18121   0.426   3.998   5.484  1.0893 -0.3876  1.0591
  151DOPC  H13Y18122   0.322   3.867   5.547 -0.0921 -0.0737  0.4590
  151DOPC  C31418123   0.524   3.809   5.501 -0.4051  0.1643  0.0304
  151DOPC  H14X18124   0.499   3.701   5.499  2.5287 -0.5787 -1.3134
  151DOPC  H14Y18125   0.602   3.825   5.423 -0.5766 -0.0854 -0.1944
  151DOPC  C31518126   0.575   3.855   5.637  0.1302  0.3348 -0.4835
  151DOPC  H15X18127   0.481   3.852   5.696 -0.7907  0.3666 -1.8946
  151DOPC  H15Y18128   0.627   3.953   5.628 -0.6706  0.6333 -2.4243
  151DOPC  C31618129   0.660   3.749   5.699  0.9712  0.2270 -0.4635
  151DOPC  H16X18130   0.625   3.644   5.689  1.7813 -0.4985  3.0085
  151DOPC  H16Y18131   0.756   3.750   5.643  1.1743 -1.5460 -0.2176
  151DOPC  C31718132   0.693   3.767   5.849 -0.1111 -0.5617 -0.0531
  151DOPC  H17X18133   0.593   3.751   5.895 -0.2726  0.7450  0.0765
  151DOPC  H17Y18134   0.778   3.697   5.868  0.2954 -0.0424  0.0503
  151DOPC  C31818135   0.745   3.913   5.878 -0.1252 -0.0877 -0.0605
  151DOPC  H18X18136   0.654   3.976   5.881 -1.1418 -1.4724 -0.8089
  151DOPC  H18Y18137   0.794   3.920   5.978  0.9647 -0.9152 -0.5114
  151DOPC  H18Z18138   0.810   3.952   5.797 -0.0620  0.1352  0.0983
  152DOPC     N18139   4.517   1.648   7.085 -0.1613 -0.2564 -0.0628
  152DOPC   C1218140   4.601   1.531   7.110  0.3092 -0.0834 -0.0793
  152DOPC  H12A18141   4.705   1.556   7.095  0.1779 -0.4305 -1.7895
  152DOPC  H12B18142   4.577   1.462   7.030 -0.9415  2.3035 -1.9031
  152DOPC   C1318143   4.374   1.600   7.087 -0.3038 -0.7829  0.6326
  152DOPC  H13A18144   4.348   1.524   7.014 -2.4640  1.6509 -1.3471
  152DOPC  H13B18145   4.343   1.571   7.186 -1.6751  0.8965  0.7443
  152DOPC  H13C18146   4.310   1.685   7.065 -2.0883 -1.7943  1.6696
  152DOPC   C1418147   4.543   1.718   6.953 -0.3654  0.0315  0.5137
  152DOPC  H14A18148   4.622   1.789   6.973  0.2956 -0.5595  0.0453
  152DOPC  H14B18149   4.569   1.643   6.881  0.2326 -0.4747  1.2504
  152DOPC  H14C18150   4.459   1.780   6.922 -1.4870 -1.7205 -0.0823
  152DOPC   C1518151   4.538   1.747   7.197  0.2441 -0.0343  0.1885
  152DOPC  H15A18152   4.467   1.828   7.186  2.6597  2.1726 -0.3550
  152DOPC  H15B18153   4.641   1.780   7.200 -0.0537  0.8991  2.8217
  152DOPC  H15C18154   4.526   1.691   7.288  0.7321 -0.1515  0.1837
  152DOPC   C1118155   4.597   1.466   7.247 -0.2301 -0.3255  0.2018
  152DOPC  H11A18156   4.495   1.440   7.284 -0.9565  0.0344 -1.4636
  152DOPC  H11B18157   4.639   1.364   7.237 -0.4325 -0.2638 -1.4600
  152DOPC     P18158   4.822   1.572   7.363  0.1358 -0.0133  0.1756
  152DOPC   O1318159   4.876   1.474   7.463  0.6484  0.0080  0.0084
  152DOPC   O1418160   4.836   1.715   7.378  0.0241  0.1825 -0.2963
  152DOPC   O1218161   4.663   1.548   7.349 -0.4995 -0.0996  0.4928
  152DOPC   O1118162   4.879   1.538   7.223  0.2874  0.3990  0.0646
  152DOPC    C118163   5.019   1.524   7.214  0.1615  1.2787  0.8574
  152DOPC    HA18164   5.059   1.427   7.252  0.1092  0.3046 -1.4397
  152DOPC    HB18165   5.076   1.607   7.261  1.1905  0.1018  1.7518
  152DOPC    C218166   5.066   1.555   7.064 -0.0246  0.2874 -0.2906
  152DOPC    HS18167   5.041   1.662   7.046 -1.2091  0.0628 -0.0609
  152DOPC   O2118168   5.011   1.472   6.974  0.3272  0.8759  0.7815
  152DOPC   C2118169   4.888   1.504   6.936 -0.4557 -0.0939  0.1389
  152DOPC   O2218170   4.835   1.609   6.954  0.0609 -0.1159  0.1168
  152DOPC   C2218171   4.840   1.397   6.830 -0.1063  0.6731  0.1440
  152DOPC   H2R18172   4.851   1.303   6.888  0.6246 -0.3180 -1.5191
  152DOPC   H2S18173   4.917   1.400   6.749 -0.0987  3.7640  0.1253
  152DOPC    C318174   5.217   1.547   7.053 -0.7678 -0.4294  0.4239
  152DOPC    HX18175   5.243   1.447   7.093  1.2219  0.5317  1.6799
  152DOPC    HY18176   5.274   1.618   7.116  1.9702 -0.9457 -1.3115
  152DOPC   O3118177   5.265   1.552   6.912  0.5760 -0.2007 -0.0100
  152DOPC   C3118178   5.263   1.681   6.859  0.4683  0.1483 -0.4419
  152DOPC   O3218179   5.217   1.779   6.907  0.3649 -0.2456 -0.0090
  152DOPC   C3218180   5.307   1.666   6.718  0.1234 -0.4494 -0.5405
  152DOPC   H2X18181   5.236   1.729   6.660  0.6773  1.8435  1.1164
  152DOPC   H2Y18182   5.407   1.714   6.709 -0.1743  0.4642  0.8122
  152DOPC   C2318183   4.695   1.413   6.767  0.4498 -0.4551 -0.4855
  152DOPC   H3R18184   4.623   1.469   6.831 -0.1851 -2.7611  0.9218
  152DOPC   H3S18185   4.647   1.317   6.737  0.0725 -0.4775  0.1687
  152DOPC   C2418186   4.709   1.497   6.642 -0.8010  0.4396  0.5248
  152DOPC   H4R18187   4.787   1.452   6.577 -1.1062  1.7888 -0.8108
  152DOPC   H4S18188   4.743   1.600   6.665  0.5149  0.7291 -2.3714
  152DOPC   C2518189   4.576   1.499   6.563 -0.0580 -0.1014 -0.1669
  152DOPC   H5R18190   4.498   1.537   6.633 -0.2402  3.2927 -2.0311
  152DOPC   H5S18191   4.550   1.396   6.529  1.6111 -0.0657 -1.6882
  152DOPC   C2618192   4.582   1.572   6.427  0.0476  0.0991  0.2236
  152DOPC   H6R18193   4.488   1.550   6.372  0.6059 -2.8006  0.2849
  152DOPC   H6S18194   4.662   1.526   6.365  0.1987  0.2786  0.2817
  152DOPC   C2718195   4.621   1.718   6.439  1.0684  0.1370  0.6311
  152DOPC   H7R18196   4.714   1.736   6.497  0.7071  1.1181  0.9337
  152DOPC   H7S18197   4.543   1.772   6.497  0.7811 -0.5179  0.8554
  152DOPC   C2818198   4.628   1.792   6.301  0.7492  0.0424 -0.1602
  152DOPC   H8R18199   4.643   1.901   6.321  0.8332 -0.3592  2.2590
  152DOPC   H8S18200   4.534   1.781   6.242  1.2044  2.7807 -1.5785
  152DOPC   C2918201   4.728   1.735   6.209 -1.4113  0.5617 -0.1009
  152DOPC   H9R18202   4.817   1.698   6.262  0.2224  2.5162 -1.3120
  152DOPC  C21018203   4.746   1.745   6.079 -0.1017 -0.0677  0.4759
  152DOPC  H10R18204   4.836   1.697   6.038  1.7733  2.7608  1.0132
  152DOPC  C21118205   4.670   1.825   5.984 -0.4348  0.4758  0.7767
  152DOPC  H11R18206   4.727   1.916   5.954 -0.0796 -0.1461 -0.5429
  152DOPC  H11S18207   4.574   1.862   6.026 -0.7102 -1.4624  1.9725
  152DOPC  C21218208   4.650   1.741   5.859 -0.6442  0.8078  0.3113
  152DOPC  H12R18209   4.585   1.653   5.879  0.5217 -0.0821  0.2416
  152DOPC  H12S18210   4.741   1.703   5.809 -1.3169 -0.6481  0.1572
  152DOPC  C21318211   4.590   1.836   5.758 -0.6344  0.1760 -0.0032
  152DOPC  H13R18212   4.662   1.921   5.761 -0.6995  0.2506 -0.5866
  152DOPC  H13S18213   4.486   1.871   5.776 -0.4556  0.1474  1.2285
  152DOPC  C21418214   4.601   1.779   5.606  0.1664 -0.6663  0.4414
  152DOPC  H14R18215   4.525   1.699   5.603 -0.4611 -0.0587 -2.2862
  152DOPC  H14S18216   4.697   1.727   5.583  0.3969  0.2575 -0.8026
  152DOPC  C21518217   4.592   1.891   5.508  0.4302  0.2640 -0.5999
  152DOPC  H15R18218   4.589   1.863   5.400  0.0701 -4.4212  0.4081
  152DOPC  H15S18219   4.686   1.952   5.510  0.5456  0.0728 -0.0457
  152DOPC  C21618220   4.470   1.986   5.528  0.0007 -0.0012 -0.9633
  152DOPC  H16R18221   4.492   2.072   5.460  2.1472  0.1186 -0.1947
  152DOPC  H16S18222   4.463   2.032   5.628  0.7041 -0.0319 -0.8963
  152DOPC  C21718223   4.330   1.923   5.502 -0.6655  0.3631  0.9048
  152DOPC  H17R18224   4.260   2.006   5.527 -0.1071  0.1340  3.4661
  152DOPC  H17S18225   4.307   1.851   5.584  0.4347 -2.9960 -1.5279
  152DOPC  C21818226   4.304   1.862   5.361  0.9244 -0.5868 -0.2254
  152DOPC  H18R18227   4.369   1.773   5.342  0.3789 -1.5353  2.0618
  152DOPC  H18S18228   4.323   1.945   5.290  0.5051  1.0776  1.5342
  152DOPC  H18T18229   4.201   1.823   5.352 -0.5373  2.8920 -0.0258
  152DOPC   C3318230   5.305   1.530   6.652  0.6478 -0.1243  0.1114
  152DOPC   H3X18231   5.213   1.472   6.674 -0.3595  0.8895 -1.2607
  152DOPC   H3Y18232   5.382   1.465   6.700  0.6105 -0.0031  0.3363
  152DOPC   C3418233   5.327   1.529   6.497  0.5215 -0.5959 -0.6177
  152DOPC   H4X18234   5.352   1.426   6.465 -1.5813 -1.4575  0.3658
  152DOPC   H4Y18235   5.391   1.611   6.457  0.8662 -0.6853 -0.2552
  152DOPC   C3518236   5.186   1.557   6.422  0.2969 -0.4002  0.4315
  152DOPC   H5X18237   5.215   1.567   6.315  1.5578  0.0900  0.8005
  152DOPC   H5Y18238   5.156   1.658   6.457  3.5881  0.7088  0.3989
  152DOPC   C3618239   5.083   1.448   6.434  0.1697 -0.4248  0.5084
  152DOPC   H6X18240   5.134   1.355   6.402 -1.7802 -0.8413 -1.6798
  152DOPC   H6Y18241   5.050   1.440   6.540 -0.1574 -1.2103  0.3556
  152DOPC   C3718242   4.952   1.459   6.348 -0.6991 -0.0335  0.2197
  152DOPC   H7X18243   4.884   1.529   6.401 -0.8341  0.2943 -0.3875
  152DOPC   H7Y18244   4.990   1.503   6.254 -0.5603  0.1368  0.3553
  152DOPC   C3818245   4.894   1.322   6.323 -0.6727  0.1294 -0.3860
  152DOPC   H8X18246   4.784   1.335   6.331 -0.8936  0.9187 -3.2976
  152DOPC   H8Y18247   4.930   1.269   6.413 -0.0440  1.4047  0.1372
  152DOPC   C3918248   4.932   1.245   6.196  0.1978 -0.6812 -0.4449
  152DOPC   H9X18249   5.031   1.199   6.209  0.3940 -0.1097  0.0715
  152DOPC  C31018250   4.853   1.223   6.092  0.3877  0.0080 -0.0441
  152DOPC  H10X18251   4.889   1.148   6.019 -1.8938 -1.3188  0.0877
  152DOPC  C31118252   4.717   1.281   6.066  0.1617 -0.0951 -0.3944
  152DOPC  H11X18253   4.700   1.371   6.128 -1.4441  1.3841 -2.8132
  152DOPC  H11Y18254   4.643   1.201   6.086 -0.4882  0.4348 -0.6416
  152DOPC  C31218255   4.696   1.292   5.921  0.2677 -0.0907  0.3565
  152DOPC  H12X18256   4.726   1.207   5.856  2.4073  1.5613 -0.9555
  152DOPC  H12Y18257   4.774   1.358   5.877 -0.1954 -0.0519 -0.4258
  152DOPC  C31318258   4.559   1.349   5.874 -0.4593 -0.0297 -0.6018
  152DOPC  H13X18259   4.480   1.273   5.896  0.0087 -0.1436  0.8012
  152DOPC  H13Y18260   4.531   1.438   5.935  0.8168 -0.6322  0.9232
  152DOPC  C31418261   4.542   1.383   5.727  0.3294 -1.1579 -0.0029
  152DOPC  H14X18262   4.622   1.449   5.687 -2.0520  0.7585 -2.0085
  152DOPC  H14Y18263   4.558   1.300   5.654  1.3160 -0.9087 -0.0898
  152DOPC  C31518264   4.406   1.441   5.701  0.1123  0.3309  0.5026
  152DOPC  H15X18265   4.405   1.543   5.746  1.5900  0.6994 -0.2640
  152DOPC  H15Y18266   4.335   1.377   5.757 -2.8140  2.7174 -0.1939
  152DOPC  C31618267   4.362   1.440   5.559  0.1476  1.1983 -0.0676
  152DOPC  H16X18268   4.444   1.488   5.502  1.3757 -1.6197 -0.8285
  152DOPC  H16Y18269   4.347   1.341   5.510  1.3434  1.1069 -0.2913
  152DOPC  C31718270   4.242   1.530   5.525 -0.1356  0.1248 -0.1624
  152DOPC  H17X18271   4.160   1.522   5.599  1.6158 -0.4477  1.8399
  152DOPC  H17Y18272   4.278   1.635   5.534 -0.3819  0.1497  0.6631
  152DOPC  C31818273   4.170   1.501   5.399  0.0589  0.1737 -0.1898
  152DOPC  H18X18274   4.217   1.542   5.307 -0.9180  0.3905 -0.6026
  152DOPC  H18Y18275   4.156   1.393   5.375  1.4990 -0.0107 -0.3098
  152DOPC  H18Z18276   4.072   1.553   5.408  0.2170  0.5635 -0.7026
  153DOPC     N18277   5.697   6.180   7.044  0.1748 -0.3120 -0.1416
  153DOPC   C1218278   5.654   6.310   7.113 -0.7168 -0.7764  0.1625
  153DOPC  H12A18279   5.691   6.394   7.055 -1.3344 -0.4753  0.2038
  153DOPC  H12B18280   5.709   6.319   7.206  1.3751  2.0603 -1.1861
  153DOPC   C1318281   5.841   6.176   7.009 -0.1571  0.3122  0.3501
  153DOPC  H13A18282   5.871   6.086   6.958 -0.8942  0.9124 -1.2177
  153DOPC  H13B18283   5.861   6.270   6.958 -0.8977  0.7175  0.7900
  153DOPC  H13C18284   5.903   6.166   7.097  0.1984  2.6674  0.4283
  153DOPC   C1418285   5.624   6.156   6.920 -0.1629  0.1045  0.4516
  153DOPC  H14A18286   5.645   6.233   6.848  2.1585 -1.7392 -0.9928
  153DOPC  H14B18287   5.653   6.057   6.887 -0.1862  0.7062 -1.4429
  153DOPC  H14C18288   5.516   6.148   6.928 -0.0665 -4.5217 -0.0999
  153DOPC   C1518289   5.658   6.075   7.139  0.3226  0.0788 -0.8846
  153DOPC  H15A18290   5.551   6.085   7.153  0.4636  0.0265  0.3484
  153DOPC  H15B18291   5.703   6.076   7.237 -0.6075 -1.3668 -0.3938
  153DOPC  H15C18292   5.683   5.981   7.091 -1.2704 -0.6516 -0.3598
  153DOPC   C1118293   5.507   6.346   7.140 -0.8779  0.1772 -0.2211
  153DOPC  H11A18294   5.459   6.258   7.187 -3.2153  1.5486  0.1029
  153DOPC  H11B18295   5.501   6.430   7.212 -0.2159 -0.2515  0.3515
  153DOPC     P18296   5.455   6.515   6.943 -0.1595  0.3888 -0.0404
  153DOPC   O1318297   5.598   6.538   6.915  0.1668  0.3426  0.1833
  153DOPC   O1418298   5.383   6.615   7.023 -0.0781 -0.2897  0.5084
  153DOPC   O1218299   5.442   6.375   7.012 -0.1191 -0.3195 -0.5320
  153DOPC   O1118300   5.375   6.496   6.808 -0.0345 -0.1016  0.2270
  153DOPC    C118301   5.429   6.433   6.693  0.4865 -0.1744 -0.2676
  153DOPC    HA18302   5.493   6.346   6.720  1.0742  0.6978  1.2396
  153DOPC    HB18303   5.496   6.501   6.636 -1.0160 -0.0038 -1.9248
  153DOPC    C218304   5.325   6.393   6.587 -0.2473  0.2230 -0.4086
  153DOPC    HS18305   5.280   6.297   6.621  0.1537  0.7836  1.8147
  153DOPC   O2118306   5.408   6.368   6.467  0.5800  0.8254  0.2707
  153DOPC   C2118307   5.345   6.298   6.376  0.2916  0.5042  0.4399
  153DOPC   O2218308   5.230   6.261   6.386 -0.0521  0.5658 -0.0599
  153DOPC   C2218309   5.443   6.266   6.265  0.7509  0.1664 -0.4935
  153DOPC   H2R18310   5.539   6.243   6.315  0.2804  3.3312  2.2586
  153DOPC   H2S18311   5.455   6.361   6.207  1.4269  1.9617  2.3967
  153DOPC    C318312   5.220   6.502   6.562 -0.5510 -0.0168 -0.0025
  153DOPC    HX18313   5.155   6.500   6.652 -2.6227 -2.9207 -1.4156
  153DOPC    HY18314   5.156   6.485   6.473 -0.4415 -0.2396 -0.0378
  153DOPC   O3118315   5.284   6.629   6.545 -0.2177  0.4460  0.7307
  153DOPC   C3118316   5.271   6.727   6.631 -0.2653 -0.2923  0.2674
  153DOPC   O3218317   5.184   6.730   6.717  0.0263  0.0632 -0.0245
  153DOPC   C3218318   5.386   6.824   6.603 -0.0364  0.0897  0.1223
  153DOPC   H2X18319   5.375   6.903   6.680  0.0751  1.5657 -1.3192
  153DOPC   H2Y18320   5.480   6.765   6.604  0.5942  1.0358 -1.0559
  153DOPC   C2318321   5.373   6.163   6.172  0.1527  0.5655 -0.0660
  153DOPC   H3R18322   5.269   6.200   6.164 -0.0191  0.2461  0.6813
  153DOPC   H3S18323   5.383   6.062   6.218  0.2977  0.2375 -0.7948
  153DOPC   C2418324   5.436   6.158   6.036 -0.2703 -0.0212  0.1071
  153DOPC   H4R18325   5.546   6.143   6.042 -0.1322  0.3534 -1.2481
  153DOPC   H4S18326   5.430   6.260   5.992 -0.0587  0.1212  0.4091
  153DOPC   C2518327   5.392   6.050   5.931  0.5652 -0.1536  0.3999
  153DOPC   H5R18328   5.284   6.056   5.909  0.9681 -1.6249 -2.3510
  153DOPC   H5S18329   5.414   5.948   5.970 -0.1217 -1.3125 -2.0482
  153DOPC   C2618330   5.477   6.071   5.801  0.7827 -0.2912  0.4921
  153DOPC   H6R18331   5.529   5.973   5.798  0.6608 -0.3683  0.8126
  153DOPC   H6S18332   5.551   6.148   5.831  1.3670 -0.4046 -0.6259
  153DOPC   C2718333   5.401   6.107   5.668 -0.2217 -0.5470 -0.3312
  153DOPC   H7R18334   5.463   6.139   5.582 -2.9067  1.5335 -1.6279
  153DOPC   H7S18335   5.337   6.193   5.696  2.5267  1.1782  1.1980
  153DOPC   C2818336   5.315   5.991   5.615  0.2585 -0.4704 -0.2653
  153DOPC   H8R18337   5.255   6.041   5.536  1.0499 -0.4832 -0.8801
  153DOPC   H8S18338   5.246   5.973   5.701 -0.5751  0.0209 -0.8177
  153DOPC   C2918339   5.381   5.863   5.577 -0.1583  0.5348 -0.4114
  153DOPC   H9R18340   5.412   5.807   5.667  0.0479  2.3492  0.7223
  153DOPC  C21018341   5.417   5.820   5.451 -0.4817  0.0808 -1.0430
  153DOPC  H10R18342   5.484   5.734   5.442 -0.2579 -0.1505  1.8744
  153DOPC  C21118343   5.396   5.894   5.325  0.3646 -0.2101  0.2010
  153DOPC  H11R18344   5.474   5.971   5.310 -0.6387  0.6325 -0.9011
  153DOPC  H11S18345   5.304   5.956   5.324  0.1456 -0.5371 -0.6184
  153DOPC  C21218346   5.423   5.802   5.205  0.3293  0.1968  0.5552
  153DOPC  H12R18347   5.373   5.703   5.207 -0.7845  0.7659  1.6568
  153DOPC  H12S18348   5.532   5.783   5.217  0.2760  0.1643  0.9781
  153DOPC  C21318349   5.397   5.863   5.061 -0.0694  0.2174  0.1034
  153DOPC  H13R18350   5.303   5.922   5.058 -0.5526 -0.5540 -0.1009
  153DOPC  H13S18351   5.362   5.778   4.998  0.6021  0.0078  0.0040
  153DOPC  C21418352   5.519   5.929   5.003  0.1172 -0.2232 -1.3641
  153DOPC  H14R18353   5.566   5.982   5.089 -0.2130  1.5863 -2.2610
  153DOPC  H14S18354   5.486   5.996   4.921 -2.6946 -0.4919 -0.5568
  153DOPC  C21518355   5.611   5.835   4.929 -0.7064 -0.2263 -0.2358
  153DOPC  H15R18356   5.559   5.807   4.835  2.4498  1.9654 -2.8648
  153DOPC  H15S18357   5.625   5.743   4.989 -1.8917 -0.9251 -0.9875
  153DOPC  C21618358   5.749   5.904   4.888 -0.4897  0.3970 -0.1355
  153DOPC  H16R18359   5.808   5.913   4.981 -0.0145 -1.9002 -0.1745
  153DOPC  H16S18360   5.735   6.007   4.848 -1.3295  0.2428 -0.2552
  153DOPC  C21718361   5.824   5.824   4.775  0.3539  0.5127 -0.8466
  153DOPC  H17R18362   5.784   5.853   4.676 -0.4061  0.0009 -0.7002
  153DOPC  H17S18363   5.799   5.719   4.803 -0.1328  0.9995  0.6817
  153DOPC  C21818364   5.976   5.833   4.780  0.1916  0.0974 -0.6890
  153DOPC  H18R18365   6.025   5.739   4.746 -0.3780 -0.1456 -0.8391
  153DOPC  H18S18366   6.009   5.837   4.886 -1.9223  0.0317  0.0173
  153DOPC  H18T18367   6.017   5.923   4.728  0.6345  0.0274 -0.4635
  153DOPC   C3318368   5.364   6.896   6.471 -0.7269 -0.2677 -0.0832
  153DOPC   H3X18369   5.266   6.948   6.482 -0.9982 -0.4383 -1.4915
  153DOPC   H3Y18370   5.360   6.815   6.395  0.6236 -2.6769  2.2445
  153DOPC   C3418371   5.471   6.996   6.415 -0.2153 -0.0816  0.6410
  153DOPC   H4X18372   5.418   7.050   6.334 -0.4303 -2.3270 -0.7924
  153DOPC   H4Y18373   5.545   6.931   6.362 -1.3351 -0.3402 -0.6430
  153DOPC   C3518374   5.542   7.077   6.530 -0.0787 -0.2772  0.2403
  153DOPC   H5X18375   5.589   7.017   6.611  4.7224  1.7911 -0.6341
  153DOPC   H5Y18376   5.469   7.138   6.588  1.1252 -0.4444  2.0218
  153DOPC   C3618377   5.640   7.175   6.463  0.4609 -0.3769 -0.1607
  153DOPC   H6X18378   5.700   7.110   6.396 -0.0597  0.1749 -1.1716
  153DOPC   H6Y18379   5.579   7.243   6.400 -1.1967 -0.9743  0.7311
  153DOPC   C3718380   5.729   7.245   6.564  0.1572  0.6667 -0.3013
  153DOPC   H7X18381   5.663   7.290   6.641  0.5657 -1.8581  1.6659
  153DOPC   H7Y18382   5.779   7.165   6.623 -1.0373  1.4172  1.8360
  153DOPC   C3818383   5.824   7.350   6.504  0.0591  0.2867 -0.2066
  153DOPC   H8X18384   5.855   7.411   6.590 -0.4881 -0.1365  0.3045
  153DOPC   H8Y18385   5.779   7.416   6.427 -1.2314  1.1368  1.2399
  153DOPC   C3918386   5.949   7.275   6.457  0.0255 -0.6600  0.8424
  153DOPC   H9X18387   6.000   7.208   6.528 -1.2501 -2.7884 -0.1423
  153DOPC  C31018388   5.985   7.261   6.329 -0.5374  0.1143 -0.2817
  153DOPC  H10X18389   6.055   7.179   6.306  0.2982 -0.3228  3.2303
  153DOPC  C31118390   5.919   7.316   6.205  0.3083 -0.0650 -0.1530
  153DOPC  H11X18391   5.899   7.424   6.223 -0.0451 -0.0962 -0.3693
  153DOPC  H11Y18392   5.826   7.265   6.172  1.5507 -1.7700 -1.1641
  153DOPC  C31218393   6.021   7.315   6.092 -0.4760  0.6396 -0.7557
  153DOPC  H12X18394   6.058   7.214   6.065  2.2865  0.8735  1.6690
  153DOPC  H12Y18395   6.115   7.364   6.125 -0.2161 -1.7514  2.6108
  153DOPC  C31318396   5.973   7.393   5.967 -0.6040  0.2744  0.2785
  153DOPC  H13X18397   5.872   7.358   5.941 -0.9982  3.1936 -2.7238
  153DOPC  H13Y18398   5.961   7.498   6.003 -0.6606  0.7303 -1.0177
  153DOPC  C31418399   6.059   7.377   5.837 -0.1141  0.1839 -0.7995
  153DOPC  H14X18400   6.050   7.272   5.803  0.2054 -0.1678  0.1832
  153DOPC  H14Y18401   6.015   7.436   5.753 -0.8217  1.8095  0.6508
  153DOPC  C31518402   6.210   7.404   5.851  0.3665  0.6626 -0.5863
  153DOPC  H15X18403   6.256   7.399   5.750  0.0514  2.4739 -0.8583
  153DOPC  H15Y18404   6.243   7.325   5.922  2.3048  1.5883 -0.3615
  153DOPC  C31618405   6.248   7.534   5.911 -0.1836 -0.3347 -0.1246
  153DOPC  H16X18406   6.233   7.618   5.839 -0.1291  0.4445  0.7613
  153DOPC  H16Y18407   6.198   7.548   6.009  1.0062 -0.3523  0.5005
  153DOPC  C31718408   6.396   7.532   5.942 -0.3263  0.2194 -0.5870
  153DOPC  H17X18409   6.406   7.601   6.028  0.5704  0.4977 -0.9057
  153DOPC  H17Y18410   6.423   7.431   5.979 -0.4763  0.4583  0.1982
  153DOPC  C31818411   6.489   7.596   5.835 -0.6167  0.2493  0.6480
  153DOPC  H18X18412   6.447   7.698   5.817  2.5443  1.8872  1.7567
  153DOPC  H18Y18413   6.593   7.601   5.874  0.1277 -1.3297 -1.0085
  153DOPC  H18Z18414   6.476   7.531   5.746  0.2854  0.2756  0.4890
  154DOPC     N18415   6.874   5.295   7.035  0.1480  0.1715  0.2019
  154DOPC   C1218416   6.825   5.152   7.033 -0.1997 -0.0545 -0.3279
  154DOPC  H12A18417   6.721   5.147   7.002 -1.2080 -0.3749  2.7391
  154DOPC  H12B18418   6.817   5.112   7.134 -3.9685  0.6346 -0.2070
  154DOPC   C1318419   7.010   5.281   7.102 -0.1335  0.0635 -0.3617
  154DOPC  H13A18420   6.995   5.236   7.199 -4.2915  1.1801 -0.2741
  154DOPC  H13B18421   7.073   5.223   7.036  0.8663  1.4095 -0.6212
  154DOPC  H13C18422   7.051   5.379   7.116 -1.3330  0.2922  2.0300
  154DOPC   C1418423   6.793   5.380   7.116  0.1845 -0.0237  0.1941
  154DOPC  H14A18424   6.688   5.369   7.093 -0.3946  0.1434  2.5070
  154DOPC  H14B18425   6.806   5.350   7.219 -0.2725  0.6563  0.4610
  154DOPC  H14C18426   6.817   5.484   7.099 -0.8230  0.0536 -0.8240
  154DOPC   C1518427   6.892   5.360   6.904  0.4519  0.4508  0.0938
  154DOPC  H15A18428   6.910   5.465   6.917 -1.1642  0.8639 -0.7144
  154DOPC  H15B18429   6.800   5.345   6.849 -0.0850 -3.8202  1.7307
  154DOPC  H15C18430   6.972   5.310   6.852 -1.0688 -2.3631  0.2521
  154DOPC   C1118431   6.911   5.058   6.947 -0.1868  0.3261  1.0595
  154DOPC  H11A18432   7.018   5.053   6.977  0.3973  0.5678 -0.8950
  154DOPC  H11B18433   6.873   4.956   6.969  0.4774 -0.1621 -0.0319
  154DOPC     P18434   6.963   4.988   6.699  0.1963  0.1917  0.0001
  154DOPC   O1318435   6.867   4.881   6.664  0.4752 -0.6462  0.0381
  154DOPC   O1418436   7.093   4.944   6.740  0.3453 -0.0125 -0.0681
  154DOPC   O1218437   6.895   5.088   6.808 -0.4284 -0.2931 -0.6696
  154DOPC   O1118438   6.969   5.082   6.571 -0.2783  0.0433  0.6718
  154DOPC    C118439   6.847   5.148   6.530  0.2140  0.0789  0.5623
  154DOPC    HA18440   6.878   5.249   6.495  2.2144 -0.5915  0.2811
  154DOPC    HB18441   6.777   5.159   6.616  0.8441  0.6797  1.0025
  154DOPC    C218442   6.780   5.092   6.400  0.5257  0.0245  0.5833
  154DOPC    HS18443   6.774   4.982   6.410  0.1996 -0.0923 -0.7108
  154DOPC   O2118444   6.851   5.133   6.275 -0.0159 -0.0480 -0.6578
  154DOPC   C2118445   6.948   5.051   6.232 -0.1726  0.2319  0.2821
  154DOPC   O2218446   6.973   4.942   6.286  0.3312 -0.3448  0.0852
  154DOPC   C2218447   7.019   5.104   6.107 -0.1930  0.5982 -0.3681
  154DOPC   H2R18448   7.041   5.210   6.131  0.6883 -0.3503  3.7491
  154DOPC   H2S18449   6.956   5.088   6.017  0.1665 -0.6332 -0.4222
  154DOPC    C318450   6.629   5.141   6.386  0.0626 -0.3504 -0.0775
  154DOPC    HX18451   6.626   5.248   6.356  1.0294 -0.5596 -1.0091
  154DOPC    HY18452   6.589   5.139   6.490  0.6364  0.3650  0.1605
  154DOPC   O3118453   6.551   5.067   6.294  0.5239  0.2161  0.2698
  154DOPC   C3118454   6.422   5.086   6.316  0.1344 -0.1242 -0.6184
  154DOPC   O3218455   6.367   5.164   6.398  0.7418 -0.0946  0.0164
  154DOPC   C3218456   6.347   4.988   6.224  0.5536  0.5878  0.3117
  154DOPC   H2X18457   6.405   4.976   6.130  0.5657  0.2425  0.3596
  154DOPC   H2Y18458   6.331   4.891   6.277  1.0813 -0.4869 -1.4017
  154DOPC   C2318459   7.147   5.028   6.063  0.2408 -0.8058 -1.2359
  154DOPC   H3R18460   7.110   4.923   6.060  1.0957 -1.1019 -1.7087
  154DOPC   H3S18461   7.230   5.030   6.138 -0.6448  1.2706 -0.2409
  154DOPC   C2418462   7.197   5.067   5.932  0.4688  0.3422 -0.1154
  154DOPC   H4R18463   7.129   5.020   5.858  0.1903 -1.6472  1.3316
  154DOPC   H4S18464   7.296   5.019   5.912  0.8830  1.8802 -2.0860
  154DOPC   C2518465   7.220   5.205   5.893  0.0686  0.1977 -0.5268
  154DOPC   H5R18466   7.292   5.252   5.964  0.1066  0.9633 -1.0558
  154DOPC   H5S18467   7.131   5.267   5.920  1.2452  1.5567  0.3662
  154DOPC   C2618468   7.266   5.223   5.750 -0.4449  0.1838  0.5463
  154DOPC   H6R18469   7.177   5.228   5.684 -0.4899  0.9284  0.6540
  154DOPC   H6S18470   7.331   5.136   5.726  0.7036  1.4096 -0.9546
  154DOPC   C2718471   7.343   5.355   5.716  0.2231  0.2767 -0.4107
  154DOPC   H7R18472   7.377   5.354   5.610  0.5209  0.3651 -0.3189
  154DOPC   H7S18473   7.430   5.351   5.786 -0.9283 -2.4655  0.9969
  154DOPC   C2818474   7.260   5.483   5.745  0.4406  0.0684  0.2414
  154DOPC   H8R18475   7.213   5.462   5.844 -1.3586  0.6247 -0.4545
  154DOPC   H8S18476   7.175   5.491   5.674 -0.2841  2.9006  1.2835
  154DOPC   C2918477   7.333   5.614   5.752 -0.1372  0.1158 -0.2517
  154DOPC   H9R18478   7.329   5.673   5.845  1.8798  1.4795 -0.9483
  154DOPC  C21018479   7.404   5.678   5.658  0.2714 -0.3111  0.3295
  154DOPC  H10R18480   7.458   5.770   5.684  0.4956 -0.3593  0.0408
  154DOPC  C21118481   7.420   5.629   5.513 -0.2081 -0.2908 -0.5147
  154DOPC  H11R18482   7.398   5.711   5.441 -0.1350 -0.2499 -0.4903
  154DOPC  H11S18483   7.351   5.542   5.506  1.4729 -1.8861  1.5219
  154DOPC  C21218484   7.558   5.570   5.476  0.2895  0.5092 -0.3615
  154DOPC  H12R18485   7.584   5.487   5.545  1.9397  1.4465  0.1951
  154DOPC  H12S18486   7.632   5.650   5.498  3.1386 -1.8624 -0.7177
  154DOPC  C21318487   7.563   5.540   5.326 -0.1875 -0.0610  0.2901
  154DOPC  H13R18488   7.670   5.532   5.296 -0.6625 -1.6714 -1.1219
  154DOPC  H13S18489   7.527   5.625   5.263  1.7755  1.1542  0.7239
  154DOPC  C21418490   7.491   5.414   5.273 -0.3511 -0.4859 -0.1795
  154DOPC  H14R18491   7.381   5.425   5.261 -0.2415 -0.2166 -1.0547
  154DOPC  H14S18492   7.504   5.346   5.360  1.7567 -0.6923 -0.5951
  154DOPC  C21518493   7.560   5.352   5.154 -0.1641  0.6990  0.2269
  154DOPC  H15R18494   7.661   5.320   5.187 -0.1505 -1.7062 -1.8709
  154DOPC  H15S18495   7.573   5.434   5.080 -0.4872 -0.4678 -1.1594
  154DOPC  C21618496   7.483   5.232   5.088  0.2381  0.0985 -0.0757
  154DOPC  H16R18497   7.373   5.244   5.085  0.1556 -0.8010 -1.3378
  154DOPC  H16S18498   7.509   5.148   5.155 -0.9533 -0.1313  0.1011
  154DOPC  C21718499   7.525   5.206   4.943  0.1615  0.3001 -0.8984
  154DOPC  H17R18500   7.636   5.204   4.943  0.2553 -0.4767  2.6152
  154DOPC  H17S18501   7.486   5.284   4.874 -1.6323 -0.6536 -1.0232
  154DOPC  C21818502   7.489   5.067   4.894 -0.3665 -0.6819 -0.2095
  154DOPC  H18R18503   7.538   5.055   4.794 -1.6063 -0.2322 -0.8964
  154DOPC  H18S18504   7.380   5.046   4.882  0.1737 -3.8817 -0.4435
  154DOPC  H18T18505   7.530   5.002   4.974  1.9857  0.8568 -0.0737
  154DOPC   C3318506   6.206   5.041   6.179  0.6880  0.3348  0.6066
  154DOPC   H3X18507   6.148   5.097   6.254 -1.4409  0.4247 -1.0139
  154DOPC   H3Y18508   6.155   4.948   6.146  2.2264 -0.4065  0.1768
  154DOPC   C3418509   6.230   5.138   6.062  0.6289 -0.0963 -0.0582
  154DOPC   H4X18510   6.322   5.197   6.080 -1.4801  3.7300 -0.8735
  154DOPC   H4Y18511   6.137   5.198   6.058  2.0728  2.4791  2.1417
  154DOPC   C3518512   6.240   5.060   5.928 -1.1625 -0.4460 -0.0907
  154DOPC   H5X18513   6.172   4.973   5.940 -1.5271 -0.0936  0.4625
  154DOPC   H5Y18514   6.347   5.033   5.923 -0.7212  1.3722 -1.5400
  154DOPC   C3618515   6.211   5.130   5.791 -0.5071 -0.0525 -0.1891
  154DOPC   H6X18516   6.110   5.177   5.793 -1.8040 -2.6818 -0.2909
  154DOPC   H6Y18517   6.295   5.200   5.772 -0.0755 -0.1028  1.4657
  154DOPC   C3718518   6.215   5.031   5.673 -0.1917  0.1393  0.0034
  154DOPC   H7X18519   6.315   4.982   5.678 -0.7516 -1.0421 -0.1004
  154DOPC   H7Y18520   6.142   4.950   5.695 -0.5419  0.4148 -0.1266
  154DOPC   C3818521   6.185   5.087   5.531  0.2980  0.3988  0.4816
  154DOPC   H8X18522   6.251   5.176   5.522 -1.1482  1.4862  0.3193
  154DOPC   H8Y18523   6.079   5.117   5.514  1.0491  2.8934 -0.2591
  154DOPC   C3918524   6.203   4.984   5.419  0.5364 -0.3798 -0.0591
  154DOPC   H9X18525   6.141   4.893   5.429  2.1239 -1.4250  0.5819
  154DOPC  C31018526   6.287   5.002   5.315 -0.3588 -0.3241 -0.7568
  154DOPC  H10X18527   6.316   4.918   5.251 -1.5629 -1.0839 -0.3292
  154DOPC  C31118528   6.360   5.133   5.291  0.7667  0.5092 -0.2613
  154DOPC  H11X18529   6.324   5.218   5.353  0.5646  0.2321  0.0093
  154DOPC  H11Y18530   6.346   5.159   5.184 -2.5505 -0.1375 -0.1066
  154DOPC  C31218531   6.508   5.120   5.319  0.2864 -0.2052 -0.4227
  154DOPC  H12X18532   6.535   5.081   5.420  1.4198 -0.3688 -0.7733
  154DOPC  H12Y18533   6.545   5.225   5.320 -1.2008  0.3607 -1.5518
  154DOPC  C31318534   6.588   5.049   5.209  0.0500  0.2238  0.3804
  154DOPC  H13X18535   6.560   4.942   5.226  0.2403 -0.1623 -1.5664
  154DOPC  H13Y18536   6.540   5.060   5.110 -1.7000 -1.0639  1.0170
  154DOPC  C31418537   6.737   5.067   5.229  0.2068  0.6679  0.6659
  154DOPC  H14X18538   6.788   5.020   5.142 -1.6157 -0.7115  0.2733
  154DOPC  H14Y18539   6.758   5.176   5.228  0.0175  0.7762 -2.9694
  154DOPC  C31518540   6.801   5.010   5.350  0.4926  0.2283  0.2112
  154DOPC  H15X18541   6.796   4.899   5.353 -2.3143  0.2755  2.0957
  154DOPC  H15Y18542   6.758   5.049   5.445  1.1145  1.3678  0.0394
  154DOPC  C31618543   6.951   5.054   5.347  0.1493 -0.1060  1.0483
  154DOPC  H16X18544   6.995   5.026   5.249  1.7645  0.3161  1.6264
  154DOPC  H16Y18545   6.965   5.164   5.340  0.2071 -0.0427  1.9784
  154DOPC  C31718546   7.032   4.995   5.457 -0.4593 -0.3253 -0.2789
  154DOPC  H17X18547   7.010   5.048   5.552 -0.3578 -0.3855 -0.2211
  154DOPC  H17Y18548   7.030   4.884   5.467  0.7251 -0.1678  2.6136
  154DOPC  C31818549   7.178   5.037   5.430  0.1605 -0.0820 -0.1468
  154DOPC  H18X18550   7.241   4.999   5.513 -0.5435 -1.7444 -0.3285
  154DOPC  H18Y18551   7.213   4.982   5.340  0.7499 -1.7350  1.0426
  154DOPC  H18Z18552   7.180   5.147   5.412 -0.7837 -0.3155 -2.0080
  155DOPC     N18553   1.969   2.927   7.236  0.2557  0.1592 -0.5952
  155DOPC   C1218554   1.894   2.879   7.358  0.4049 -0.0768  0.3113
  155DOPC  H12A18555   1.794   2.867   7.319  0.8263 -0.5327 -0.6674
  155DOPC  H12B18556   1.896   2.967   7.422  2.6829  1.4027 -1.5938
  155DOPC   C1318557   2.115   2.930   7.247 -0.1644 -0.4357  0.1653
  155DOPC  H13A18558   2.163   2.959   7.155 -0.2127 -1.4553 -0.1922
  155DOPC  H13B18559   2.147   2.999   7.324 -2.5976  0.0237  0.8756
  155DOPC  H13C18560   2.166   2.840   7.277  3.8444  1.4583 -0.3415
  155DOPC   C1418561   1.929   3.063   7.190  0.0470 -0.3049  0.3033
  155DOPC  H14A18562   1.961   3.088   7.090 -1.8846  1.6400  0.0790
  155DOPC  H14B18563   1.822   3.073   7.173  0.1081 -1.6775 -1.1155
  155DOPC  H14C18564   1.957   3.140   7.260 -1.4916 -1.6159  2.4945
  155DOPC   C1518565   1.935   2.831   7.128 -0.1209  0.1630  0.0233
  155DOPC  H15A18566   1.955   2.729   7.157 -3.2726  0.0027  2.1391
  155DOPC  H15B18567   1.993   2.846   7.038 -0.1905 -4.0746 -0.9384
  155DOPC  H15C18568   1.829   2.832   7.110 -0.3225 -0.6749  1.0500
  155DOPC   C1118569   1.946   2.755   7.432  0.2488  0.5694  0.1498
  155DOPC  H11A18570   2.044   2.779   7.479  0.1399  0.3140  0.5115
  155DOPC  H11B18571   1.868   2.732   7.507 -0.0896 -2.0086 -0.8960
  155DOPC     P18572   2.055   2.524   7.353 -0.4605  0.1185  0.2216
  155DOPC   O1318573   1.986   2.410   7.419 -0.1560  0.1031  0.4874
  155DOPC   O1418574   2.184   2.575   7.412 -0.1250 -0.2493 -0.0610
  155DOPC   O1218575   1.954   2.642   7.345 -0.3571 -0.1401 -0.2710
  155DOPC   O1118576   2.073   2.492   7.205 -0.3887 -0.5348  0.1076
  155DOPC    C118577   2.190   2.419   7.167 -0.3374 -0.4144 -0.1761
  155DOPC    HA18578   2.184   2.314   7.203  0.0921 -0.4059 -0.0638
  155DOPC    HB18579   2.284   2.458   7.214 -1.0268 -0.4615  1.3146
  155DOPC    C218580   2.200   2.419   7.009 -0.0083 -0.4536 -0.6409
  155DOPC    HS18581   2.124   2.350   6.966  0.6440 -1.4953 -0.1644
  155DOPC   O2118582   2.342   2.391   6.973  0.2561  0.2127  0.4866
  155DOPC   C2118583   2.361   2.263   6.957 -0.3637 -0.4175 -0.6849
  155DOPC   O2218584   2.272   2.181   6.972 -0.6521  0.2134  0.1969
  155DOPC   C2218585   2.502   2.233   6.912  0.1654 -0.5008 -0.5012
  155DOPC   H2R18586   2.553   2.150   6.966 -0.2326  0.0532  0.7786
  155DOPC   H2S18587   2.569   2.322   6.917 -0.7988  0.3203 -1.6838
  155DOPC    C318588   2.164   2.564   6.959 -0.2816 -0.4597  0.8292
  155DOPC    HX18589   2.218   2.648   7.008  0.0208  0.2484 -0.6484
  155DOPC    HY18590   2.056   2.589   6.974 -0.8787 -2.2959 -0.0507
  155DOPC   O3118591   2.195   2.576   6.818 -0.6476 -0.4077 -0.2387
  155DOPC   C3118592   2.157   2.685   6.754 -0.5908  0.6520 -0.8549
  155DOPC   O3218593   2.083   2.770   6.797  0.2708 -0.2141 -0.5147
  155DOPC   C3218594   2.203   2.683   6.607 -0.2282 -0.5853 -0.3158
  155DOPC   H2X18595   2.296   2.745   6.610 -0.7618  0.2036  0.5626
  155DOPC   H2Y18596   2.242   2.584   6.578 -1.3147 -0.5654 -1.9332
  155DOPC   C2318597   2.489   2.211   6.762  0.2566 -0.0395  0.1401
  155DOPC   H3R18598   2.479   2.309   6.709 -0.8233  0.2914  0.9225
  155DOPC   H3S18599   2.402   2.148   6.736  0.7346 -0.5036 -0.3423
  155DOPC   C2418600   2.616   2.137   6.701 -0.1332  0.0232 -0.2091
  155DOPC   H4R18601   2.622   2.031   6.731  0.6344  0.1888  0.2499
  155DOPC   H4S18602   2.705   2.193   6.737 -0.0247  0.9536 -1.8400
  155DOPC   C2518603   2.622   2.157   6.552  0.2969  0.2988  0.0965
  155DOPC   H5R18604   2.728   2.160   6.517 -0.0682  3.4909 -1.0298
  155DOPC   H5S18605   2.573   2.253   6.530  1.2424  0.2318 -2.6380
  155DOPC   C2618606   2.552   2.041   6.485 -0.5292 -0.1498  0.4680
  155DOPC   H6R18607   2.449   2.038   6.526 -2.1137  0.7317 -3.0611
  155DOPC   H6S18608   2.601   1.946   6.515 -1.2588 -0.7740 -0.2628
  155DOPC   C2718609   2.538   2.054   6.332  0.8301 -0.5422  0.1876
  155DOPC   H7R18610   2.489   2.148   6.301  1.7796  0.1687  0.7802
  155DOPC   H7S18611   2.468   1.978   6.291 -0.1298  1.1950 -1.5294
  155DOPC   C2818612   2.672   2.048   6.259  0.1345 -0.2524  0.6711
  155DOPC   H8R18613   2.724   2.142   6.286  0.6709  0.0651 -1.3697
  155DOPC   H8S18614   2.648   2.049   6.151 -0.3660 -1.2672  0.7544
  155DOPC   C2918615   2.753   1.919   6.289 -0.1538  0.2377 -0.0097
  155DOPC   H9R18616   2.761   1.892   6.395 -0.9837  3.0932  0.8841
  155DOPC  C21018617   2.824   1.856   6.194  0.8477 -0.2861 -0.5833
  155DOPC  H10R18618   2.876   1.765   6.228 -2.0911 -0.7211  3.5128
  155DOPC  C21118619   2.819   1.864   6.047 -0.2578  0.4309 -0.0220
  155DOPC  H11R18620   2.918   1.854   5.998  0.9670  2.2742  1.9016
  155DOPC  H11S18621   2.782   1.962   6.008 -1.2517  0.0011 -0.1913
  155DOPC  C21218622   2.728   1.751   5.990 -0.1913  0.8364  0.0699
  155DOPC  H12R18623   2.626   1.748   6.035 -0.2385 -0.3147 -0.0762
  155DOPC  H12S18624   2.776   1.652   6.007 -0.6384  0.0774 -2.6085
  155DOPC  C21318625   2.702   1.765   5.842  0.1571 -0.0017 -0.5478
  155DOPC  H13R18626   2.798   1.777   5.787  0.2657  0.2167 -0.3101
  155DOPC  H13S18627   2.639   1.856   5.825 -2.1002 -1.1913  0.9246
  155DOPC  C21418628   2.607   1.651   5.789 -0.5657 -0.4412  0.4158
  155DOPC  H14R18629   2.523   1.648   5.861 -1.9604  1.8510 -0.9984
  155DOPC  H14S18630   2.662   1.556   5.809 -0.3118 -0.2820  0.4764
  155DOPC  C21518631   2.562   1.667   5.639 -0.0083  0.4605  0.1743
  155DOPC  H15R18632   2.654   1.657   5.577 -0.0911 -1.2045  0.2693
  155DOPC  H15S18633   2.500   1.757   5.618  1.3165  1.4214  0.2553
  155DOPC  C21618634   2.470   1.548   5.596 -0.5591  0.2744  0.2727
  155DOPC  H16R18635   2.385   1.558   5.667  0.0823  4.5614  0.7267
  155DOPC  H16S18636   2.521   1.452   5.617 -0.7802  0.1376  0.1837
  155DOPC  C21718637   2.419   1.568   5.454 -0.1800  0.1285 -0.0395
  155DOPC  H17R18638   2.507   1.567   5.386 -1.2127  2.8982 -1.6016
  155DOPC  H17S18639   2.377   1.671   5.446  2.7293  1.4205  0.2318
  155DOPC  C21818640   2.326   1.461   5.401  0.0562 -0.2313 -0.2069
  155DOPC  H18R18641   2.278   1.485   5.304 -1.9174 -1.2793  0.4626
  155DOPC  H18S18642   2.244   1.449   5.475  0.8962 -0.4675  0.7088
  155DOPC  H18T18643   2.388   1.369   5.389 -0.9903 -1.5449  3.2270
  155DOPC   C3318644   2.096   2.725   6.519  0.1331  0.3849  0.6796
  155DOPC   H3X18645   2.063   2.827   6.548  0.7651  0.0487  2.7694
  155DOPC   H3Y18646   2.017   2.647   6.527  1.5333 -1.2878 -1.0686
  155DOPC   C3418647   2.146   2.717   6.370  0.1505 -0.4186 -0.5027
  155DOPC   H4X18648   2.054   2.747   6.316  0.2533  2.1269  0.5579
  155DOPC   H4Y18649   2.181   2.615   6.344  0.5136 -1.1648  2.5398
  155DOPC   C3518650   2.260   2.822   6.339  0.3518  0.6523 -0.3469
  155DOPC   H5X18651   2.341   2.807   6.413  1.2033 -0.5178 -1.4485
  155DOPC   H5Y18652   2.207   2.919   6.352 -0.6671  0.1698 -0.7790
  155DOPC   C3618653   2.323   2.806   6.197  0.1698  0.0180 -0.0789
  155DOPC   H6X18654   2.321   2.699   6.169  2.0979  0.1275 -0.7677
  155DOPC   H6Y18655   2.264   2.858   6.119 -0.4992 -0.2892  0.2192
  155DOPC   C3718656   2.470   2.850   6.195 -0.0553  0.5005  0.1940
  155DOPC   H7X18657   2.482   2.949   6.243 -0.2337  1.0811 -0.9307
  155DOPC   H7Y18658   2.524   2.774   6.256  0.5121 -0.8177 -1.8269
  155DOPC   C3818659   2.535   2.856   6.049 -0.4752  0.5378 -0.2830
  155DOPC   H8X18660   2.551   2.753   6.010  0.8820  0.9923 -0.9960
  155DOPC   H8Y18661   2.634   2.901   6.071  0.5464 -2.6132  2.4975
  155DOPC   C3918662   2.464   2.942   5.949 -0.5052 -0.0990  0.2651
  155DOPC   H9X18663   2.491   3.048   5.950 -1.2342  0.0915  0.3575
  155DOPC  C31018664   2.388   2.902   5.844  0.1260 -0.1754 -0.1475
  155DOPC  H10X18665   2.358   2.982   5.775  1.1432  1.5246  1.2740
  155DOPC  C31118666   2.351   2.757   5.812  0.1263 -0.1219  0.0506
  155DOPC  H11X18667   2.353   2.687   5.899 -1.3024 -0.0324  0.1892
  155DOPC  H11Y18668   2.431   2.719   5.745  2.3840  1.6347  1.5848
  155DOPC  C31218669   2.214   2.742   5.746 -0.4866  0.0525  0.0308
  155DOPC  H12X18670   2.196   2.827   5.677  0.6903  1.0715  0.9419
  155DOPC  H12Y18671   2.132   2.760   5.818 -1.2034 -1.8739 -0.2262
  155DOPC  C31318672   2.178   2.611   5.673 -0.0196  0.2976 -0.0897
  155DOPC  H13X18673   2.227   2.549   5.752 -1.5943 -1.7779 -0.6390
  155DOPC  H13Y18674   2.070   2.588   5.661  0.2555 -0.8063 -0.6809
  155DOPC  C31418675   2.238   2.584   5.530  0.0474 -0.4353 -0.0925
  155DOPC  H14X18676   2.186   2.641   5.451 -1.0721 -2.1991 -0.6845
  155DOPC  H14Y18677   2.347   2.606   5.541  0.4277 -1.0584 -2.2043
  155DOPC  C31518678   2.224   2.442   5.493 -0.3796  0.5165 -0.1716
  155DOPC  H15X18679   2.235   2.378   5.583 -1.9458 -1.2194 -1.1476
  155DOPC  H15Y18680   2.291   2.414   5.409 -2.0871 -3.8049 -0.3772
  155DOPC  C31618681   2.092   2.398   5.441  0.5481  0.2042  0.9039
  155DOPC  H16X18682   2.074   2.289   5.440 -0.6609  0.3911  0.5873
  155DOPC  H16Y18683   2.010   2.430   5.509  0.6025  0.6699  0.7543
  155DOPC  C31718684   2.047   2.440   5.302  0.2679  0.2295  0.5909
  155DOPC  H17X18685   1.946   2.395   5.288  1.4199 -2.3792  0.2924
  155DOPC  H17Y18686   2.041   2.551   5.304  2.2406  0.4126 -0.8371
  155DOPC  C31818687   2.131   2.392   5.186  0.6313  0.6483  0.1726
  155DOPC  H18X18688   2.124   2.282   5.187  1.6142  0.5493 -0.6566
  155DOPC  H18Y18689   2.088   2.424   5.088  0.8124 -1.4827 -0.6631
  155DOPC  H18Z18690   2.239   2.412   5.203  0.7692  0.4678 -0.4506
  156DOPC     N18691   6.073   6.825   7.217 -0.1728  0.0456 -0.0559
  156DOPC   C1218692   5.995   6.832   7.089 -0.5901  0.2733  0.7462
  156DOPC  H12A18693   5.913   6.901   7.101 -1.0951 -0.2160  0.2468
  156DOPC  H12B18694   5.939   6.741   7.069 -0.9957  0.2447  1.9620
  156DOPC   C1318695   6.156   6.951   7.240 -0.5718  0.5596 -0.2205
  156DOPC  H13A18696   6.202   6.948   7.338 -1.5721  3.1620  0.4263
  156DOPC  H13B18697   6.234   6.950   7.166 -2.2390 -0.7188 -2.0680
  156DOPC  H13C18698   6.086   7.033   7.226 -2.3207 -1.0499 -1.3507
  156DOPC   C1418699   6.166   6.711   7.211 -0.1875  0.2296  0.0353
  156DOPC  H14A18700   6.115   6.618   7.190 -0.3298 -0.0652  1.5668
  156DOPC  H14B18701   6.242   6.722   7.135  0.4198  0.5985  0.6896
  156DOPC  H14C18702   6.210   6.702   7.310 -3.1744 -0.6854  1.3983
  156DOPC   C1518703   5.976   6.814   7.334 -0.0767  0.0695  0.2730
  156DOPC  H15A18704   5.905   6.733   7.326 -0.4919  0.5743 -1.4882
  156DOPC  H15B18705   5.928   6.910   7.332  2.7382  1.5969  0.7618
  156DOPC  H15C18706   6.010   6.803   7.436  0.6752  2.0815  0.2830
  156DOPC   C1118707   6.076   6.854   6.953 -0.2913 -0.9705 -0.2991
  156DOPC  H11A18708   6.006   6.883   6.873 -2.7784  2.2112  2.7124
  156DOPC  H11B18709   6.146   6.941   6.956 -1.4150 -0.0406 -0.3564
  156DOPC     P18710   6.105   6.618   6.846 -0.0076  0.4057  0.4423
  156DOPC   O1318711   5.963   6.629   6.814  0.0140 -0.4126  0.5370
  156DOPC   O1418712   6.141   6.501   6.931 -0.0093 -0.3769 -0.2951
  156DOPC   O1218713   6.155   6.742   6.921  0.5243  0.4108  0.1197
  156DOPC   O1118714   6.188   6.626   6.717  0.4523 -0.7994 -0.0389
  156DOPC    C118715   6.277   6.733   6.679  0.7025 -0.7862  0.0535
  156DOPC    HA18716   6.381   6.708   6.709  0.8262 -0.5881 -0.2061
  156DOPC    HB18717   6.256   6.830   6.728 -0.7862 -0.2938 -1.4767
  156DOPC    C218718   6.270   6.762   6.525 -0.5479 -0.0440  0.1685
  156DOPC    HS18719   6.304   6.864   6.497 -0.0200 -0.2438  0.0776
  156DOPC   O2118720   6.137   6.742   6.471 -0.4546 -0.1729  0.2268
  156DOPC   C2118721   6.048   6.825   6.524 -0.1499 -0.0790  0.3269
  156DOPC   O2218722   6.070   6.920   6.595  0.2347  0.0242 -0.3224
  156DOPC   C2218723   5.909   6.783   6.493  0.2546  0.5177  0.5315
  156DOPC   H2R18724   5.890   6.841   6.401  2.7828  0.5922 -0.0308
  156DOPC   H2S18725   5.844   6.825   6.572 -0.6595 -2.2841  1.3964
  156DOPC    C318726   6.372   6.669   6.451  0.0148 -0.5978  0.2875
  156DOPC    HX18727   6.338   6.565   6.467 -1.8037 -0.5841 -2.7626
  156DOPC    HY18728   6.471   6.684   6.499  0.4612  0.1637 -0.8343
  156DOPC   O3118729   6.385   6.699   6.304 -0.1590 -0.3439 -0.6618
  156DOPC   C3118730   6.307   6.631   6.222  0.7016 -0.8048  0.8998
  156DOPC   O3218731   6.237   6.536   6.247 -0.3802  0.2500  0.4085
  156DOPC   C3218732   6.319   6.687   6.078  0.4380  0.5372 -0.6519
  156DOPC   H2X18733   6.293   6.795   6.083 -2.5115 -0.1253  1.2552
  156DOPC   H2Y18734   6.426   6.673   6.054  0.5199 -0.5576  0.2327
  156DOPC   C2318735   5.883   6.632   6.469 -0.0935 -0.6419  0.7657
  156DOPC   H3R18736   5.892   6.574   6.563 -2.9627 -1.3808  0.6644
  156DOPC   H3S18737   5.957   6.592   6.397 -0.3429  0.6079 -0.2207
  156DOPC   C2418738   5.748   6.606   6.402  0.2165  0.5623 -0.2995
  156DOPC   H4R18739   5.742   6.668   6.310 -0.4272  2.9242  1.2480
  156DOPC   H4S18740   5.673   6.650   6.472  0.2496  0.5205 -0.2370
  156DOPC   C2518741   5.714   6.461   6.375  0.3052  0.4700 -0.8007
  156DOPC   H5R18742   5.610   6.459   6.338  0.1669 -3.2774 -0.5270
  156DOPC   H5S18743   5.720   6.397   6.466 -0.8574 -2.0340 -2.3959
  156DOPC   C2618744   5.809   6.394   6.274  0.6723  0.1003  0.1100
  156DOPC   H6R18745   5.775   6.288   6.269  1.2284 -0.1271  0.8913
  156DOPC   H6S18746   5.914   6.385   6.308  0.7088 -0.7881 -0.2260
  156DOPC   C2718747   5.839   6.466   6.144 -0.0145 -0.0881 -0.2206
  156DOPC   H7R18748   5.882   6.564   6.176 -1.1231 -0.0224  1.1584
  156DOPC   H7S18749   5.745   6.484   6.088 -0.1508 -2.8024 -0.9950
  156DOPC   C2818750   5.935   6.384   6.054 -0.7567 -0.2466 -0.3632
  156DOPC   H8R18751   6.032   6.352   6.099  0.6792  0.7577 -2.5255
  156DOPC   H8S18752   5.977   6.446   5.971 -3.2625 -1.7622 -2.9156
  156DOPC   C2918753   5.870   6.267   6.001  0.3701  0.8265 -0.2442
  156DOPC   H9R18754   5.888   6.168   6.045 -1.1057  1.2065  1.3283
  156DOPC  C21018755   5.790   6.272   5.892  0.2263  0.3222  0.4086
  156DOPC  H10R18756   5.757   6.174   5.855  3.0178 -0.9695  1.1160
  156DOPC  C21118757   5.751   6.390   5.801 -0.0594  0.0252 -0.1948
  156DOPC  H11R18758   5.792   6.488   5.835  0.4577  0.1379 -1.1308
  156DOPC  H11S18759   5.642   6.407   5.787 -0.3256 -0.7965  0.7562
  156DOPC  C21218760   5.819   6.365   5.669  0.3738 -0.4688 -0.2244
  156DOPC  H12R18761   5.930   6.361   5.682  0.3114  1.2239  1.3548
  156DOPC  H12S18762   5.815   6.458   5.609 -0.7449 -1.0166 -1.0224
  156DOPC  C21318763   5.748   6.256   5.592 -0.3938 -0.0961 -0.0188
  156DOPC  H13R18764   5.645   6.289   5.568  0.0785  0.5486 -1.2487
  156DOPC  H13S18765   5.735   6.162   5.651  1.0645 -0.5898 -0.4184
  156DOPC  C21418766   5.820   6.234   5.457 -0.5106 -0.3782  0.4163
  156DOPC  H14R18767   5.919   6.186   5.467 -0.9591 -1.4160  0.0191
  156DOPC  H14S18768   5.818   6.337   5.413  0.2164 -0.5136  0.0564
  156DOPC  C21518769   5.750   6.149   5.352 -0.2406  0.0353  0.6123
  156DOPC  H15R18770   5.644   6.180   5.341  0.4282  2.4033  0.2608
  156DOPC  H15S18771   5.743   6.049   5.400 -1.9861  0.5569  1.5001
  156DOPC  C21618772   5.826   6.133   5.219 -0.0943 -0.4678  0.1664
  156DOPC  H16R18773   5.780   6.061   5.149 -2.1982  2.4452 -1.6950
  156DOPC  H16S18774   5.927   6.091   5.238 -0.6439 -3.4693 -2.7600
  156DOPC  C21718775   5.810   6.277   5.148 -0.9195  0.0943 -0.3401
  156DOPC  H17R18776   5.865   6.337   5.224 -0.6352 -2.3702  1.5296
  156DOPC  H17S18777   5.704   6.311   5.139 -0.5135  0.9900 -2.0794
  156DOPC  C21818778   5.878   6.293   5.012 -0.5950  0.4453  0.7024
  156DOPC  H18R18779   5.987   6.278   5.028 -0.4857 -0.0666 -0.3973
  156DOPC  H18S18780   5.854   6.392   4.969 -2.7474  0.1345  1.0385
  156DOPC  H18T18781   5.840   6.215   4.942  0.3360  0.1433  0.5134
  156DOPC   C3318782   6.233   6.611   5.977  0.4374 -0.4328  0.8153
  156DOPC   H3X18783   6.128   6.616   6.010  0.2028  1.9949 -0.0444
  156DOPC   H3Y18784   6.273   6.510   5.953  1.5234  0.4521 -1.4169
  156DOPC   C3418785   6.250   6.684   5.840  0.4086  0.5854  0.6065
  156DOPC   H4X18786   6.358   6.680   5.814  0.7508 -1.3884  2.1094
  156DOPC   H4Y18787   6.212   6.787   5.857  0.4185  0.5194  1.0438
  156DOPC   C3518788   6.165   6.633   5.723 -0.4047 -0.8315 -0.2977
  156DOPC   H5X18789   6.148   6.721   5.657  1.0005 -1.2638 -1.2834
  156DOPC   H5Y18790   6.068   6.596   5.762 -0.0414 -0.0937  1.3770
  156DOPC   C3618791   6.225   6.524   5.645 -0.2116  0.0783  0.9357
  156DOPC   H6X18792   6.326   6.535   5.601 -0.9645 -2.3119 -1.7079
  156DOPC   H6Y18793   6.244   6.437   5.711 -0.5614 -1.4209 -0.8429
  156DOPC   C3718794   6.127   6.493   5.526  0.3135  0.3094  0.3519
  156DOPC   H7X18795   6.153   6.392   5.488 -0.1309  0.5099 -0.5149
  156DOPC   H7Y18796   6.024   6.499   5.569 -0.8987  1.1812 -2.4387
  156DOPC   C3818797   6.135   6.598   5.413  0.1305 -0.1656 -0.6170
  156DOPC   H8X18798   6.239   6.637   5.405  0.1222 -0.2965 -1.5078
  156DOPC   H8Y18799   6.078   6.688   5.443 -0.9874  0.0005 -3.0044
  156DOPC   C3918800   6.092   6.543   5.280  0.3817  0.6502  0.0192
  156DOPC   H9X18801   6.141   6.451   5.245  1.0166 -0.2769  3.0422
  156DOPC  C31018802   6.020   6.618   5.191  0.1509  0.2657  0.6038
  156DOPC  H10X18803   5.979   6.570   5.101 -1.7676 -0.7225  1.9582
  156DOPC  C31118804   5.964   6.756   5.218  0.1096  0.0258  0.0924
  156DOPC  H11X18805   5.941   6.811   5.124 -1.2657  1.3814  1.1848
  156DOPC  H11Y18806   6.036   6.820   5.274 -0.5218 -0.5843  1.6592
  156DOPC  C31218807   5.833   6.740   5.300 -0.1959  0.2408 -0.5426
  156DOPC  H12X18808   5.801   6.845   5.317 -1.8591 -0.5026  1.2396
  156DOPC  H12Y18809   5.850   6.692   5.399 -0.9090  0.5046 -0.2863
  156DOPC  C31318810   5.728   6.662   5.219 -0.0337 -0.3298 -0.4438
  156DOPC  H13X18811   5.767   6.559   5.206 -0.7922 -0.8127  0.9212
  156DOPC  H13Y18812   5.643   6.651   5.290 -0.0732 -2.7388 -0.7883
  156DOPC  C31418813   5.681   6.725   5.085 -0.4120 -0.0023 -0.3886
  156DOPC  H14X18814   5.630   6.822   5.102 -0.2769 -0.0085  0.0489
  156DOPC  H14Y18815   5.767   6.737   5.015 -0.8189 -1.1908 -1.1325
  156DOPC  C31518816   5.578   6.635   5.017 -0.1186  0.5619 -0.4822
  156DOPC  H15X18817   5.474   6.651   5.054 -0.0649 -2.3856  1.2336
  156DOPC  H15Y18818   5.600   6.529   5.043 -0.4571  0.7925  0.7952
  156DOPC  C31618819   5.580   6.650   4.863  0.3836 -0.2031 -0.2587
  156DOPC  H16X18820   5.605   6.755   4.838 -0.5678 -0.2505 -1.5010
  156DOPC  H16Y18821   5.660   6.584   4.823  0.3279 -0.0435 -0.6317
  156DOPC  C31718822   5.441   6.620   4.802  0.4783  0.1623 -0.4669
  156DOPC  H17X18823   5.401   6.521   4.831  2.1392  0.2208  2.3407
  156DOPC  H17Y18824   5.380   6.698   4.853  1.5561  0.5556  0.2410
  156DOPC  C31818825   5.446   6.641   4.654  0.0619 -0.7589  0.2867
  156DOPC  H18X18826   5.484   6.742   4.626 -1.1592  0.1173  1.6388
  156DOPC  H18Y18827   5.515   6.566   4.610 -0.1957 -0.6555 -0.3039
  156DOPC  H18Z18828   5.345   6.636   4.608  0.3754 -0.7604 -0.4028
  157DOPC     N18829   6.391   2.155   6.587 -0.3391  0.2740  0.0947
  157DOPC   C1218830   6.294   2.151   6.701 -0.0602 -0.1427 -0.2212
  157DOPC  H12A18831   6.255   2.252   6.703 -0.1855 -0.1398  2.7363
  157DOPC  H12B18832   6.345   2.142   6.796  1.7638  1.2505 -1.0103
  157DOPC   C1318833   6.317   2.186   6.461  0.3632 -0.2072  0.1177
  157DOPC  H13A18834   6.380   2.192   6.374  2.2794  0.0729  1.4794
  157DOPC  H13B18835   6.247   2.104   6.455 -0.8811  0.6533  1.9718
  157DOPC  H13C18836   6.255   2.274   6.467 -1.0425 -1.2125  1.3832
  157DOPC   C1418837   6.461   2.020   6.573  1.1595  0.3986 -0.7623
  157DOPC  H14A18838   6.545   2.026   6.504  0.2412  3.2572 -1.7484
  157DOPC  H14B18839   6.508   1.998   6.668  0.6260  1.3558 -0.2697
  157DOPC  H14C18840   6.390   1.941   6.554  2.5762 -1.3143  0.6965
  157DOPC   C1518841   6.492   2.264   6.619  0.6419 -0.3223  0.4029
  157DOPC  H15A18842   6.439   2.358   6.617  0.4300 -0.4500 -0.0490
  157DOPC  H15B18843   6.573   2.262   6.549  0.3589  0.1603  0.0579
  157DOPC  H15C18844   6.534   2.245   6.717  0.8475 -2.1838 -0.0151
  157DOPC   C1118845   6.178   2.047   6.688  0.5355 -0.5110 -0.4627
  157DOPC  H11A18846   6.230   1.952   6.666  0.5715 -0.8886  1.1011
  157DOPC  H11B18847   6.143   2.043   6.793  0.3192  1.6048 -0.3949
  157DOPC     P18848   5.957   2.165   6.639 -0.2253 -0.3676 -0.5066
  157DOPC   O1318849   5.989   2.306   6.615 -0.3550 -0.5789  0.0039
  157DOPC   O1418850   5.922   2.127   6.779 -1.2607  0.2979 -0.2805
  157DOPC   O1218851   6.077   2.083   6.584  0.0139  0.4073 -0.3088
  157DOPC   O1118852   5.840   2.120   6.545  0.0356  0.1535  0.1716
  157DOPC    C118853   5.854   2.017   6.450  0.0477  0.0795  1.1820
  157DOPC    HA18854   5.754   1.993   6.409  1.1785 -0.2845 -1.5591
  157DOPC    HB18855   5.900   1.923   6.488  0.2640 -0.2641  0.0930
  157DOPC    C218856   5.927   2.072   6.325  0.0726  0.0404  0.2952
  157DOPC    HS18857   6.019   2.125   6.358 -1.6648  2.9936  0.7613
  157DOPC   O2118858   5.829   2.139   6.243  0.3250 -0.4640 -0.9179
  157DOPC   C2118859   5.885   2.239   6.178 -0.4219  0.1902  0.5651
  157DOPC   O2218860   5.993   2.287   6.211 -0.7278  0.2839 -0.1329
  157DOPC   C2218861   5.807   2.284   6.055  0.5540 -0.0693  0.4015
  157DOPC   H2R18862   5.813   2.394   6.042  0.7068 -0.2393 -1.1075
  157DOPC   H2S18863   5.698   2.279   6.073 -0.3429  0.4769 -3.8796
  157DOPC    C318864   5.977   1.961   6.225 -0.2093  0.0603 -0.1625
  157DOPC    HX18865   5.892   1.900   6.187  0.8736 -1.3299 -0.4144
  157DOPC    HY18866   6.028   1.884   6.287  1.7469  0.9996 -0.5451
  157DOPC   O3118867   6.058   2.005   6.118  0.0759  0.5567  0.1134
  157DOPC   C3118868   6.187   2.010   6.140 -1.1131  0.1599 -0.1995
  157DOPC   O3218869   6.244   1.987   6.247  0.1196 -0.2421 -0.0474
  157DOPC   C3218870   6.264   2.044   6.008  0.0691 -0.3291 -0.2225
  157DOPC   H2X18871   6.258   1.951   5.948  1.2612 -0.4133 -0.2352
  157DOPC   H2Y18872   6.208   2.127   5.959  0.7527  0.2995  0.0278
  157DOPC   C2318873   5.840   2.202   5.928 -0.0267  0.1964 -0.5470
  157DOPC   H3R18874   5.949   2.180   5.929  0.1348  0.9637 -0.8186
  157DOPC   H3S18875   5.820   2.275   5.847 -0.5080 -0.1748 -0.7691
  157DOPC   C2418876   5.763   2.070   5.917 -0.1012  0.2351 -0.6275
  157DOPC   H4R18877   5.657   2.103   5.909 -0.3707 -0.3470  0.3135
  157DOPC   H4S18878   5.775   2.017   6.014  0.0274  1.3544 -0.0243
  157DOPC   C2518879   5.807   1.981   5.802  0.0529 -0.1743  0.0394
  157DOPC   H5R18880   5.740   1.893   5.790 -0.4116  0.4854 -3.1351
  157DOPC   H5S18881   5.912   1.958   5.831  0.9288  1.7759 -1.3355
  157DOPC   C2618882   5.808   2.058   5.671  0.3912  0.1946 -0.9247
  157DOPC   H6R18883   5.875   2.147   5.669  0.0116  0.4740 -1.2977
  157DOPC   H6S18884   5.703   2.094   5.665  0.1996 -0.3127 -0.6713
  157DOPC   C2718885   5.824   1.969   5.552 -0.0136  0.8561 -0.0984
  157DOPC   H7R18886   5.726   1.921   5.531 -0.4963  1.3073  1.0835
  157DOPC   H7S18887   5.884   1.881   5.583 -1.6880 -0.1799  0.3340
  157DOPC   C2818888   5.879   2.036   5.422  0.6304  0.0535  0.3560
  157DOPC   H8R18889   5.970   2.094   5.446  2.0375 -1.9705  0.1381
  157DOPC   H8S18890   5.802   2.108   5.387 -0.8627 -1.2335  0.8628
  157DOPC   C2918891   5.907   1.945   5.307  0.1605  0.7562  0.2301
  157DOPC   H9R18892   5.905   1.841   5.343 -0.6224  1.0433  1.0583
  157DOPC  C21018893   5.941   1.982   5.176 -0.3836 -0.3754 -0.3498
  157DOPC  H10R18894   5.946   1.904   5.098 -1.6807  1.2669 -2.1842
  157DOPC  C21118895   5.973   2.131   5.131 -0.8170  0.1217  0.3830
  157DOPC  H11R18896   6.080   2.133   5.102 -0.6666 -0.2934  0.8778
  157DOPC  H11S18897   5.961   2.206   5.212 -2.2769  1.2303 -0.8147
  157DOPC  C21218898   5.888   2.161   5.009  0.2200  0.1971  0.2317
  157DOPC  H12R18899   5.779   2.166   5.033  0.0962  0.5517 -0.3896
  157DOPC  H12S18900   5.891   2.072   4.943 -0.2622 -0.6623  1.3194
  157DOPC  C21318901   5.919   2.295   4.941  0.0049  0.0349  0.2527
  157DOPC  H13R18902   5.884   2.373   5.012  0.4185  0.5386 -0.0898
  157DOPC  H13S18903   5.844   2.306   4.860  0.1537  0.5486  0.1822
  157DOPC  C21418904   6.067   2.304   4.897  0.0155 -0.2629  0.2406
  157DOPC  H14R18905   6.102   2.228   4.823  1.0165  0.7337 -0.3387
  157DOPC  H14S18906   6.130   2.288   4.987 -0.0415  2.2180  0.7857
  157DOPC  C21518907   6.104   2.440   4.844 -0.2326  0.6018 -0.0876
  157DOPC  H15R18908   6.209   2.458   4.810 -0.4223  2.5330  0.2237
  157DOPC  H15S18909   6.069   2.509   4.924  0.2184 -1.1810  1.7473
  157DOPC  C21618910   6.038   2.487   4.711  0.1183  0.3329 -0.6436
  157DOPC  H16R18911   5.928   2.475   4.714  0.3446 -1.8973  0.8883
  157DOPC  H16S18912   6.066   2.410   4.635  1.0457  0.2402 -0.2249
  157DOPC  C21718913   6.076   2.625   4.663  0.7356  0.4914  0.6556
  157DOPC  H17R18914   6.184   2.642   4.684  0.7422  1.4661 -0.1187
  157DOPC  H17S18915   6.037   2.702   4.733  1.8636  2.1991 -0.5220
  157DOPC  C21818916   6.033   2.668   4.530  0.0511 -0.2311 -0.2575
  157DOPC  H18R18917   6.066   2.606   4.444 -0.0162 -2.2014  1.0774
  157DOPC  H18S18918   6.077   2.767   4.504 -0.9952  0.0816 -0.9350
  157DOPC  H18T18919   5.925   2.692   4.518 -0.1817 -1.6363 -1.3356
  157DOPC   C3318920   6.406   2.094   6.040  0.9893  0.2739 -0.2219
  157DOPC   H3X18921   6.452   2.112   5.941 -0.5583  1.9901 -0.6996
  157DOPC   H3Y18922   6.467   2.025   6.101  0.9994  0.3350 -0.1622
  157DOPC   C3418923   6.395   2.231   6.104 -0.1884  0.5398  0.1569
  157DOPC   H4X18924   6.327   2.241   6.192 -1.3725  0.0544 -0.6732
  157DOPC   H4Y18925   6.339   2.292   6.030 -0.1539 -0.4567 -0.7167
  157DOPC   C3518926   6.532   2.288   6.147  0.4824  0.1199  0.0404
  157DOPC   H5X18927   6.607   2.254   6.072  0.7579  1.1034 -0.1534
  157DOPC   H5Y18928   6.553   2.240   6.244 -2.8532  0.1829  0.9023
  157DOPC   C3618929   6.514   2.443   6.171 -0.4816 -0.5960  1.1498
  157DOPC   H6X18930   6.488   2.486   6.072  0.7554 -1.5643  0.3730
  157DOPC   H6Y18931   6.446   2.464   6.256  0.2862 -2.8503  2.3941
  157DOPC   C3718932   6.652   2.497   6.215 -0.0871  0.2176  0.2933
  157DOPC   H7X18933   6.684   2.450   6.311 -1.3825  0.0947  0.6897
  157DOPC   H7Y18934   6.724   2.463   6.137  0.2700 -0.4211  0.8897
  157DOPC   C3818935   6.670   2.648   6.236 -1.0209 -0.8565 -0.3762
  157DOPC   H8X18936   6.619   2.676   6.330  0.0796 -1.8077  0.5340
  157DOPC   H8Y18937   6.621   2.700   6.151 -0.4181  1.8302  0.8056
  157DOPC   C3918938   6.817   2.681   6.236  0.8003  0.0902  0.6663
  157DOPC   H9X18939   6.868   2.695   6.332 -0.8985 -0.0397  1.6173
  157DOPC  C31018940   6.890   2.695   6.129 -0.8228  0.8763  0.1945
  157DOPC  H10X18941   6.998   2.718   6.137  0.3028 -2.8290 -1.7433
  157DOPC  C31118942   6.841   2.677   5.986 -0.3006  0.6600  0.8894
  157DOPC  H11X18943   6.856   2.759   5.913  4.1768 -0.2748  0.4860
  157DOPC  H11Y18944   6.732   2.656   5.979  0.0176 -0.9719  0.3550
  157DOPC  C31218945   6.908   2.547   5.931 -0.1454 -0.7442 -0.2736
  157DOPC  H12X18946   6.916   2.466   6.006  0.2485 -0.8277 -0.4037
  157DOPC  H12Y18947   7.016   2.567   5.914  0.6181 -2.5987  1.9551
  157DOPC  C31318948   6.834   2.498   5.809 -0.1556  1.2317 -0.2377
  157DOPC  H13X18949   6.725   2.491   5.825 -0.4577 -2.2597 -2.6845
  157DOPC  H13Y18950   6.842   2.557   5.715 -0.7624  0.1858 -0.9653
  157DOPC  C31418951   6.883   2.355   5.776 -0.2589  0.4958  0.5575
  157DOPC  H14X18952   6.994   2.356   5.775 -0.1430  2.9157  3.0699
  157DOPC  H14Y18953   6.854   2.285   5.858 -0.8014  0.3537  0.2491
  157DOPC  C31518954   6.816   2.288   5.655 -0.2178 -0.2261  0.0715
  157DOPC  H15X18955   6.805   2.355   5.567 -3.3355 -0.5162  0.1284
  157DOPC  H15Y18956   6.717   2.247   5.685  1.3726 -3.0333  1.9086
  157DOPC  C31618957   6.906   2.177   5.600  0.1244  0.4675  0.4302
  157DOPC  H16X18958   6.868   2.147   5.500 -0.5758  0.4442  0.6979
  157DOPC  H16Y18959   7.005   2.226   5.587 -0.0923  1.5317  2.3969
  157DOPC  C31718960   6.919   2.050   5.683  0.3262 -0.6815 -0.3902
  157DOPC  H17X18961   6.960   2.075   5.783 -0.5129  0.8727 -0.4164
  157DOPC  H17Y18962   6.814   2.020   5.700 -0.7156  1.1837 -2.9696
  157DOPC  C31818963   7.018   1.937   5.640  0.5875 -0.1269 -0.2169
  157DOPC  H18X18964   7.028   1.851   5.710  0.9284  0.5155  0.5296
  157DOPC  H18Y18965   7.005   1.889   5.540  1.7980 -0.3301 -0.2884
  157DOPC  H18Z18966   7.119   1.981   5.635  1.6037 -1.7034  3.3604
  158DOPC     N18967   4.162   0.117   7.084 -0.4012  0.4728 -0.5450
  158DOPC   C1218968   4.154  -0.004   6.992 -0.1225 -0.5187 -0.1153
  158DOPC  H12A18969   4.053  -0.035   6.969 -0.2254 -1.6972  1.7532
  158DOPC  H12B18970   4.217  -0.080   7.036  0.1803  0.7250  1.7064
  158DOPC   C1318971   4.105   0.084   7.217 -0.3926  0.0333 -0.2962
  158DOPC  H13A18972   4.147  -0.011   7.244  3.0623  1.8558  1.5080
  158DOPC  H13B18973   4.126   0.156   7.295 -2.3304  1.4941 -1.0517
  158DOPC  H13C18974   3.998   0.079   7.207 -0.2817 -1.6313 -0.9821
  158DOPC   C1418975   4.076   0.228   7.043  0.0792 -0.4251 -0.3656
  158DOPC  H14A18976   4.087   0.313   7.109  2.2227 -2.3233  1.9263
  158DOPC  H14B18977   4.091   0.255   6.940  0.4551  0.8434 -0.0007
  158DOPC  H14C18978   3.971   0.202   7.041 -0.1226  0.3488 -0.2113
  158DOPC   C1518979   4.298   0.164   7.104 -0.1836  0.2320 -0.4205
  158DOPC  H15A18980   4.359   0.091   7.156  0.7897  0.4527 -1.2148
  158DOPC  H15B18981   4.300   0.250   7.169 -0.1423 -0.6401  0.7766
  158DOPC  H15C18982   4.350   0.183   7.011 -3.0366  0.7869 -1.9993
  158DOPC   C1118983   4.220   0.004   6.849  0.1896  0.4369 -0.7395
  158DOPC  H11A18984   4.195  -0.083   6.784 -0.8787 -0.0814  0.3238
  158DOPC  H11B18985   4.170   0.090   6.800 -0.6488  0.6466  0.4370
  158DOPC     P18986   4.460  -0.091   6.883 -0.1240 -0.0335  0.3367
  158DOPC   O1318987   4.397  -0.174   6.989  0.2780 -0.0169  0.1988
  158DOPC   O1418988   4.595  -0.034   6.919 -0.1024 -0.4591 -0.2759
  158DOPC   O1218989   4.359   0.029   6.849 -0.0668 -0.5424 -0.4650
  158DOPC   O1118990   4.474  -0.177   6.749  0.2537 -0.0976  0.8874
  158DOPC    C118991   4.503  -0.114   6.626 -0.0461  0.5011 -0.5433
  158DOPC    HA18992   4.469  -0.009   6.614  0.8914  0.9544  0.6278
  158DOPC    HB18993   4.455  -0.162   6.538 -1.4737 -0.3446  0.6682
  158DOPC    C218994   4.651  -0.116   6.602 -0.0162 -0.0777 -0.1203
  158DOPC    HS18995   4.692  -0.048   6.680  0.8235 -0.6961 -0.0087
  158DOPC   O2118996   4.680  -0.061   6.471 -0.2229 -0.2169 -0.0166
  158DOPC   C2118997   4.794   0.003   6.454 -0.4299  0.2059 -0.0313
  158DOPC   O2218998   4.871   0.039   6.542 -0.3652 -0.5510  0.1482
  158DOPC   C2218999   4.825   0.018   6.302  0.2071 -0.7170  0.2316
  158DOPC   H2R19000   4.752   0.065   6.232  0.2561 -2.6079 -1.1540
  158DOPC   H2S19001   4.840  -0.086   6.265  0.4080 -0.1476 -1.3312
  158DOPC    C319002   4.713  -0.257   6.610 -0.0873  0.6757 -0.0948
  158DOPC    HX19003   4.685  -0.295   6.711  1.9839 -0.0410  0.2621
  158DOPC    HY19004   4.823  -0.266   6.598 -0.4548 -4.5539 -2.4041
  158DOPC   O3119005   4.645  -0.342   6.508 -0.0682 -0.2846  0.1198
  158DOPC   C3119006   4.667  -0.470   6.520  0.0579 -0.1615  0.7608
  158DOPC   O3219007   4.748  -0.522   6.596 -0.5387 -0.2063  0.6231
  158DOPC   C3219008   4.584  -0.543   6.415 -0.0955 -0.2043  0.2896
  158DOPC   H2X19009   4.594  -0.654   6.425 -0.2446 -0.3302 -0.8521
  158DOPC   H2Y19010   4.481  -0.510   6.441  0.5225  1.3372  0.9094
  158DOPC   C2319011   4.961   0.083   6.278 -0.1157 -0.0526 -0.5066
  158DOPC   H3R19012   5.037   0.021   6.329 -0.8396  0.7898  1.7041
  158DOPC   H3S19013   4.955   0.187   6.317 -2.1113 -0.1606 -0.4095
  158DOPC   C2419014   4.998   0.090   6.129 -0.4699 -0.2464  0.3726
  158DOPC   H4R19015   5.101   0.128   6.110 -0.7177  1.4084  2.0836
  158DOPC   H4S19016   4.932   0.166   6.083  0.6222  0.0525 -0.7647
  158DOPC   C2519017   4.981  -0.042   6.050 -0.2296  0.2414 -0.2705
  158DOPC   H5R19018   4.872  -0.062   6.060  0.0299 -0.6517  1.0198
  158DOPC   H5S19019   5.043  -0.124   6.092  1.1317  1.4589  0.1811
  158DOPC   C2619020   5.028  -0.034   5.899 -0.3125 -1.0956 -0.3452
  158DOPC   H6R19021   5.019  -0.136   5.855  0.0801 -1.1170 -0.3812
  158DOPC   H6S19022   5.136  -0.009   5.895 -0.1652 -1.1680  1.9347
  158DOPC   C2719023   4.941   0.064   5.814 -0.6221  0.1234  0.2686
  158DOPC   H7R19024   4.950   0.168   5.853  0.5980  0.5563 -1.0795
  158DOPC   H7S19025   4.834   0.035   5.810 -0.3073 -1.3445  1.5007
  158DOPC   C2819026   4.995   0.064   5.673 -0.0880 -0.1013 -0.1766
  158DOPC   H8R19027   4.976  -0.036   5.629  0.9812 -0.5914  0.4108
  158DOPC   H8S19028   5.106   0.070   5.663  0.0094 -0.9112  0.3131
  158DOPC   C2919029   4.930   0.173   5.596  1.3914 -0.4796 -0.2429
  158DOPC   H9R19030   4.912   0.266   5.653  1.9909  0.5585 -1.6671
  158DOPC  C21019031   4.907   0.178   5.463 -0.3306 -0.2895  0.7349
  158DOPC  H10R19032   4.882   0.270   5.410 -0.9591  0.1319  1.7333
  158DOPC  C21119033   4.943   0.068   5.362 -0.1679  0.5267  0.4140
  158DOPC  H11R19034   4.927  -0.035   5.398 -1.2756  0.8157  0.7863
  158DOPC  H11S19035   5.052   0.073   5.341  0.2666 -2.4203  1.5482
  158DOPC  C21219036   4.877   0.089   5.223 -0.6125  0.0188  0.3371
  158DOPC  H12R19037   4.902   0.188   5.179  0.1778 -0.9604 -1.5672
  158DOPC  H12S19038   4.768   0.073   5.238 -0.7535  0.2600 -0.3875
  158DOPC  C21319039   4.931  -0.015   5.124 -0.5332  0.4576 -0.4141
  158DOPC  H13R19040   4.924  -0.121   5.158 -0.6881  0.5367 -0.1972
  158DOPC  H13S19041   5.041  -0.003   5.115 -0.3443 -0.1534  0.8326
  158DOPC  C21419042   4.875  -0.008   4.986  0.2956 -0.3104 -0.3978
  158DOPC  H14R19043   4.902   0.095   4.956  0.0627 -0.1583 -0.0839
  158DOPC  H14S19044   4.765  -0.008   4.972  0.0704  0.1600  1.1941
  158DOPC  C21519045   4.934  -0.101   4.882  0.8304  0.7905  0.4329
  158DOPC  H15R19046   5.039  -0.130   4.900  0.3116 -2.2686 -0.8391
  158DOPC  H15S19047   4.934  -0.043   4.787 -0.5186  1.1300  0.6094
  158DOPC  C21619048   4.859  -0.235   4.841  0.2205  0.4601  0.1982
  158DOPC  H16R19049   4.887  -0.278   4.743  0.3669 -2.8526  1.5666
  158DOPC  H16S19050   4.753  -0.204   4.830  0.1557  0.2284  0.1701
  158DOPC  C21719051   4.882  -0.352   4.933 -0.0815  0.2666 -0.3658
  158DOPC  H17R19052   4.799  -0.426   4.936 -1.3478  1.4987 -2.3190
  158DOPC  H17S19053   4.910  -0.321   5.036  0.9895 -4.3791  0.9360
  158DOPC  C21819054   5.005  -0.437   4.891  0.4129  0.2698 -0.2365
  158DOPC  H18R19055   5.008  -0.531   4.950  0.6624  0.2824 -0.2297
  158DOPC  H18S19056   5.105  -0.390   4.894  0.1882  0.7809  2.8046
  158DOPC  H18T19057   4.983  -0.470   4.788 -1.2961  1.4694 -0.2966
  158DOPC   C3319058   4.614  -0.508   6.267 -0.0959  0.1891  0.4251
  158DOPC   H3X19059   4.595  -0.401   6.243 -2.0309 -0.7474 -2.8151
  158DOPC   H3Y19060   4.530  -0.553   6.210  0.8114 -2.0917  0.7931
  158DOPC   C3419061   4.747  -0.556   6.213  0.2109  0.2696  0.4631
  158DOPC   H4X19062   4.756  -0.667   6.216 -2.1771 -0.1063 -1.6953
  158DOPC   H4Y19063   4.828  -0.500   6.264  2.1377 -0.5520 -1.5684
  158DOPC   C3519064   4.772  -0.522   6.061  0.5990  0.0182  0.9147
  158DOPC   H5X19065   4.750  -0.414   6.042  0.6173  0.1189  1.4552
  158DOPC   H5Y19066   4.696  -0.575   6.000  0.9787 -0.6936  1.0552
  158DOPC   C3619067   4.914  -0.557   6.012 -0.0734 -0.1659 -0.0771
  158DOPC   H6X19068   4.994  -0.482   6.030  0.5804 -1.0194  0.6432
  158DOPC   H6Y19069   4.944  -0.651   6.064 -0.1317  0.8016  1.7833
  158DOPC   C3719070   4.922  -0.599   5.864  0.0190 -0.0448  0.2092
  158DOPC   H7X19071   5.028  -0.621   5.839  0.4751 -0.0414  2.0374
  158DOPC   H7Y19072   4.874  -0.699   5.862  3.3433 -1.7778 -1.2115
  158DOPC   C3819073   4.838  -0.511   5.764  0.2562 -0.3216 -0.1421
  158DOPC   H8X19074   4.887  -0.413   5.779 -0.1416  0.4690 -3.2975
  158DOPC   H8Y19075   4.732  -0.506   5.797  0.9108 -1.9101  2.5278
  158DOPC   C3919076   4.845  -0.533   5.611 -0.3420 -0.3778 -0.3991
  158DOPC   H9X19077   4.765  -0.594   5.569  1.0611 -2.0433 -0.7641
  158DOPC  C31019078   4.941  -0.474   5.534  0.4730  0.4396  0.1322
  158DOPC  H10X19079   4.935  -0.486   5.425 -1.2243  1.6042  0.0505
  158DOPC  C31119080   5.046  -0.370   5.575 -0.7388 -0.4891  0.2636
  158DOPC  H11X19081   5.091  -0.407   5.669 -1.6937  0.4814  1.1343
  158DOPC  H11Y19082   5.004  -0.269   5.596 -0.6398 -0.7469  1.8676
  158DOPC  C31219083   5.171  -0.360   5.481 -0.2120  0.0658  0.3089
  158DOPC  H12X19084   5.225  -0.457   5.472  2.6947  1.5934  0.2199
  158DOPC  H12Y19085   5.240  -0.291   5.533 -1.8314  1.4709  0.6909
  158DOPC  C31319086   5.139  -0.295   5.342  0.5071 -0.0869 -0.4471
  158DOPC  H13X19087   5.101  -0.375   5.275 -0.0024 -1.2151  1.1345
  158DOPC  H13Y19088   5.073  -0.206   5.347  0.5238  0.0374 -1.9817
  158DOPC  C31419089   5.263  -0.238   5.276 -0.3423  0.3343  0.2113
  158DOPC  H14X19090   5.228  -0.197   5.179 -3.3782  1.9189  1.8069
  158DOPC  H14Y19091   5.305  -0.150   5.330 -1.5968  1.2234 -0.2253
  158DOPC  C31519092   5.369  -0.347   5.245  0.5587 -0.2835  0.6943
  158DOPC  H15X19093   5.333  -0.448   5.217  1.0517 -1.1992  3.1154
  158DOPC  H15Y19094   5.424  -0.365   5.339  1.1460  1.6404  0.7563
  158DOPC  C31619095   5.476  -0.305   5.139 -0.6399 -0.1785  0.5285
  158DOPC  H16X19096   5.422  -0.245   5.062  1.0244 -0.2075 -0.7031
  158DOPC  H16Y19097   5.556  -0.233   5.167 -1.4355  1.1355 -0.4193
  158DOPC  C31719098   5.543  -0.426   5.063  0.5206 -0.5407  0.1516
  158DOPC  H17X19099   5.631  -0.389   5.006 -0.3683  2.8458  0.7535
  158DOPC  H17Y19100   5.580  -0.489   5.146  0.2858 -0.6208  0.1972
  158DOPC  C31819101   5.441  -0.496   4.967  0.0814  0.1352 -0.4484
  158DOPC  H18X19102   5.440  -0.455   4.864  0.5047 -0.9372 -0.8859
  158DOPC  H18Y19103   5.469  -0.603   4.964  0.2877  0.0879  1.7235
  158DOPC  H18Z19104   5.335  -0.483   4.996  0.2679  0.4815  0.0946
  159DOPC     N19105   6.597   2.596   6.982  0.6632  0.4355 -0.5342
  159DOPC   C1219106   6.705   2.616   6.876  0.4463  0.1545 -0.4271
  159DOPC  H12A19107   6.798   2.616   6.931 -0.7030 -3.7536  1.8502
  159DOPC  H12B19108   6.688   2.716   6.838 -0.9648  0.6227  1.2779
  159DOPC   C1319109   6.620   2.700   7.090 -0.3107 -0.3726  0.2517
  159DOPC  H13A19110   6.613   2.799   7.047  0.9031 -1.3097 -2.2923
  159DOPC  H13B19111   6.545   2.699   7.168  0.9377  1.1540  1.5525
  159DOPC  H13C19112   6.723   2.701   7.123 -0.0059  2.2465 -0.5513
  159DOPC   C1419113   6.596   2.460   7.033 -0.4103  0.4276 -0.2318
  159DOPC  H14A19114   6.682   2.431   7.093  1.5786  1.4577 -2.4278
  159DOPC  H14B19115   6.501   2.447   7.082 -0.3965  2.2362  0.3202
  159DOPC  H14C19116   6.599   2.391   6.949 -2.3275 -0.3487  0.2904
  159DOPC   C1519117   6.463   2.614   6.922  0.5406 -0.8217  0.9836
  159DOPC  H15A19118   6.449   2.553   6.833  0.3273  0.8239 -0.1459
  159DOPC  H15B19119   6.438   2.715   6.894 -0.4848 -0.5495  2.7302
  159DOPC  H15C19120   6.390   2.578   6.993 -1.1944 -0.7385 -0.6669
  159DOPC   C1119121   6.714   2.512   6.764  0.4984  0.6534  0.1173
  159DOPC  H11A19122   6.611   2.488   6.731 -0.0654  4.5110 -1.4491
  159DOPC  H11B19123   6.773   2.568   6.688  0.8645 -2.0599 -1.7364
  159DOPC     P19124   6.922   2.355   6.793 -0.1485  0.0303 -0.4303
  159DOPC   O1319125   6.943   2.213   6.829  0.1747  0.2970 -0.1899
  159DOPC   O1419126   6.999   2.453   6.878  0.4381  0.6681 -0.6453
  159DOPC   O1219127   6.771   2.390   6.806  0.0516 -0.4524  0.5413
  159DOPC   O1119128   6.960   2.376   6.639  0.7692 -0.7870  0.4348
  159DOPC    C119129   6.904   2.295   6.533 -0.1886  0.3895 -0.1614
  159DOPC    HA19130   6.821   2.356   6.491  0.8368  0.7977 -1.6647
  159DOPC    HB19131   6.872   2.201   6.582  1.5392  0.9981  2.3583
  159DOPC    C219132   7.009   2.255   6.422 -0.5688 -0.2158 -0.1032
  159DOPC    HS19133   7.087   2.186   6.462  0.7222  1.5663  0.5441
  159DOPC   O2119134   7.062   2.380   6.365 -0.2211 -0.5603  0.5865
  159DOPC   C2119135   7.188   2.400   6.381 -0.4408  1.0710 -0.8315
  159DOPC   O2219136   7.270   2.335   6.456  0.3980 -0.5465 -0.1397
  159DOPC   C2219137   7.225   2.525   6.297 -0.2746  0.1681  0.7496
  159DOPC   H2R19138   7.285   2.595   6.358  0.8189  0.1209 -0.2139
  159DOPC   H2S19139   7.136   2.581   6.261  1.4013  1.8923 -1.0133
  159DOPC    C319140   6.940   2.184   6.298  0.0334 -1.0562 -0.7613
  159DOPC    HX19141   7.013   2.194   6.214 -1.0098  0.2607 -1.5528
  159DOPC    HY19142   6.850   2.247   6.286  0.5944  0.3526  1.7910
  159DOPC   O3119143   6.911   2.047   6.316 -0.4376  0.4773  0.4055
  159DOPC   C3119144   6.790   2.016   6.355  1.0525 -0.4856  0.0128
  159DOPC   O3219145   6.702   2.093   6.394 -0.7069 -0.5093 -0.3408
  159DOPC   C3219146   6.770   1.866   6.343  0.2148  0.2123 -0.1642
  159DOPC   H2X19147   6.833   1.822   6.424 -0.3173 -2.9248 -1.3259
  159DOPC   H2Y19148   6.669   1.832   6.373  0.4606 -0.5267 -0.1542
  159DOPC   C2319149   7.295   2.481   6.167 -0.1273 -0.0126 -0.1959
  159DOPC   H3R19150   7.305   2.565   6.095  0.5085  0.8563  0.8849
  159DOPC   H3S19151   7.232   2.408   6.111 -0.4254  1.0390 -1.2802
  159DOPC   C2419152   7.436   2.455   6.196 -0.3974 -0.0053  0.2617
  159DOPC   H4R19153   7.455   2.354   6.238  0.9157  0.5733  1.1220
  159DOPC   H4S19154   7.475   2.524   6.274  0.3882  2.1213 -1.9008
  159DOPC   C2519155   7.533   2.467   6.080  0.1066  0.0442 -0.7082
  159DOPC   H5R19156   7.495   2.421   5.986  1.2927 -0.0629 -1.1634
  159DOPC   H5S19157   7.626   2.409   6.098 -1.1952 -2.2894 -1.0761
  159DOPC   C2619158   7.582   2.606   6.049  0.2205 -0.0359 -0.1568
  159DOPC   H6R19159   7.614   2.655   6.143 -2.3795  1.4876  0.0486
  159DOPC   H6S19160   7.499   2.670   6.012 -0.5969 -0.9233  0.1043
  159DOPC   C2719161   7.693   2.624   5.949 -0.2954 -1.0224 -0.4996
  159DOPC   H7R19162   7.678   2.571   5.852  1.6923  0.7151 -1.8660
  159DOPC   H7S19163   7.787   2.586   5.995  0.7837  3.6846  1.7852
  159DOPC   C2819164   7.716   2.778   5.925 -1.2700 -0.1663 -0.3923
  159DOPC   H8R19165   7.677   2.830   6.016 -1.7062 -0.8252 -0.1993
  159DOPC   H8S19166   7.635   2.801   5.852 -1.4862  2.5185  0.5576
  159DOPC   C2919167   7.855   2.831   5.886  0.9326  0.2137 -0.1781
  159DOPC   H9R19168   7.882   2.930   5.923  1.6155  0.6203 -1.7071
  159DOPC  C21019169   7.951   2.757   5.833  0.1204  0.0037  0.3968
  159DOPC  H10R19170   8.046   2.811   5.817 -0.3541  0.6926 -0.1313
  159DOPC  C21119171   7.948   2.618   5.767  0.0445  0.1128 -0.0701
  159DOPC  H11R19172   7.862   2.608   5.698  0.4664 -0.0027 -0.5860
  159DOPC  H11S19173   7.947   2.533   5.839  1.6796  0.0951 -0.0430
  159DOPC  C21219174   8.072   2.580   5.675  0.2827 -0.0060  0.3446
  159DOPC  H12R19175   8.168   2.595   5.729 -0.7116  0.1444  2.1550
  159DOPC  H12S19176   8.085   2.647   5.587 -2.0400 -0.3794 -0.3579
  159DOPC  C21319177   8.079   2.440   5.617 -0.0197  0.1580 -0.1009
  159DOPC  H13R19178   7.987   2.429   5.555  0.8308 -0.1016 -1.3527
  159DOPC  H13S19179   8.073   2.382   5.712 -0.8027 -3.3987 -2.1401
  159DOPC  C21419180   8.196   2.392   5.528  0.0468 -0.6786  0.2616
  159DOPC  H14R19181   8.298   2.414   5.565  0.0314  0.3931 -0.2984
  159DOPC  H14S19182   8.192   2.447   5.432 -3.2173 -1.8601 -0.4116
  159DOPC  C21519183   8.185   2.240   5.494 -0.8826 -0.2984 -0.3305
  159DOPC  H15R19184   8.091   2.216   5.439 -1.9652  1.8339  0.4700
  159DOPC  H15S19185   8.196   2.179   5.586  2.0889 -1.0383 -1.0778
  159DOPC  C21619186   8.304   2.206   5.407 -0.7961  0.3478  0.2598
  159DOPC  H16R19187   8.321   2.097   5.408  0.1149  0.4443 -1.4355
  159DOPC  H16S19188   8.395   2.256   5.448  0.9642 -1.6757 -1.0160
  159DOPC  C21719189   8.282   2.237   5.265  0.7608 -0.5380  0.1031
  159DOPC  H17R19190   8.270   2.347   5.256  0.2688 -0.4714  1.4111
  159DOPC  H17S19191   8.184   2.197   5.231  0.0920  1.3021 -0.2236
  159DOPC  C21819192   8.387   2.182   5.161  0.6999  0.7481 -0.5092
  159DOPC  H18R19193   8.375   2.218   5.057  1.9796 -1.3124 -1.4379
  159DOPC  H18S19194   8.379   2.072   5.170  0.4724  0.7233 -1.0280
  159DOPC  H18T19195   8.486   2.218   5.198  1.3415 -0.0655 -1.4082
  159DOPC   C3319196   6.812   1.808   6.207 -0.3374  0.2292  0.0702
  159DOPC   H3X19197   6.834   1.701   6.224 -0.0556  0.3673  0.6073
  159DOPC   H3Y19198   6.911   1.852   6.180 -0.4324 -0.8918 -2.3670
  159DOPC   C3419199   6.705   1.839   6.096 -0.3175 -0.4266 -0.2516
  159DOPC   H4X19200   6.697   1.949   6.082 -0.3215 -0.3261  0.5069
  159DOPC   H4Y19201   6.605   1.797   6.121 -0.8715 -0.3470 -2.1496
  159DOPC   C3519202   6.745   1.780   5.957 -0.3374 -0.1498 -0.5376
  159DOPC   H5X19203   6.735   1.670   5.973  2.4313 -0.5043 -0.6505
  159DOPC   H5Y19204   6.852   1.802   5.936 -0.1966  1.7257  1.6983
  159DOPC   C3619205   6.650   1.824   5.846 -0.0653 -0.6563  0.1428
  159DOPC   H6X19206   6.550   1.828   5.896  0.0819 -1.0317  0.4730
  159DOPC   H6Y19207   6.674   1.930   5.822 -1.8621 -0.0451  0.8330
  159DOPC   C3719208   6.649   1.732   5.728  0.4308  0.2140 -0.0528
  159DOPC   H7X19209   6.750   1.748   5.685  0.5087  2.1561  0.7476
  159DOPC   H7Y19210   6.651   1.627   5.765  0.2587  0.7672  1.6205
  159DOPC   C3819211   6.543   1.754   5.619 -0.2815 -0.5482 -0.4730
  159DOPC   H8X19212   6.552   1.861   5.593  3.6653 -1.2105 -2.5929
  159DOPC   H8Y19213   6.444   1.738   5.667  0.4562  0.2205  1.4060
  159DOPC   C3919214   6.584   1.678   5.492 -0.1336  0.0310  0.4039
  159DOPC   H9X19215   6.665   1.721   5.431  0.2399 -1.1080  0.0872
  159DOPC  C31019216   6.520   1.571   5.440 -0.1020 -0.2191 -0.2670
  159DOPC  H10X19217   6.563   1.523   5.351 -2.0678  0.5913 -1.7587
  159DOPC  C31119218   6.398   1.500   5.498  0.5122 -0.3495 -0.6217
  159DOPC  H11X19219   6.329   1.474   5.415 -0.1855 -1.8813  0.4063
  159DOPC  H11Y19220   6.333   1.562   5.563 -2.2043 -1.0722 -2.4845
  159DOPC  C31219221   6.431   1.364   5.569 -0.9078 -0.4262 -0.0805
  159DOPC  H12X19222   6.332   1.313   5.576 -0.5170 -1.0090  1.8554
  159DOPC  H12Y19223   6.459   1.395   5.672  1.0084 -0.2983 -0.6073
  159DOPC  C31319224   6.544   1.283   5.515  0.7259 -0.6623  0.4168
  159DOPC  H13X19225   6.637   1.344   5.514 -1.2298  2.5666 -1.2582
  159DOPC  H13Y19226   6.555   1.192   5.578  1.5681 -0.5111  0.5093
  159DOPC  C31419227   6.516   1.231   5.369 -0.1390  0.4493  0.8658
  159DOPC  H14X19228   6.435   1.154   5.370 -1.4743  1.7647 -0.4970
  159DOPC  H14Y19229   6.479   1.310   5.300 -0.8869  0.3872  1.1802
  159DOPC  C31519230   6.641   1.176   5.309 -0.4930  1.0707  0.1923
  159DOPC  H15X19231   6.686   1.101   5.378 -1.5884  1.6437  1.5798
  159DOPC  H15Y19232   6.705   1.267   5.316  1.0144 -0.0547  1.8569
  159DOPC  C31619233   6.627   1.131   5.164 -0.4487  0.6540 -0.5126
  159DOPC  H16X19234   6.577   1.034   5.147  1.2994  0.0240 -2.4060
  159DOPC  H16Y19235   6.575   1.203   5.097  0.7646  1.3858 -0.6960
  159DOPC  C31719236   6.763   1.112   5.094  0.0045 -0.8818 -0.0733
  159DOPC  H17X19237   6.816   1.209   5.110  0.1078 -0.7748 -1.0095
  159DOPC  H17Y19238   6.819   1.034   5.150 -0.1341  0.8839  2.7268
  159DOPC  C31819239   6.739   1.093   4.943 -0.2857  0.2069  0.1851
  159DOPC  H18X19240   6.835   1.075   4.890 -0.2256  0.6138  0.1538
  159DOPC  H18Y19241   6.681   1.001   4.918  3.3284 -2.2657  0.0976
  159DOPC  H18Z19242   6.682   1.179   4.903  0.5470  1.7578  2.1334
  160DOPC     N19243   3.800   1.679   7.342 -0.1495  0.4826  0.7371
  160DOPC   C1219244   3.800   1.527   7.358  0.3282  0.0158  0.5198
  160DOPC  H12A19245   3.748   1.495   7.269  0.8153  1.4260 -0.3082
  160DOPC  H12B19246   3.734   1.499   7.439 -0.2241 -1.7570 -0.4905
  160DOPC   C1319247   3.865   1.733   7.465  0.2539  0.8155  0.4361
  160DOPC  H13A19248   3.873   1.841   7.456  0.4747  0.8339  0.8407
  160DOPC  H13B19249   3.805   1.723   7.553 -0.3614 -4.1816 -0.2578
  160DOPC  H13C19250   3.954   1.679   7.494 -0.6476 -1.1449 -0.2740
  160DOPC   C1419251   3.665   1.731   7.326  0.7314  0.5620  0.2403
  160DOPC  H14A19252   3.611   1.673   7.252  1.6512 -2.4285  1.7335
  160DOPC  H14B19253   3.611   1.725   7.419 -1.3448  1.8479 -0.8044
  160DOPC  H14C19254   3.648   1.833   7.296 -1.3270  0.5293  1.1177
  160DOPC   C1519255   3.875   1.714   7.216 -0.4035 -0.5752  0.2109
  160DOPC  H15A19256   3.970   1.664   7.208  0.6038  0.9294  1.8256
  160DOPC  H15B19257   3.898   1.820   7.210  2.6227 -1.1448 -0.1045
  160DOPC  H15C19258   3.825   1.687   7.125 -1.1186 -2.1075  1.0241
  160DOPC   C1119259   3.933   1.453   7.381  0.7161  0.2932 -1.0960
  160DOPC  H11A19260   3.975   1.488   7.477 -0.4827 -0.8432 -0.1184
  160DOPC  H11B19261   3.900   1.347   7.393 -1.5263  1.2102  2.1539
  160DOPC     P19262   4.027   1.402   7.131  0.1951 -0.0091 -0.3656
  160DOPC   O1319263   4.163   1.397   7.075 -0.4073  0.4832  0.1541
  160DOPC   O1419264   3.916   1.455   7.055  0.3396  0.3111 -0.0900
  160DOPC   O1219265   4.016   1.474   7.272 -0.0708 -0.0149 -0.1013
  160DOPC   O1119266   3.991   1.255   7.181  0.3603  0.3283 -0.1694
  160DOPC    C119267   3.873   1.188   7.130  0.8937  0.3959  0.3764
  160DOPC    HA19268   3.780   1.246   7.151  1.0792  1.1083 -0.7164
  160DOPC    HB19269   3.854   1.090   7.179 -1.4804 -1.4806 -3.7170
  160DOPC    C219270   3.881   1.143   6.979  0.8710 -0.3904 -0.4346
  160DOPC    HS19271   3.872   1.236   6.919  0.9567  0.8012  1.3515
  160DOPC   O2119272   3.789   1.034   6.974 -0.2745 -0.3551 -0.0245
  160DOPC   C2119273   3.698   1.043   6.879 -0.3030  0.1149  0.6260
  160DOPC   O2219274   3.693   1.134   6.798  0.2359 -0.2440  0.1934
  160DOPC   C2219275   3.605   0.916   6.876  0.0271 -0.1668  0.0515
  160DOPC   H2R19276   3.530   0.940   6.955  2.1106  2.0882  1.5191
  160DOPC   H2S19277   3.658   0.823   6.905  0.6204  0.1265 -0.0821
  160DOPC    C319278   4.020   1.089   6.944  0.3561 -0.5785 -0.1161
  160DOPC    HX19279   4.053   1.021   7.025 -0.1339 -1.7903 -0.8982
  160DOPC    HY19280   4.096   1.170   6.950  0.8568 -1.0943  0.6928
  160DOPC   O3119281   4.009   1.021   6.820  0.4893 -0.0956 -0.3693
  160DOPC   C3119282   4.059   1.061   6.714 -0.3383  0.4055  0.6090
  160DOPC   O3219283   4.135   1.153   6.701 -0.5791 -0.3096  0.3609
  160DOPC   C3219284   4.010   0.962   6.610  0.5333 -0.4136  0.3404
  160DOPC   H2X19285   4.061   0.865   6.622 -0.9816 -1.0608  2.0718
  160DOPC   H2Y19286   3.903   0.935   6.624  0.5984 -1.3309 -0.7382
  160DOPC   C2319287   3.538   0.886   6.736 -0.4514 -0.5077 -0.0485
  160DOPC   H3R19288   3.613   0.842   6.667 -0.4479 -1.5600  0.6042
  160DOPC   H3S19289   3.503   0.982   6.693 -0.9517  0.7532  2.9279
  160DOPC   C2419290   3.412   0.804   6.745  0.4883 -0.4956 -0.1712
  160DOPC   H4R19291   3.366   0.802   6.644  0.8082  1.7970 -0.4074
  160DOPC   H4S19292   3.335   0.842   6.815 -0.2492 -2.9446  0.4713
  160DOPC   C2519293   3.448   0.650   6.755 -0.5264 -0.0071 -0.0740
  160DOPC   H5R19294   3.430   0.608   6.856  0.3741  0.5849  0.3488
  160DOPC   H5S19295   3.556   0.631   6.732 -0.5459 -0.0856 -0.1001
  160DOPC   C2619296   3.374   0.563   6.655 -0.5092  0.4476  0.1917
  160DOPC   H6R19297   3.266   0.590   6.668 -0.4351  0.6164  0.4610
  160DOPC   H6S19298   3.392   0.459   6.690 -1.7968 -0.0869 -0.6089
  160DOPC   C2719299   3.406   0.571   6.502  0.3171  1.0814  0.3503
  160DOPC   H7R19300   3.517   0.559   6.498  0.2822 -0.2444  2.1870
  160DOPC   H7S19301   3.372   0.666   6.457 -0.8355  0.8034  0.6055
  160DOPC   C2819302   3.345   0.450   6.431 -0.0655 -0.1114 -0.1653
  160DOPC   H8R19303   3.369   0.365   6.499 -1.3803  1.3974  2.3384
  160DOPC   H8S19304   3.401   0.442   6.335 -1.1313  0.5518 -0.8553
  160DOPC   C2919305   3.201   0.454   6.410 -0.6170 -0.6587 -0.4901
  160DOPC   H9R19306   3.138   0.513   6.477 -1.3608 -0.4633 -1.3418
  160DOPC  C21019307   3.152   0.393   6.300 -0.2108 -0.4252 -0.5633
  160DOPC  H10R19308   3.045   0.404   6.278 -0.1378  2.3184  0.1086
  160DOPC  C21119309   3.221   0.333   6.191 -0.8217 -0.3743 -0.0897
  160DOPC  H11R19310   3.328   0.317   6.215 -0.5913  1.1450 -0.0509
  160DOPC  H11S19311   3.228   0.413   6.114  0.3267 -0.1930  0.1815
  160DOPC  C21219312   3.164   0.195   6.147  0.0355 -1.6573 -0.2743
  160DOPC  H12R19313   3.061   0.212   6.111 -0.4099 -0.5698  1.4214
  160DOPC  H12S19314   3.168   0.143   6.244  0.7796 -2.4466 -0.7118
  160DOPC  C21319315   3.245   0.120   6.049  0.3669  0.6646  0.0173
  160DOPC  H13R19316   3.349   0.097   6.080 -0.7684 -3.0397  1.6761
  160DOPC  H13S19317   3.254   0.175   5.953  1.4088  0.7842  0.1783
  160DOPC  C21419318   3.192  -0.024   6.021  0.0458 -0.1625  0.5345
  160DOPC  H14R19319   3.270  -0.066   5.953  0.1251 -0.1214  0.6010
  160DOPC  H14S19320   3.098  -0.019   5.962 -0.2197  1.5241  1.0537
  160DOPC  C21519321   3.170  -0.105   6.148  0.1044 -0.5426  0.0709
  160DOPC  H15R19322   3.086  -0.068   6.209  0.6254 -0.3297  0.6666
  160DOPC  H15S19323   3.257  -0.089   6.215 -0.0293 -0.5761  0.2511
  160DOPC  C21619324   3.144  -0.254   6.134 -0.1161  0.2389 -0.4084
  160DOPC  H16R19325   3.156  -0.297   6.235 -2.1366  2.9858  1.1628
  160DOPC  H16S19326   3.231  -0.291   6.076  1.2265  1.9030  0.4469
  160DOPC  C21719327   3.004  -0.292   6.093 -0.2865  0.2362  0.2839
  160DOPC  H17R19328   2.970  -0.242   6.000 -0.8467 -3.2891 -1.5702
  160DOPC  H17S19329   2.933  -0.261   6.173 -0.8042  1.1001 -0.5006
  160DOPC  C21819330   2.998  -0.443   6.076 -0.0574  0.2200  0.1041
  160DOPC  H18R19331   3.058  -0.482   6.162  0.3222 -0.4977 -0.4786
  160DOPC  H18S19332   3.049  -0.478   5.984 -0.0912  1.8159 -0.5585
  160DOPC  H18T19333   2.892  -0.477   6.074 -0.3750  1.1879 -0.2802
  160DOPC   C3319334   4.030   1.002   6.465  0.0656 -0.7897 -0.2307
  160DOPC   H3X19335   4.138   1.023   6.449  0.1159 -0.2084  0.8129
  160DOPC   H3Y19336   3.970   1.091   6.436  0.4480 -0.5572 -0.3182
  160DOPC   C3419337   3.996   0.877   6.380 -0.5479  0.3169  1.1813
  160DOPC   H4X19338   3.892   0.848   6.404 -0.7016  0.1016  0.3089
  160DOPC   H4Y19339   4.072   0.796   6.395 -2.1527 -1.6988 -0.7995
  160DOPC   C3519340   4.008   0.921   6.236 -0.3209 -0.2370  0.6553
  160DOPC   H5X19341   4.112   0.945   6.205 -0.6547 -0.4516 -0.6994
  160DOPC   H5Y19342   3.947   1.009   6.208 -0.5011 -0.1667  1.2651
  160DOPC   C3619343   3.967   0.809   6.143 -0.2839  0.3330  0.3629
  160DOPC   H6X19344   4.034   0.723   6.161 -1.9806 -1.0073  0.5642
  160DOPC   H6Y19345   3.867   0.777   6.178 -0.4471  0.1168 -0.2772
  160DOPC   C3719346   3.962   0.853   5.991 -0.1392 -0.5437 -0.2461
  160DOPC   H7X19347   3.883   0.931   6.001  2.1828  1.9184 -0.1992
  160DOPC   H7Y19348   4.058   0.900   5.962 -0.5860  0.8544  0.4929
  160DOPC   C3819349   3.917   0.753   5.900  0.8024 -0.6765 -0.8757
  160DOPC   H8X19350   3.897   0.794   5.798 -3.1353 -0.0487  0.0104
  160DOPC   H8Y19351   3.818   0.714   5.931  0.0096  1.5704 -0.4041
  160DOPC   C3919352   4.009   0.629   5.903  0.0676 -0.7297  0.2670
  160DOPC   H9X19353   4.024   0.572   5.996 -0.4044  1.4414  1.7472
  160DOPC  C31019354   4.069   0.576   5.799  0.0934 -0.3105  0.1439
  160DOPC  H10X19355   4.136   0.490   5.813 -0.4349 -0.6061  0.9875
  160DOPC  C31119356   4.065   0.637   5.657  0.3683  0.0956 -0.6688
  160DOPC  H11X19357   4.167   0.624   5.613  1.4397  2.3636  0.9701
  160DOPC  H11Y19358   4.051   0.746   5.645 -0.9352 -0.0034 -0.1497
  160DOPC  C31219359   3.952   0.565   5.568 -0.1713 -0.7514 -1.0566
  160DOPC  H12X19360   3.961   0.610   5.467  2.6888 -1.0641 -1.0210
  160DOPC  H12Y19361   3.853   0.588   5.612 -1.9584 -2.6702 -3.7732
  160DOPC  C31319362   3.971   0.416   5.554 -0.1073  0.3029 -0.5060
  160DOPC  H13X19363   4.080   0.394   5.550 -0.0946  0.5040 -3.2259
  160DOPC  H13Y19364   3.924   0.358   5.637  0.0546  1.5333  0.4768
  160DOPC  C31419365   3.913   0.344   5.428 -0.1278 -0.3367  0.1798
  160DOPC  H14X19366   3.921   0.233   5.434 -0.2479 -0.4241 -1.0689
  160DOPC  H14Y19367   3.809   0.379   5.414  0.5703  2.2601  1.0608
  160DOPC  C31519368   3.984   0.381   5.297 -0.2015  0.5660 -0.1274
  160DOPC  H15X19369   4.084   0.334   5.293 -0.2000  0.6656 -2.1505
  160DOPC  H15Y19370   3.987   0.492   5.294 -1.0530  0.6400  0.9778
  160DOPC  C31619371   3.909   0.332   5.168  0.6049 -0.4678 -0.3960
  160DOPC  H16X19372   3.960   0.239   5.132 -1.6019 -1.9348  0.0984
  160DOPC  H16Y19373   3.806   0.297   5.191  0.7159  0.3153  1.4444
  160DOPC  C31719374   3.918   0.440   5.049 -0.3485  0.2999  0.1666
  160DOPC  H17X19375   3.855   0.418   4.960  1.3058 -0.0726 -0.9649
  160DOPC  H17Y19376   3.870   0.527   5.099  1.3425  0.2821  1.9284
  160DOPC  C31819377   4.066   0.463   5.008  0.2012  0.2738  0.1899
  160DOPC  H18X19378   4.116   0.365   4.998  1.7178  0.5469  3.6312
  160DOPC  H18Y19379   4.067   0.518   4.912  1.2256 -1.2436 -0.7052
  160DOPC  H18Z19380   4.121   0.520   5.085  1.2432 -1.6623  0.9396
  161DOPC     N19381   4.828   0.932   7.179  0.7490 -0.2231  0.2515
  161DOPC   C1219382   4.860   0.914   7.033  0.3729  0.0098  0.1813
  161DOPC  H12A19383   4.957   0.959   7.016  0.4399  0.3627  1.3654
  161DOPC  H12B19384   4.776   0.956   6.980 -0.5142 -0.2380  1.3284
  161DOPC   C1319385   4.699   0.853   7.200 -0.0965 -0.5768 -0.2281
  161DOPC  H13A19386   4.633   0.912   7.137 -0.7821  0.3616  1.3140
  161DOPC  H13B19387   4.714   0.759   7.149  0.6968 -1.0867  0.9108
  161DOPC  H13C19388   4.677   0.840   7.305  0.1730  1.7883  0.1847
  161DOPC   C1419389   4.798   1.073   7.216  0.1970 -0.1695  0.6769
  161DOPC  H14A19390   4.878   1.140   7.188 -0.8232  1.6018  1.8338
  161DOPC  H14B19391   4.716   1.115   7.160  0.9423 -0.3150 -0.5529
  161DOPC  H14C19392   4.785   1.081   7.323 -0.1325  0.5195  0.5860
  161DOPC   C1519393   4.935   0.882   7.265  0.0729  0.0676  0.2363
  161DOPC  H15A19394   4.975   0.791   7.222  1.2847  1.0408 -0.7565
  161DOPC  H15B19395   4.899   0.864   7.365  1.9598 -1.1357  0.7391
  161DOPC  H15C19396   5.021   0.946   7.274 -0.7310  1.1136  0.6471
  161DOPC   C1119397   4.887   0.771   6.977 -0.2529  0.2369  0.1784
  161DOPC  H11A19398   4.797   0.711   7.004  0.0068 -0.0671  0.3639
  161DOPC  H11B19399   4.898   0.767   6.867  1.7455 -1.1465  0.3858
  161DOPC     P19400   5.144   0.763   6.999  0.4339 -0.0133  0.1037
  161DOPC   O1319401   5.233   0.697   7.097 -0.2187 -0.3786 -0.1253
  161DOPC   O1419402   5.144   0.913   6.997  0.5281 -0.1401  0.0094
  161DOPC   O1219403   4.999   0.708   7.040 -0.1095  0.1514  0.1921
  161DOPC   O1119404   5.181   0.703   6.860  0.3079  0.3483  0.8192
  161DOPC    C119405   5.134   0.567   6.823 -0.8600 -0.3443  0.6997
  161DOPC    HA19406   5.034   0.542   6.865 -1.0615 -1.0475 -0.1618
  161DOPC    HB19407   5.202   0.484   6.850  0.7412  0.8388  0.4346
  161DOPC    C219408   5.122   0.553   6.668 -0.0691  0.1455 -0.2343
  161DOPC    HS19409   5.065   0.460   6.647  1.0039 -0.1574 -2.0138
  161DOPC   O2119410   5.253   0.538   6.602  0.4048 -0.0797  0.5887
  161DOPC   C2119411   5.289   0.412   6.587 -0.2299  0.0001  0.7423
  161DOPC   O2219412   5.226   0.318   6.632 -0.0787 -0.1010 -0.6395
  161DOPC   C2219413   5.400   0.389   6.486 -0.4368  0.2569  0.0783
  161DOPC   H2R19414   5.443   0.293   6.522 -0.4222 -0.4222 -1.6708
  161DOPC   H2S19415   5.475   0.470   6.499  1.3939 -1.5879  1.8665
  161DOPC    C319416   5.037   0.669   6.618 -0.3847  0.0705  0.0275
  161DOPC    HX19417   5.102   0.757   6.635 -0.6939  0.7394 -1.9908
  161DOPC    HY19418   4.941   0.670   6.675 -1.3819 -0.8114 -1.5489
  161DOPC   O3119419   5.014   0.662   6.474 -0.1623 -0.4030 -0.0423
  161DOPC   C3119420   4.902   0.595   6.441  0.1720 -0.4672  0.0985
  161DOPC   O3219421   4.834   0.527   6.515 -0.4756  0.6043  0.1553
  161DOPC   C3219422   4.888   0.594   6.294 -0.6465 -0.1221  0.0854
  161DOPC   H2X19423   4.878   0.696   6.249 -2.7094  0.4748  1.7420
  161DOPC   H2Y19424   4.976   0.537   6.257 -0.0956  0.9653 -0.3216
  161DOPC   C2319425   5.359   0.368   6.340  0.0185  0.3234 -0.4559
  161DOPC   H3R19426   5.271   0.301   6.330 -0.8504  1.7191 -2.6884
  161DOPC   H3S19427   5.447   0.322   6.290 -0.0023 -0.3315  0.0913
  161DOPC   C2419428   5.327   0.482   6.252 -0.0087 -0.5765 -0.5088
  161DOPC   H4R19429   5.402   0.562   6.271  0.4353 -1.4334  1.6750
  161DOPC   H4S19430   5.233   0.526   6.291  0.8059  0.9035 -0.1179
  161DOPC   C2519431   5.305   0.416   6.114 -0.3595 -0.3495 -0.4893
  161DOPC   H5R19432   5.260   0.315   6.127 -0.4089 -0.2370  0.2230
  161DOPC   H5S19433   5.398   0.393   6.059 -1.7196 -2.1751 -2.1674
  161DOPC   C2619434   5.222   0.502   6.023  0.5186 -0.5766 -0.0981
  161DOPC   H6R19435   5.259   0.604   6.001  0.6767 -0.9673 -1.7720
  161DOPC   H6S19436   5.122   0.514   6.071  1.2664  0.3955  1.2533
  161DOPC   C2719437   5.210   0.440   5.879  0.2933 -0.8503  0.1007
  161DOPC   H7R19438   5.151   0.346   5.885  0.1087 -0.7671 -0.3794
  161DOPC   H7S19439   5.306   0.413   5.831 -0.4308 -0.6376 -1.5284
  161DOPC   C2819440   5.147   0.533   5.773 -0.2424  0.1948  0.5645
  161DOPC   H8R19441   5.171   0.476   5.681  1.1487 -0.8272  1.5118
  161DOPC   H8S19442   5.202   0.630   5.773 -2.4331  1.5085  0.0922
  161DOPC   C2919443   4.999   0.562   5.796  0.5105 -0.6479 -0.4160
  161DOPC   H9R19444   4.943   0.473   5.829 -1.5479 -0.4769 -3.0898
  161DOPC  C21019445   4.938   0.684   5.809 -0.5369 -0.8779 -0.1845
  161DOPC  H10R19446   4.834   0.695   5.844 -1.2542  0.3837 -2.5413
  161DOPC  C21119447   5.001   0.817   5.785  0.5140 -0.0160  0.3374
  161DOPC  H11R19448   4.935   0.880   5.722 -0.9704 -1.3565  0.4878
  161DOPC  H11S19449   5.100   0.806   5.737  0.3612 -0.2876  0.0871
  161DOPC  C21219450   5.005   0.903   5.916 -1.0968  0.0074 -0.6979
  161DOPC  H12R19451   4.907   0.904   5.968 -1.4253 -2.6389 -1.1138
  161DOPC  H12S19452   5.036   1.008   5.898 -1.2044  0.3922  1.1259
  161DOPC  C21319453   5.104   0.842   6.015 -0.5898  0.5732 -0.2707
  161DOPC  H13R19454   5.209   0.849   5.979 -1.2799  1.7089 -2.2065
  161DOPC  H13S19455   5.077   0.737   6.041 -0.5188  0.8750  1.0939
  161DOPC  C21419456   5.107   0.908   6.156  0.4149 -0.3433  0.0282
  161DOPC  H14R19457   5.008   0.888   6.203  1.2152  0.4594  2.1523
  161DOPC  H14S19458   5.114   1.017   6.136  0.0602 -0.6257 -1.8713
  161DOPC  C21519459   5.216   0.854   6.251 -0.4813  0.2744 -0.0450
  161DOPC  H15R19460   5.312   0.887   6.207 -0.2449  2.3119  1.7708
  161DOPC  H15S19461   5.205   0.744   6.245  0.6775  0.1612 -0.3160
  161DOPC  C21619462   5.224   0.912   6.390  0.0340  0.2677 -0.0579
  161DOPC  H16R19463   5.303   0.864   6.451  1.7700  1.1737 -1.4910
  161DOPC  H16S19464   5.132   0.889   6.447  0.4663 -2.3460 -0.3168
  161DOPC  C21719465   5.238   1.068   6.396 -0.5426  0.0649  0.0972
  161DOPC  H17R19466   5.164   1.105   6.322 -1.5552 -1.3571  0.3584
  161DOPC  H17S19467   5.326   1.104   6.338 -1.5577 -0.2881 -1.7337
  161DOPC  C21819468   5.245   1.138   6.530 -0.5325  0.0818 -0.5958
  161DOPC  H18R19469   5.146   1.116   6.575 -0.5371  2.7239  0.8877
  161DOPC  H18S19470   5.254   1.248   6.530  0.3835  0.0352 -2.0278
  161DOPC  H18T19471   5.329   1.103   6.594  0.1233  1.3879 -0.7214
  161DOPC   C3319472   4.761   0.520   6.247  0.4506 -0.1116  0.0280
  161DOPC   H3X19473   4.675   0.573   6.294 -0.7367 -2.6241  0.8777
  161DOPC   H3Y19474   4.764   0.418   6.291  1.1684  0.4226  1.2603
  161DOPC   C3419475   4.748   0.517   6.093  0.0827 -0.5513  0.7758
  161DOPC   H4X19476   4.840   0.472   6.050  0.8476 -0.6629  2.4349
  161DOPC   H4Y19477   4.740   0.618   6.048  0.9305 -1.3135 -1.2156
  161DOPC   C3519478   4.637   0.426   6.045  0.1016  0.0134 -0.6906
  161DOPC   H5X19479   4.542   0.479   6.070 -1.0986 -1.8481 -1.1445
  161DOPC   H5Y19480   4.648   0.334   6.106  0.5302  1.5356  1.6531
  161DOPC   C3619481   4.627   0.405   5.899  0.0091 -0.4802  0.2844
  161DOPC   H6X19482   4.602   0.501   5.850  1.3466 -0.0678  0.3674
  161DOPC   H6Y19483   4.715   0.360   5.847 -1.0889  0.3945 -2.5329
  161DOPC   C3719484   4.508   0.310   5.872  0.1606 -0.3041  0.3118
  161DOPC   H7X19485   4.538   0.208   5.903 -0.1435 -0.1034  1.2724
  161DOPC   H7Y19486   4.424   0.324   5.943 -0.5702 -0.7377 -0.4523
  161DOPC   C3819487   4.446   0.318   5.730  0.6790  1.1569  0.4545
  161DOPC   H8X19488   4.404   0.420   5.720 -0.3938  0.6356 -0.7404
  161DOPC   H8Y19489   4.356   0.252   5.723  2.4239 -1.3409  0.3517
  161DOPC   C3919490   4.537   0.270   5.619 -0.1003  0.5438  0.1973
  161DOPC   H9X19491   4.589   0.176   5.639 -0.7103  0.4332  1.4109
  161DOPC  C31019492   4.541   0.316   5.495 -0.4020  0.5501  0.1287
  161DOPC  H10X19493   4.611   0.283   5.417  0.6869 -0.0433  1.3247
  161DOPC  C31119494   4.458   0.436   5.449 -0.2770 -0.2582 -0.5614
  161DOPC  H11X19495   4.532   0.505   5.404  1.3809 -0.8237  1.1821
  161DOPC  H11Y19496   4.410   0.486   5.536 -1.9864 -2.7638  0.0464
  161DOPC  C31219497   4.351   0.402   5.357  0.1957  0.1926  0.1547
  161DOPC  H12X19498   4.285   0.491   5.353  0.8870  0.8442  2.2474
  161DOPC  H12Y19499   4.296   0.313   5.396  1.2907 -0.5554  0.0285
  161DOPC  C31319500   4.391   0.388   5.208  0.0184  0.0899 -0.4358
  161DOPC  H13X19501   4.319   0.439   5.141  1.1291  2.5309  0.1229
  161DOPC  H13Y19502   4.497   0.415   5.188 -0.5342  0.6988 -2.8236
  161DOPC  C31419503   4.382   0.238   5.172  0.4769  0.5918  0.3008
  161DOPC  H14X19504   4.442   0.166   5.232  0.7838  1.0768  0.5875
  161DOPC  H14Y19505   4.280   0.207   5.203  0.1291  2.1933  0.8892
  161DOPC  C31519506   4.405   0.202   5.024  0.6714 -0.7147  0.7349
  161DOPC  H15X19507   4.355   0.276   4.958  0.3204 -0.7934  0.9084
  161DOPC  H15Y19508   4.369   0.100   4.999 -1.2656 -0.3410  1.8210
  161DOPC  C31619509   4.551   0.213   4.984 -0.1025  0.0734  0.6855
  161DOPC  H16X19510   4.599   0.304   5.026 -0.3864  1.1566 -1.2512
  161DOPC  H16Y19511   4.587   0.122   5.037 -2.6291  0.2668  2.9871
  161DOPC  C31719512   4.566   0.209   4.831 -0.2756  0.6556 -0.4741
  161DOPC  H17X19513   4.544   0.107   4.792 -2.8523  1.2776 -0.8022
  161DOPC  H17Y19514   4.492   0.281   4.792 -1.9016 -0.2068  0.8583
  161DOPC  C31819515   4.706   0.239   4.772  0.3901  0.0922  0.0679
  161DOPC  H18X19516   4.734   0.338   4.814  1.4133 -0.1106 -0.1171
  161DOPC  H18Y19517   4.788   0.176   4.812 -0.4324 -0.5038  0.8666
  161DOPC  H18Z19518   4.696   0.245   4.662 -2.0902 -1.6075  0.1231
  162DOPC     N19519   2.436   6.759   7.414  0.5155 -0.7910 -0.6901
  162DOPC   C1219520   2.343   6.806   7.302  0.3998  0.3080 -0.3550
  162DOPC  H12A19521   2.297   6.897   7.336  0.3162  0.5523 -1.1017
  162DOPC  H12B19522   2.269   6.732   7.278  0.8184 -0.2551  0.0546
  162DOPC   C1319523   2.370   6.742   7.548 -0.5839  0.2909  0.1306
  162DOPC  H13A19524   2.354   6.843   7.583  0.4615  1.3975 -2.3214
  162DOPC  H13B19525   2.281   6.682   7.559 -0.4344 -0.2811 -1.4400
  162DOPC  H13C19526   2.448   6.695   7.607  1.2225  2.3204 -0.4948
  162DOPC   C1419527   2.540   6.859   7.452  0.3145  0.2282 -0.5212
  162DOPC  H14A19528   2.480   6.938   7.494  1.0907  1.5571 -1.8266
  162DOPC  H14B19529   2.609   6.825   7.529 -1.3059 -0.9644  0.4632
  162DOPC  H14C19530   2.590   6.899   7.366  1.0900 -1.7976 -1.0796
  162DOPC   C1519531   2.508   6.633   7.379  0.0164 -0.0354  0.0909
  162DOPC  H15A19532   2.576   6.606   7.458  0.6064  3.6617  1.0350
  162DOPC  H15B19533   2.567   6.650   7.290  0.0966 -3.2840 -0.5955
  162DOPC  H15C19534   2.437   6.553   7.360 -1.6572  1.3991  0.0496
  162DOPC   C1119535   2.418   6.845   7.179 -0.4871  0.8477  0.5445
  162DOPC  H11A19536   2.503   6.774   7.165 -0.3292  0.9704  0.8680
  162DOPC  H11B19537   2.362   6.843   7.084 -1.0718  0.3428  0.8905
  162DOPC     P19538   2.390   7.112   7.208 -0.1645  0.4050  0.4704
  162DOPC   O1319539   2.466   7.229   7.169 -0.1460  0.2235  1.0275
  162DOPC   O1419540   2.331   7.106   7.339 -0.2033  0.7124 -1.3073
  162DOPC   O1219541   2.476   6.972   7.190  0.1921  0.2049 -0.3515
  162DOPC   O1119542   2.264   7.081   7.109  0.3291 -0.7637 -0.1567
  162DOPC    C119543   2.288   7.091   6.963 -0.3531 -0.4382 -1.1835
  162DOPC    HA19544   2.238   7.000   6.923 -1.8430 -0.6023  0.8532
  162DOPC    HB19545   2.398   7.091   6.950 -0.0305  0.0972  1.0062
  162DOPC    C219546   2.218   7.216   6.900  0.7193  0.0518 -0.0497
  162DOPC    HS19547   2.265   7.300   6.955  0.5254 -0.6200  1.1668
  162DOPC   O2119548   2.079   7.208   6.918  0.1175 -0.1313  0.3543
  162DOPC   C2119549   2.024   7.328   6.928  0.2516  0.9256 -0.2326
  162DOPC   O2219550   2.083   7.434   6.939 -0.2272  0.0240 -0.1374
  162DOPC   C2219551   1.873   7.312   6.944 -0.2989 -0.0250  0.3579
  162DOPC   H2R19552   1.847   7.261   7.039  0.1336  1.1174  1.1207
  162DOPC   H2S19553   1.835   7.244   6.865 -0.4566  0.7156 -0.2172
  162DOPC    C319554   2.256   7.222   6.751 -0.0774 -0.1715 -0.3159
  162DOPC    HX19555   2.367   7.225   6.759 -0.1419 -0.5899  0.9555
  162DOPC    HY19556   2.217   7.319   6.716 -0.1796  0.0807  0.4857
  162DOPC   O3119557   2.228   7.101   6.679  0.4543 -0.3053  0.0086
  162DOPC   C3119558   2.102   7.093   6.613 -0.0108  0.0688 -0.7019
  162DOPC   O3219559   2.017   7.178   6.607  0.3234  0.8324 -0.2442
  162DOPC   C3219560   2.104   6.962   6.540  0.0205  0.3533 -0.3961
  162DOPC   H2X19561   2.153   6.888   6.607 -0.5839 -0.1579 -0.5072
  162DOPC   H2Y19562   2.001   6.930   6.516 -0.5497  2.9921 -1.7662
  162DOPC   C2319563   1.799   7.450   6.949 -0.8849 -0.2275  0.2987
  162DOPC   H3R19564   1.795   7.499   6.849 -0.3902  0.3356  0.5460
  162DOPC   H3S19565   1.843   7.527   7.016  1.4329 -0.8184 -0.4260
  162DOPC   C2419566   1.654   7.428   6.983 -0.4928  0.0850  0.5969
  162DOPC   H4R19567   1.608   7.529   6.986  2.5883  1.6216  0.1066
  162DOPC   H4S19568   1.656   7.369   7.077  0.1819  0.2581  0.6972
  162DOPC   C2519569   1.576   7.352   6.876 -0.7773 -0.3373 -0.4138
  162DOPC   H5R19570   1.477   7.349   6.926  0.6568  2.4010  3.0172
  162DOPC   H5S19571   1.603   7.244   6.866 -0.8853 -0.2125 -2.4864
  162DOPC   C2619572   1.586   7.425   6.745  0.8445 -0.0461  0.7626
  162DOPC   H6R19573   1.682   7.392   6.700 -1.2354 -2.4561 -2.3671
  162DOPC   H6S19574   1.577   7.533   6.768  1.8251 -0.2720  2.3386
  162DOPC   C2719575   1.475   7.388   6.640 -0.7854 -0.0676  0.0924
  162DOPC   H7R19576   1.390   7.352   6.702 -0.8412  1.6542  1.0729
  162DOPC   H7S19577   1.518   7.293   6.601 -0.8950 -0.6891  1.4264
  162DOPC   C2819578   1.438   7.488   6.530  0.4087  0.2369 -0.2557
  162DOPC   H8R19579   1.351   7.449   6.473  0.9262 -1.3678 -0.0089
  162DOPC   H8S19580   1.521   7.499   6.456  0.9124 -0.4677  0.1829
  162DOPC   C2919581   1.391   7.618   6.590  0.0934  0.1098 -0.6453
  162DOPC   H9R19582   1.309   7.613   6.664  1.5094 -0.4041  0.9735
  162DOPC  C21019583   1.445   7.740   6.579 -0.5965  0.5343  0.0834
  162DOPC  H10R19584   1.401   7.829   6.627  0.0465  0.6847  0.4002
  162DOPC  C21119585   1.572   7.770   6.497 -0.0580 -0.2045  0.4216
  162DOPC  H11R19586   1.642   7.685   6.514  0.7694  0.6221  1.2209
  162DOPC  H11S19587   1.622   7.860   6.538 -1.9313  0.4891  1.3020
  162DOPC  C21219588   1.554   7.782   6.344  0.1599  0.2981  0.6136
  162DOPC  H12R19589   1.501   7.694   6.302  0.8177 -1.3986  3.0601
  162DOPC  H12S19590   1.659   7.792   6.308  0.7642  0.6671  2.3739
  162DOPC  C21319591   1.476   7.904   6.293 -0.2269 -0.3311  0.2473
  162DOPC  H13R19592   1.515   7.993   6.347 -0.1153 -0.7633  0.8954
  162DOPC  H13S19593   1.368   7.900   6.316 -0.6440 -1.2419 -1.6854
  162DOPC  C21419594   1.491   7.930   6.139  0.2380  0.3051  0.3165
  162DOPC  H14R19595   1.600   7.934   6.117 -0.1712  0.4134 -1.9708
  162DOPC  H14S19596   1.460   8.035   6.120  3.0453  1.2710  0.6245
  162DOPC  C21519597   1.404   7.848   6.037 -0.3433 -0.4709 -0.1427
  162DOPC  H15R19598   1.307   7.903   6.033  0.4245  0.8928 -2.8662
  162DOPC  H15S19599   1.396   7.747   6.081 -0.5946  0.0853  1.1443
  162DOPC  C21619600   1.470   7.844   5.898  0.1977 -0.4430 -0.6417
  162DOPC  H16R19601   1.395   7.776   5.852 -1.3191 -1.2645  2.7577
  162DOPC  H16S19602   1.562   7.784   5.919  1.0922  0.9886 -0.3569
  162DOPC  C21719603   1.488   7.980   5.832  0.0027  0.1571 -0.7213
  162DOPC  H17R19604   1.566   8.033   5.889 -0.5142  0.7814 -0.5831
  162DOPC  H17S19605   1.393   8.038   5.834  0.2531  0.6015  1.7958
  162DOPC  C21819606   1.530   7.965   5.683 -0.4976 -0.3162  0.4853
  162DOPC  H18R19607   1.640   7.946   5.681 -0.2740  0.8563 -1.7523
  162DOPC  H18S19608   1.510   8.061   5.631  0.7689  1.2124  2.6532
  162DOPC  H18T19609   1.481   7.887   5.621 -0.0069 -0.7530  0.6383
  162DOPC   C3319610   2.193   6.973   6.407 -0.3498  0.1347  0.6358
  162DOPC   H3X19611   2.211   6.870   6.369 -1.1758  0.5649 -1.0050
  162DOPC   H3Y19612   2.286   7.029   6.430  0.4216 -0.2949 -1.3159
  162DOPC   C3419613   2.118   7.054   6.296 -0.2555  0.2556 -0.3747
  162DOPC   H4X19614   2.100   7.158   6.329 -0.5711  0.4723 -1.1996
  162DOPC   H4Y19615   2.020   7.004   6.281 -1.0018  1.8778 -1.1573
  162DOPC   C3519616   2.204   7.053   6.169  0.1542 -0.2071 -0.6904
  162DOPC   H5X19617   2.259   6.957   6.158  1.0056  0.2597 -0.5781
  162DOPC   H5Y19618   2.287   7.125   6.189 -0.1430 -0.2827  0.9228
  162DOPC   C3619619   2.137   7.089   6.038  0.2552  0.0318 -0.2833
  162DOPC   H6X19620   2.047   7.025   6.028  1.5881 -2.1786  1.1255
  162DOPC   H6Y19621   2.102   7.195   6.044 -1.8465 -0.6764  1.1412
  162DOPC   C3719622   2.231   7.057   5.918  0.1260 -0.5749  0.0757
  162DOPC   H7X19623   2.323   7.118   5.932 -0.4454  0.9369 -2.1805
  162DOPC   H7Y19624   2.263   6.952   5.932  0.5520 -0.5989 -1.0042
  162DOPC   C3819625   2.180   7.084   5.773  0.7671 -0.0839 -0.1968
  162DOPC   H8X19626   2.081   7.037   5.755 -0.2113  1.4606  0.9381
  162DOPC   H8Y19627   2.262   7.046   5.708  0.7090 -1.6435  0.6164
  162DOPC   C3919628   2.162   7.223   5.727 -0.6969 -0.5803  0.1823
  162DOPC   H9X19629   2.163   7.300   5.806  3.7093 -0.4526  0.2089
  162DOPC  C31019630   2.138   7.261   5.594  0.0652 -0.2296  0.0926
  162DOPC  H10X19631   2.121   7.364   5.560  0.5229 -0.9978 -2.6758
  162DOPC  C31119632   2.137   7.165   5.474  0.5182 -0.1724 -0.1932
  162DOPC  H11X19633   2.035   7.160   5.430  0.5868 -0.9632 -0.2685
  162DOPC  H11Y19634   2.159   7.059   5.497  3.3905  0.1339 -1.1405
  162DOPC  C31219635   2.217   7.209   5.348 -0.6951 -0.4473  0.5511
  162DOPC  H12X19636   2.163   7.299   5.313  0.7124  0.2757  0.1480
  162DOPC  H12Y19637   2.213   7.133   5.267 -1.0959 -0.3168  0.4477
  162DOPC  C31319638   2.370   7.228   5.378 -0.2191  0.6609 -0.5462
  162DOPC  H13X19639   2.417   7.288   5.297 -0.4217 -1.3143 -2.2324
  162DOPC  H13Y19640   2.373   7.280   5.476 -0.3616 -0.3306  0.0046
  162DOPC  C31419641   2.442   7.090   5.384  0.3802 -0.5649  0.4296
  162DOPC  H14X19642   2.376   7.024   5.446 -1.7885  0.9239 -0.1620
  162DOPC  H14Y19643   2.448   7.061   5.277 -0.7544  2.8636 -0.7014
  162DOPC  C31519644   2.578   7.107   5.443 -0.1799 -0.7241  0.2911
  162DOPC  H15X19645   2.632   7.200   5.415 -0.0289 -1.3055 -1.5414
  162DOPC  H15Y19646   2.641   7.017   5.422 -0.0653 -0.4842 -0.4293
  162DOPC  C31619647   2.570   7.120   5.597 -0.4607  0.3327  0.5010
  162DOPC  H16X19648   2.496   7.199   5.621 -0.5919  0.5288 -0.5017
  162DOPC  H16Y19649   2.523   7.027   5.635  1.1237 -2.0630 -2.8480
  162DOPC  C31719650   2.695   7.144   5.672 -0.3928 -0.1818 -0.2438
  162DOPC  H17X19651   2.734   7.246   5.655 -0.0418 -0.1073  0.9325
  162DOPC  H17Y19652   2.674   7.142   5.781  0.0290  1.5604 -0.1133
  162DOPC  C31819653   2.806   7.033   5.649 -0.6254  0.1977  0.0019
  162DOPC  H18X19654   2.906   7.068   5.681 -1.3627  0.7088  1.8801
  162DOPC  H18Y19655   2.773   6.951   5.718 -1.3570  1.3614  1.0856
  162DOPC  H18Z19656   2.797   6.987   5.548  0.8184  1.3583 -0.6796
  163DOPC     N19657   2.242   1.305   7.335  0.8974  0.7078 -0.3877
  163DOPC   C1219658   2.139   1.323   7.225  0.0053 -1.3585  0.0028
  163DOPC  H12A19659   2.056   1.385   7.256 -0.0517 -0.0045 -2.5622
  163DOPC  H12B19660   2.103   1.229   7.186  1.9132 -1.3191 -2.0534
  163DOPC   C1319661   2.279   1.431   7.386  0.3254 -0.3056  0.7133
  163DOPC  H13A19662   2.305   1.490   7.300  0.8584 -0.4046  0.8054
  163DOPC  H13B19663   2.190   1.482   7.419  1.0659  1.6740 -0.2265
  163DOPC  H13C19664   2.354   1.437   7.464  0.7301  0.4478  0.2795
  163DOPC   C1419665   2.369   1.242   7.280 -0.2413 -0.7380 -0.4397
  163DOPC  H14A19666   2.445   1.236   7.356 -0.9210 -0.9886  0.2224
  163DOPC  H14B19667   2.354   1.148   7.230  0.3139 -0.7976 -0.4973
  163DOPC  H14C19668   2.402   1.314   7.206 -0.8093  0.1807  0.1777
  163DOPC   C1519669   2.188   1.221   7.450  0.8345  0.5609 -0.3015
  163DOPC  H15A19670   2.161   1.123   7.413  1.4840 -0.0185  0.6991
  163DOPC  H15B19671   2.092   1.254   7.486 -0.7965 -2.2634 -1.7487
  163DOPC  H15C19672   2.259   1.207   7.531  2.4473 -1.8704 -1.9986
  163DOPC   C1119673   2.180   1.400   7.096  0.4474 -0.4891 -0.3321
  163DOPC  H11A19674   2.256   1.342   7.039 -0.6036 -0.8135 -1.4346
  163DOPC  H11B19675   2.084   1.399   7.040  0.0544  0.4517  0.3102
  163DOPC     P19676   2.105   1.658   7.117  0.3664 -0.4506 -0.1630
  163DOPC   O1319677   2.168   1.786   7.141 -0.4411 -0.0028 -0.2667
  163DOPC   O1419678   2.000   1.629   7.215  0.3538  0.2362  0.4761
  163DOPC   O1219679   2.214   1.539   7.115  0.3425 -0.0685 -0.0342
  163DOPC   O1119680   2.040   1.665   6.973  0.1781 -0.0819 -0.4433
  163DOPC    C119681   2.118   1.658   6.855  0.4609  0.6977 -0.3452
  163DOPC    HA19682   2.147   1.553   6.834 -2.2662 -0.2976  0.4206
  163DOPC    HB19683   2.202   1.730   6.859 -0.9077  2.3133  2.5424
  163DOPC    C219684   2.030   1.699   6.727  0.3695  0.0079 -0.1414
  163DOPC    HS19685   2.084   1.663   6.637  0.1339 -0.6957 -0.0079
  163DOPC   O2119686   2.007   1.844   6.721  0.7462 -0.0045 -0.3724
  163DOPC   C2119687   2.108   1.918   6.679 -0.1412  0.0025  0.1217
  163DOPC   O2219688   2.218   1.878   6.648  0.3934  0.1613 -0.3120
  163DOPC   C2219689   2.082   2.066   6.686 -0.2697 -0.4301  0.1330
  163DOPC   H2R19690   2.154   2.106   6.611  0.7495  0.2387  1.4272
  163DOPC   H2S19691   2.130   2.103   6.779  0.2099  1.8611 -0.9567
  163DOPC    C319692   1.897   1.626   6.737 -0.0310 -0.2910 -0.1984
  163DOPC    HX19693   1.869   1.654   6.841  1.8451  2.5930 -0.3404
  163DOPC    HY19694   1.903   1.516   6.732 -0.3240 -0.3412  0.3814
  163DOPC   O3119695   1.805   1.680   6.636  0.1054 -0.4948 -0.9707
  163DOPC   C3119696   1.694   1.614   6.640  0.4648  0.1679  0.7317
  163DOPC   O3219697   1.669   1.518   6.711 -0.3698  0.1885  0.6085
  163DOPC   C3219698   1.596   1.682   6.545  0.2270  0.4898  0.0353
  163DOPC   H2X19699   1.551   1.604   6.480 -0.6785  1.1484 -0.1472
  163DOPC   H2Y19700   1.515   1.724   6.609  0.5505  1.2348 -0.0438
  163DOPC   C2319701   1.939   2.123   6.672  0.1272 -0.2961 -0.2322
  163DOPC   H3R19702   1.943   2.230   6.704 -2.6127  0.8387 -3.1467
  163DOPC   H3S19703   1.871   2.073   6.744  0.5904 -0.2649  0.2352
  163DOPC   C2419704   1.870   2.118   6.527 -0.8643  0.0406 -0.4410
  163DOPC   H4R19705   1.760   2.138   6.528 -1.2686 -1.9738 -0.1484
  163DOPC   H4S19706   1.875   2.009   6.505 -1.6815  0.2141 -1.5928
  163DOPC   C2519707   1.950   2.200   6.422  0.2337  0.6991 -0.4337
  163DOPC   H5R19708   1.928   2.150   6.325 -1.3952 -0.5860  0.5282
  163DOPC   H5S19709   2.058   2.201   6.447  0.4948 -2.7671 -0.9343
  163DOPC   C2619710   1.895   2.345   6.408  0.4474 -0.3517 -0.8709
  163DOPC   H6R19711   1.929   2.400   6.498  0.0765 -0.9393 -0.3660
  163DOPC   H6S19712   1.784   2.349   6.405  0.4335 -0.6727 -0.8658
  163DOPC   C2719713   1.956   2.420   6.287 -0.1661  0.1549 -0.1676
  163DOPC   H7R19714   2.066   2.411   6.300  0.2842  2.1817 -2.1141
  163DOPC   H7S19715   1.929   2.526   6.302 -0.7750 -0.0940  0.5747
  163DOPC   C2819716   1.909   2.373   6.151  0.3958  0.0071  0.1146
  163DOPC   H8R19717   1.798   2.370   6.156  0.3830 -0.2124 -0.2725
  163DOPC   H8S19718   1.937   2.270   6.120  0.5695  0.8398 -2.8309
  163DOPC   C2919719   1.956   2.456   6.033 -0.5381 -0.7248  0.1173
  163DOPC   H9R19720   2.055   2.446   5.988 -0.0583  0.0636  0.9625
  163DOPC  C21019721   1.892   2.566   5.980 -0.3976  0.4002  0.4271
  163DOPC  H10R19722   1.945   2.628   5.907  0.6377 -0.6560  0.2632
  163DOPC  C21119723   1.758   2.620   6.010  1.3771  0.1594 -0.2347
  163DOPC  H11R19724   1.765   2.730   6.028  1.3991 -0.1092  1.5111
  163DOPC  H11S19725   1.735   2.567   6.105  3.1165 -0.6996 -0.2492
  163DOPC  C21219726   1.650   2.583   5.913  0.1048 -0.0209  0.0941
  163DOPC  H12R19727   1.549   2.617   5.945  0.6424  0.4952  1.2943
  163DOPC  H12S19728   1.646   2.472   5.911 -0.3765  0.0018 -1.8420
  163DOPC  C21319729   1.678   2.635   5.772 -0.6016 -0.4913  0.8077
  163DOPC  H13R19730   1.748   2.573   5.711 -0.2060 -0.5131  1.2747
  163DOPC  H13S19731   1.722   2.736   5.780  2.5830 -1.3395 -2.9220
  163DOPC  C21419732   1.546   2.655   5.689 -0.4232  0.4254 -0.5249
  163DOPC  H14R19733   1.484   2.728   5.744  2.1813  1.6481  1.0010
  163DOPC  H14S19734   1.496   2.557   5.703 -1.7216  1.1762  0.2797
  163DOPC  C21519735   1.572   2.687   5.546 -0.1429 -0.5409  0.8790
  163DOPC  H15R19736   1.656   2.626   5.505  0.2260  0.9325 -0.6843
  163DOPC  H15S19737   1.600   2.795   5.541  0.1055 -0.5859  1.2838
  163DOPC  C21619738   1.461   2.654   5.442 -0.3566 -0.1083 -0.3764
  163DOPC  H16R19739   1.361   2.693   5.472  0.2094  1.3579 -0.3243
  163DOPC  H16S19740   1.456   2.543   5.443  2.4380 -0.3024 -1.0691
  163DOPC  C21719741   1.499   2.687   5.297 -0.2638  0.2367  0.7214
  163DOPC  H17R19742   1.604   2.661   5.271 -0.1495  0.1201  1.2963
  163DOPC  H17S19743   1.490   2.795   5.271  1.8568  0.5588  1.0970
  163DOPC  C21819744   1.410   2.608   5.195 -0.0449  0.5538  0.2663
  163DOPC  H18R19745   1.449   2.505   5.180  0.7483  0.5781  1.8827
  163DOPC  H18S19746   1.404   2.667   5.101  1.5475  1.0033  0.4165
  163DOPC  H18T19747   1.306   2.604   5.233 -0.7277  1.5150 -1.4131
  163DOPC   C3319748   1.655   1.792   6.453  0.1257  0.8465 -0.3412
  163DOPC   H3X19749   1.733   1.738   6.395  0.9422  0.3895  1.1300
  163DOPC   H3Y19750   1.691   1.875   6.518  0.7024  1.4250 -1.3879
  163DOPC   C3419751   1.563   1.846   6.338 -0.0661 -0.3519 -0.4163
  163DOPC   H4X19752   1.462   1.865   6.381 -0.4998 -0.6740 -1.2671
  163DOPC   H4Y19753   1.547   1.774   6.255  0.5792 -1.6437  0.5386
  163DOPC   C3519754   1.614   1.987   6.289 -0.1809 -0.0625 -0.5181
  163DOPC   H5X19755   1.630   2.050   6.379  0.2109 -0.5375 -0.2469
  163DOPC   H5Y19756   1.528   2.029   6.233 -1.0436 -1.6757 -0.4871
  163DOPC   C3619757   1.735   1.970   6.190 -0.3809  0.2698  0.1417
  163DOPC   H6X19758   1.795   2.063   6.198 -0.6711  0.4130  0.7571
  163DOPC   H6Y19759   1.800   1.886   6.224 -0.8950 -0.5102 -0.7394
  163DOPC   C3719760   1.687   1.942   6.046 -0.2779  0.3055 -0.0905
  163DOPC   H7X19761   1.611   1.861   6.042 -0.6399  0.6123  0.4327
  163DOPC   H7Y19762   1.644   2.039   6.010 -0.4350  1.4286  2.8821
  163DOPC   C3819763   1.798   1.920   5.952 -0.0103 -0.4265  0.4018
  163DOPC   H8X19764   1.759   1.883   5.855 -4.0023 -0.6885  1.9214
  163DOPC   H8Y19765   1.863   1.831   5.969  3.1252  1.1126 -2.2541
  163DOPC   C3919766   1.889   2.046   5.925  0.5912  0.5412  0.0457
  163DOPC   H9X19767   1.946   2.083   6.011  0.5129 -1.0846  0.8318
  163DOPC  C31019768   1.887   2.125   5.817 -0.2559  0.5647  0.2202
  163DOPC  H10X19769   1.954   2.211   5.802  0.8256 -0.1518  0.8202
  163DOPC  C31119770   1.803   2.092   5.700  0.0408 -0.5673  0.8639
  163DOPC  H11X19771   1.694   2.100   5.719 -0.2652 -1.9811 -0.1721
  163DOPC  H11Y19772   1.822   1.993   5.654 -2.5722 -0.3979 -0.8308
  163DOPC  C31219773   1.822   2.193   5.583 -0.5987  0.7284 -0.2526
  163DOPC  H12X19774   1.927   2.197   5.547  0.2679 -2.3103  1.6243
  163DOPC  H12Y19775   1.782   2.292   5.616 -3.9422 -0.7097  0.4032
  163DOPC  C31319776   1.749   2.145   5.463 -0.0690 -0.2687  0.5203
  163DOPC  H13X19777   1.804   2.069   5.403 -0.9531  1.8356 -3.2806
  163DOPC  H13Y19778   1.660   2.085   5.491 -3.0583  2.3836 -2.4476
  163DOPC  C31419779   1.700   2.256   5.361 -0.0939  0.1153 -0.1387
  163DOPC  H14X19780   1.649   2.332   5.425  2.1009  0.8014  0.9174
  163DOPC  H14Y19781   1.783   2.296   5.299  0.8176  0.0793  1.0264
  163DOPC  C31519782   1.599   2.205   5.259 -0.3554  0.5989 -0.0042
  163DOPC  H15X19783   1.548   2.293   5.215  0.0431  0.8033 -0.0661
  163DOPC  H15Y19784   1.528   2.141   5.316 -1.2240  1.9252  0.4370
  163DOPC  C31619785   1.657   2.110   5.153  0.5060 -0.1413  0.1855
  163DOPC  H16X19786   1.737   2.153   5.090  0.0454 -0.2032 -0.4592
  163DOPC  H16Y19787   1.702   2.021   5.201  0.6487  0.6056  1.4792
  163DOPC  C31719788   1.549   2.074   5.058  0.4919  0.0598  0.1551
  163DOPC  H17X19789   1.466   2.013   5.099  1.1734 -2.5151 -2.0529
  163DOPC  H17Y19790   1.514   2.169   5.013  2.2408 -0.2066 -1.9589
  163DOPC  C31819791   1.606   1.991   4.945 -0.8894  0.3902  0.5006
  163DOPC  H18X19792   1.647   1.896   4.986  0.6280  2.1161  3.3213
  163DOPC  H18Y19793   1.533   1.958   4.868 -0.0640  1.4341 -0.7564
  163DOPC  H18Z19794   1.697   2.039   4.904 -1.0405  0.0493 -0.2496
  164DOPC     N19795   3.106   1.239   7.304 -0.0551 -0.6465 -0.0898
  164DOPC   C1219796   3.054   1.186   7.172  0.7294 -0.0558 -0.5237
  164DOPC  H12A19797   3.123   1.114   7.131  0.1606 -0.0935 -1.4400
  164DOPC  H12B19798   3.067   1.269   7.103  2.9926 -0.3969 -0.5800
  164DOPC   C1319799   3.227   1.315   7.271 -0.5725  0.1800  0.3669
  164DOPC  H13A19800   3.216   1.409   7.219 -2.8424  0.3912  1.1213
  164DOPC  H13B19801   3.274   1.338   7.365 -0.0330 -0.4034  0.2461
  164DOPC  H13C19802   3.297   1.257   7.212 -0.7475 -2.5833  2.6985
  164DOPC   C1419803   3.142   1.128   7.400  0.6529 -0.5097 -0.0104
  164DOPC  H14A19804   3.050   1.085   7.437  0.6550  1.2317  2.3208
  164DOPC  H14B19805   3.201   1.056   7.347  0.3866 -1.4891  0.9822
  164DOPC  H14C19806   3.191   1.162   7.491 -3.0310  1.5587  1.4399
  164DOPC   C1519807   3.013   1.341   7.353  0.0577  0.2131  0.0975
  164DOPC  H15A19808   3.064   1.389   7.435 -0.5434 -0.2928  0.7780
  164DOPC  H15B19809   2.927   1.296   7.400  0.6602 -1.8217 -0.6697
  164DOPC  H15C19810   2.983   1.410   7.276 -0.9832  1.0022  1.1727
  164DOPC   C1119811   2.912   1.128   7.169 -0.1510  0.3105 -0.3405
  164DOPC  H11A19812   2.841   1.210   7.191 -0.8852 -0.7366  1.3721
  164DOPC  H11B19813   2.903   1.095   7.063  2.6632  2.1857 -1.2746
  164DOPC     P19814   2.911   0.868   7.227  0.0849 -0.1169  0.1650
  164DOPC   O1319815   2.824   0.788   7.317 -0.3461 -0.2557  0.1221
  164DOPC   O1419816   3.051   0.828   7.222  0.6636 -0.2310  0.7826
  164DOPC   O1219817   2.900   1.022   7.264 -0.0987  0.1430 -0.2581
  164DOPC   O1119818   2.848   0.868   7.086 -0.2913  0.4481 -0.3664
  164DOPC    C119819   2.714   0.829   7.066 -0.1482  0.0085  0.1912
  164DOPC    HA19820   2.655   0.833   7.160 -0.4010 -0.4206  0.0553
  164DOPC    HB19821   2.720   0.720   7.043  0.9031 -0.7553  3.5252
  164DOPC    C219822   2.646   0.898   6.945  0.1954  0.2120  0.1247
  164DOPC    HS19823   2.552   0.839   6.934  0.9321 -0.9494 -0.2420
  164DOPC   O2119824   2.722   0.899   6.820  0.3059  0.3376  0.0372
  164DOPC   C2119825   2.680   0.803   6.731  0.1275  0.0706 -0.2303
  164DOPC   O2219826   2.599   0.712   6.755  0.3353  0.0197  0.1507
  164DOPC   C2219827   2.761   0.813   6.607  0.2086  0.2707 -0.7186
  164DOPC   H2R19828   2.867   0.819   6.640 -0.6674  1.6221  2.1696
  164DOPC   H2S19829   2.735   0.911   6.561 -0.4331  0.8541  0.8112
  164DOPC    C319830   2.598   1.042   6.993 -0.5700  0.4905  0.3654
  164DOPC    HX19831   2.672   1.102   7.051  0.2504  0.8857 -1.0440
  164DOPC    HY19832   2.519   1.041   7.071 -1.2457 -0.7367 -0.3076
  164DOPC   O3119833   2.564   1.116   6.875 -0.0634  0.4681  0.3806
  164DOPC   C3119834   2.435   1.141   6.843  0.5221 -0.3183  0.1045
  164DOPC   O3219835   2.341   1.102   6.906 -0.3691  0.5619  0.1587
  164DOPC   C3219836   2.431   1.232   6.715  0.7068  0.1100 -0.2285
  164DOPC   H2X19837   2.473   1.327   6.755 -1.8323  0.7637  1.1237
  164DOPC   H2Y19838   2.488   1.168   6.644  0.9172  0.7948 -0.6870
  164DOPC   C2319839   2.740   0.693   6.512  0.0225 -0.4151  0.9354
  164DOPC   H3R19840   2.633   0.691   6.482  0.6309 -3.3241 -1.4724
  164DOPC   H3S19841   2.768   0.589   6.539  1.2540 -0.2640  0.3268
  164DOPC   C2419842   2.828   0.717   6.383 -0.0273  1.2431 -0.2423
  164DOPC   H4R19843   2.934   0.696   6.411 -0.1842 -0.5828 -0.8961
  164DOPC   H4S19844   2.833   0.816   6.334  2.2147  0.2569 -2.2010
  164DOPC   C2519845   2.797   0.622   6.260  0.7460 -0.1127  0.8497
  164DOPC   H5R19846   2.732   0.548   6.310  1.2100 -0.5255  0.8552
  164DOPC   H5S19847   2.894   0.581   6.223 -0.2801 -1.5251 -0.4113
  164DOPC   C2619848   2.708   0.690   6.153 -0.5293 -0.5487 -0.3906
  164DOPC   H6R19849   2.762   0.777   6.109 -2.7764  1.5857  0.7746
  164DOPC   H6S19850   2.615   0.725   6.204 -1.0173 -0.0946 -1.5482
  164DOPC   C2719851   2.670   0.587   6.038 -0.0622  0.4509 -0.6668
  164DOPC   H7R19852   2.602   0.508   6.077 -0.5767  0.9251 -0.5860
  164DOPC   H7S19853   2.772   0.553   6.014 -0.1757 -0.2710 -0.1539
  164DOPC   C2819854   2.597   0.651   5.917  0.0313  0.5830  0.2013
  164DOPC   H8R19855   2.660   0.740   5.897 -0.3082  1.2238  1.7741
  164DOPC   H8S19856   2.496   0.665   5.961 -0.1735 -1.9228  0.6853
  164DOPC   C2919857   2.582   0.566   5.793  0.0359 -0.2903 -0.3663
  164DOPC   H9R19858   2.499   0.495   5.793  0.2891 -0.6183  0.9772
  164DOPC  C21019859   2.653   0.593   5.682 -0.0670  0.2698  0.6593
  164DOPC  H10R19860   2.635   0.535   5.591  2.0243 -0.4766  0.6722
  164DOPC  C21119861   2.776   0.684   5.661  0.6700  0.6035 -0.5675
  164DOPC  H11R19862   2.856   0.625   5.611 -0.8338 -2.0875  0.0198
  164DOPC  H11S19863   2.825   0.716   5.756  0.9608  0.1744 -0.5686
  164DOPC  C21219864   2.739   0.816   5.580 -0.1670  0.9046 -0.3223
  164DOPC  H12R19865   2.821   0.890   5.596 -1.1553  1.8869  0.3415
  164DOPC  H12S19866   2.649   0.850   5.635 -2.0618 -2.5779 -0.9791
  164DOPC  C21319867   2.700   0.790   5.437  0.0930  0.5515 -0.7537
  164DOPC  H13R19868   2.599   0.744   5.435  0.6158 -0.8398  1.5895
  164DOPC  H13S19869   2.782   0.723   5.402  2.0385  2.9032 -1.0132
  164DOPC  C21419870   2.696   0.920   5.354 -0.1692  0.1049  0.7801
  164DOPC  H14R19871   2.787   0.982   5.369  1.0221 -1.4880  0.4356
  164DOPC  H14S19872   2.601   0.976   5.371  0.8682  2.0122  0.5712
  164DOPC  C21519873   2.695   0.892   5.200  0.3498  0.6735 -0.1409
  164DOPC  H15R19874   2.592   0.872   5.163 -0.0057  0.9868  0.6498
  164DOPC  H15S19875   2.747   0.798   5.173 -1.2444 -0.7521  1.4573
  164DOPC  C21619876   2.739   1.014   5.119  0.6618  0.2158 -0.7905
  164DOPC  H16R19877   2.841   1.034   5.158  0.3483 -0.3459  0.3728
  164DOPC  H16S19878   2.666   1.092   5.147  1.6715  0.7575  0.4267
  164DOPC  C21719879   2.736   0.992   4.966  0.0016  0.8726 -0.5749
  164DOPC  H17R19880   2.744   1.094   4.921 -2.4583  1.7249  0.7829
  164DOPC  H17S19881   2.635   0.951   4.948  0.5257  0.0483 -1.8440
  164DOPC  C21819882   2.843   0.897   4.911 -0.2770  0.3665  0.4027
  164DOPC  H18R19883   2.852   0.811   4.980 -1.3058  1.6905  2.2845
  164DOPC  H18S19884   2.940   0.953   4.911 -0.2129  0.2639  0.8132
  164DOPC  H18T19885   2.817   0.856   4.811  0.1923 -1.4769  0.9965
  164DOPC   C3319886   2.291   1.269   6.665 -0.2927  0.4371  0.1089
  164DOPC   H3X19887   2.228   1.325   6.737  0.1644  2.7924 -1.2126
  164DOPC   H3Y19888   2.248   1.170   6.641  4.0237 -1.8902  1.0505
  164DOPC   C3419889   2.277   1.364   6.548 -0.4176 -0.2713 -0.4898
  164DOPC   H4X19890   2.169   1.374   6.527 -0.9458 -0.4905  1.8261
  164DOPC   H4Y19891   2.316   1.301   6.466 -0.9939 -2.3973  0.7869
  164DOPC   C3519892   2.359   1.490   6.578 -0.9113  0.5023  0.4741
  164DOPC   H5X19893   2.466   1.471   6.602 -1.3811  1.2829  3.6105
  164DOPC   H5Y19894   2.324   1.536   6.673  0.3263 -0.4807  1.4561
  164DOPC   C3619895   2.358   1.607   6.474 -0.3973 -0.2835  0.2846
  164DOPC   H6X19896   2.271   1.672   6.497  0.9689  1.5004  0.5995
  164DOPC   H6Y19897   2.457   1.651   6.497  0.7618 -1.0520 -2.6895
  164DOPC   C3719898   2.355   1.558   6.332 -0.1364  0.0932  0.2594
  164DOPC   H7X19899   2.418   1.468   6.317 -0.6623  0.0409 -1.9693
  164DOPC   H7Y19900   2.255   1.509   6.325  1.9669 -4.7432  0.3617
  164DOPC   C3819901   2.393   1.668   6.226 -1.0026  0.6368  0.0164
  164DOPC   H8X19902   2.504   1.678   6.231 -0.8668 -1.0180  0.6596
  164DOPC   H8Y19903   2.353   1.770   6.244  1.9835  2.2096 -1.3720
  164DOPC   C3919904   2.338   1.613   6.095 -0.3722 -0.3900  0.6536
  164DOPC   H9X19905   2.372   1.511   6.073 -0.0867 -0.7446  2.5858
  164DOPC  C31019906   2.247   1.672   6.014  0.8015  0.0093 -0.2785
  164DOPC  H10X19907   2.205   1.617   5.928  2.5807 -1.6384 -0.1619
  164DOPC  C31119908   2.196   1.813   6.019  0.5663  0.0812  0.2601
  164DOPC  H11X19909   2.178   1.834   6.127  0.9228 -2.3055  0.8447
  164DOPC  H11Y19910   2.101   1.818   5.962  1.0228  1.5996 -0.4195
  164DOPC  C31219911   2.286   1.919   5.952 -0.0841 -0.2099 -0.2270
  164DOPC  H12X19912   2.386   1.929   5.999 -0.5095 -1.9026  1.1587
  164DOPC  H12Y19913   2.232   2.015   5.967 -1.0130 -0.6624 -0.5850
  164DOPC  C31319914   2.310   1.898   5.804  0.4911 -0.5264 -0.1600
  164DOPC  H13X19915   2.407   1.946   5.777  0.4536  1.0614  2.2060
  164DOPC  H13Y19916   2.321   1.791   5.779 -0.7597 -0.3627 -1.5233
  164DOPC  C31419917   2.199   1.967   5.717 -0.3844 -0.4861 -0.5061
  164DOPC  H14X19918   2.196   2.073   5.751  1.6860 -0.4521 -0.2801
  164DOPC  H14Y19919   2.098   1.930   5.743 -1.5301  1.8938 -1.3178
  164DOPC  C31519920   2.220   1.952   5.566 -0.5679  0.1142 -0.2511
  164DOPC  H15X19921   2.125   1.948   5.508 -0.7222  1.1191 -0.0808
  164DOPC  H15Y19922   2.272   1.854   5.560  1.6041  1.1965 -0.0478
  164DOPC  C31619923   2.326   2.046   5.504 -0.4926 -0.1172  0.0407
  164DOPC  H16X19924   2.327   2.134   5.572  2.0354 -2.0768  2.7916
  164DOPC  H16Y19925   2.427   2.002   5.503 -0.9576 -1.2602 -1.6070
  164DOPC  C31719926   2.290   2.096   5.363  0.5245  0.0253  0.3044
  164DOPC  H17X19927   2.180   2.114   5.353  0.1941 -1.4345  0.9941
  164DOPC  H17Y19928   2.343   2.193   5.356  1.3788 -0.1275  3.3026
  164DOPC  C31819929   2.334   2.013   5.242  0.0579  1.0236 -0.5106
  164DOPC  H18X19930   2.443   1.992   5.249 -0.5483 -2.1754  1.4210
  164DOPC  H18Y19931   2.279   1.916   5.241  0.3318  0.7515 -4.5554
  164DOPC  H18Z19932   2.312   2.058   5.143  1.3971  0.2063 -1.2175
  165DOPC     N19933   6.598   1.619   6.962  0.0364  0.1348  0.4435
  165DOPC   C1219934   6.532   1.679   6.843 -0.4301 -0.7371 -0.1634
  165DOPC  H12A19935   6.589   1.769   6.822  1.0470 -1.4536  0.5684
  165DOPC  H12B19936   6.435   1.716   6.873  0.1502 -1.1522  2.5259
  165DOPC   C1319937   6.740   1.585   6.929 -0.2788 -0.8959 -0.5771
  165DOPC  H13A19938   6.740   1.515   6.847 -1.3885  0.1566 -1.5215
  165DOPC  H13B19939   6.797   1.671   6.895  1.3916 -1.5814  0.3807
  165DOPC  H13C19940   6.790   1.536   7.010 -1.9170 -0.1078  0.9771
  165DOPC   C1419941   6.527   1.503   7.011  0.3182  0.3680  0.0559
  165DOPC  H14A19942   6.565   1.453   7.099  0.4248 -0.3634 -0.4026
  165DOPC  H14B19943   6.431   1.531   7.052  0.7403 -0.4568  1.7026
  165DOPC  H14C19944   6.511   1.431   6.932 -0.8455  0.1368  0.4788
  165DOPC   C1519945   6.594   1.721   7.069  0.2330  0.2258  0.1506
  165DOPC  H15A19946   6.628   1.674   7.160  0.6692  0.7772  0.2780
  165DOPC  H15B19947   6.494   1.757   7.088  1.1397  2.3985  1.1793
  165DOPC  H15C19948   6.659   1.806   7.061  0.2581  0.0623 -1.7825
  165DOPC   C1119949   6.518   1.602   6.707 -0.1108 -1.1989 -0.9483
  165DOPC  H11A19950   6.463   1.669   6.638  0.3424  0.7187  0.4794
  165DOPC  H11B19951   6.617   1.584   6.659  0.4974  4.6380 -2.7010
  165DOPC     P19952   6.485   1.343   6.696 -0.3751  0.3239 -0.2285
  165DOPC   O1319953   6.365   1.251   6.676 -0.8044 -0.4878 -1.1692
  165DOPC   O1419954   6.578   1.296   6.806  0.5647 -0.5495  0.2733
  165DOPC   O1219955   6.430   1.492   6.729  0.0893  0.2855  0.1486
  165DOPC   O1119956   6.569   1.364   6.567 -0.2791  0.0105  0.2245
  165DOPC    C119957   6.507   1.385   6.447 -0.3861  0.7190  0.0122
  165DOPC    HA19958   6.437   1.470   6.459 -0.7417  0.4778 -0.3411
  165DOPC    HB19959   6.446   1.299   6.412 -0.2706  0.4410  0.4799
  165DOPC    C219960   6.616   1.418   6.343  0.0536  0.1871  0.4551
  165DOPC    HS19961   6.666   1.514   6.368  1.1254  0.2458 -1.6758
  165DOPC   O2119962   6.548   1.414   6.215  0.4280  0.3339 -0.1701
  165DOPC   C2119963   6.464   1.515   6.186 -0.1669  0.8623 -0.1116
  165DOPC   O2219964   6.443   1.614   6.249 -0.1709 -1.0720 -0.5572
  165DOPC   C2219965   6.398   1.497   6.053 -0.7246 -0.1127 -0.0431
  165DOPC   H2R19966   6.369   1.390   6.039  1.7246 -0.7374 -0.7886
  165DOPC   H2S19967   6.473   1.524   5.976 -0.3997  0.3094  0.4188
  165DOPC    C319968   6.734   1.307   6.349  0.3539 -0.1744  0.3157
  165DOPC    HX19969   6.686   1.212   6.317  0.6242  0.3827 -1.8669
  165DOPC    HY19970   6.764   1.287   6.454 -0.8065  0.1516  0.7293
  165DOPC   O3119971   6.842   1.329   6.258  0.7299  0.3320 -0.0781
  165DOPC   C3119972   6.939   1.406   6.312  0.5815  0.0575 -0.2166
  165DOPC   O3219973   6.929   1.463   6.418 -0.2798 -0.3885  0.4443
  165DOPC   C3219974   7.056   1.423   6.212 -0.3804 -0.5796 -0.2227
  165DOPC   H2X19975   7.132   1.350   6.246 -1.7821 -2.5515 -1.1143
  165DOPC   H2Y19976   7.016   1.423   6.109 -0.1352  1.9743 -0.3810
  165DOPC   C2319977   6.265   1.572   6.039  0.1157 -0.0930 -0.9276
  165DOPC   H3R19978   6.278   1.675   6.078 -1.4275  0.4173 -1.6923
  165DOPC   H3S19979   6.181   1.541   6.104  0.5314  2.0201  0.7412
  165DOPC   C2419980   6.234   1.591   5.889  0.4197 -0.2996 -0.1961
  165DOPC   H4R19981   6.227   1.489   5.844 -2.3900 -0.5714  0.6758
  165DOPC   H4S19982   6.311   1.651   5.836  0.4969  0.7829  1.1021
  165DOPC   C2519983   6.097   1.662   5.865  0.3178  0.1657  0.8033
  165DOPC   H5R19984   6.104   1.695   5.759 -0.2502 -0.3359  0.6045
  165DOPC   H5S19985   6.085   1.755   5.924 -0.1008  0.8954 -0.3766
  165DOPC   C2619986   5.974   1.572   5.880  0.4187 -0.4311 -0.2727
  165DOPC   H6R19987   5.965   1.543   5.986  3.3978 -0.5388  0.0422
  165DOPC   H6S19988   5.992   1.482   5.817  0.7903 -0.5574  0.0111
  165DOPC   C2719989   5.843   1.634   5.823 -0.1639 -0.1782 -0.6854
  165DOPC   H7R19990   5.862   1.699   5.735  0.5671  2.5677  1.3370
  165DOPC   H7S19991   5.806   1.703   5.902  1.9563  1.1208 -0.7488
  165DOPC   C2819992   5.738   1.529   5.786 -0.2009 -0.1092  0.2151
  165DOPC   H8R19993   5.705   1.460   5.866 -0.1394 -1.8755 -1.2263
  165DOPC   H8S19994   5.778   1.464   5.705 -0.0785  0.0907  0.1141
  165DOPC   C2919995   5.615   1.602   5.757  0.1856 -0.1236 -0.3112
  165DOPC   H9R19996   5.574   1.643   5.851  1.9355  0.4048  0.2488
  165DOPC  C21019997   5.569   1.640   5.641  0.1075 -0.1143  0.3593
  165DOPC  H10R19998   5.465   1.677   5.637  0.0224 -0.3269  0.5621
  165DOPC  C21119999   5.623   1.607   5.513 -0.5438  0.6040  0.8317
  165DOPC  H11R20000   5.712   1.542   5.526  0.2542  1.4990 -0.0123
  165DOPC  H11S20001   5.655   1.699   5.460 -2.3343  1.2283  0.7551
  165DOPC  C21220002   5.533   1.519   5.422  0.4691  0.0739  0.3068
  165DOPC  H12R20003   5.504   1.433   5.487 -0.2495  0.1929  0.1595
  165DOPC  H12S20004   5.594   1.480   5.338 -0.7376 -0.8050 -0.2022
  165DOPC  C21320005   5.402   1.578   5.364 -0.2354 -0.1842 -0.3620
  165DOPC  H13R20006   5.423   1.679   5.325 -0.7806  0.4275  0.8740
  165DOPC  H13S20007   5.325   1.593   5.443  0.6346  1.5712  0.2067
  165DOPC  C21420008   5.340   1.488   5.255 -0.2814 -0.2663  0.3847
  165DOPC  H14R20009   5.233   1.515   5.246 -0.3103 -0.7763 -1.1645
  165DOPC  H14S20010   5.356   1.383   5.287 -1.6288  0.2204  2.8635
  165DOPC  C21520011   5.384   1.515   5.118 -0.2968 -0.5211  0.3126
  165DOPC  H15R20012   5.495   1.512   5.109 -0.2110  0.9335  0.6119
  165DOPC  H15S20013   5.355   1.615   5.080  4.0900  0.7250 -0.3046
  165DOPC  C21620014   5.336   1.417   5.014 -0.1179  0.0311 -0.1691
  165DOPC  H16R20015   5.230   1.422   4.982 -0.3850 -2.6312  0.0784
  165DOPC  H16S20016   5.349   1.317   5.060  0.5969 -0.1468 -0.7284
  165DOPC  C21720017   5.427   1.427   4.893 -0.5671 -0.1623  0.6301
  165DOPC  H17R20018   5.532   1.407   4.924 -1.0471 -1.5273  1.4229
  165DOPC  H17S20019   5.422   1.526   4.842 -0.8319 -0.3380  0.3161
  165DOPC  C21820020   5.398   1.319   4.787  0.2364 -0.3986 -0.7013
  165DOPC  H18R20021   5.399   1.220   4.836  2.8961 -0.2152 -0.2027
  165DOPC  H18S20022   5.471   1.330   4.704 -0.1872  0.2950 -0.9864
  165DOPC  H18T20023   5.297   1.334   4.743 -0.4590 -1.2375  0.5422
  165DOPC   C3320024   7.121   1.566   6.235  0.1000 -0.1449  0.5079
  165DOPC   H3X20025   7.120   1.586   6.344 -1.5978 -2.2576  0.9456
  165DOPC   H3Y20026   7.047   1.629   6.182  1.2610  0.5596 -0.3270
  165DOPC   C3420027   7.263   1.571   6.171  0.2882  0.1084  0.3995
  165DOPC   H4X20028   7.342   1.518   6.229  1.5765  1.2530 -0.2527
  165DOPC   H4Y20029   7.299   1.673   6.200 -1.2033  0.2595  1.9007
  165DOPC   C3520030   7.265   1.548   6.019  0.6790  0.0330  0.2980
  165DOPC   H5X20031   7.173   1.594   5.977  0.7928 -0.6812 -0.7595
  165DOPC   H5Y20032   7.249   1.443   5.986 -3.0760  0.4127  0.5067
  165DOPC   C3620033   7.391   1.606   5.970  0.3335  0.4010  0.0888
  165DOPC   H6X20034   7.403   1.715   5.989 -0.9022  0.8824 -1.6294
  165DOPC   H6Y20035   7.474   1.551   6.019  0.8109  1.3009  0.3137
  165DOPC   C3720036   7.420   1.589   5.821 -0.4605 -0.1136  0.5777
  165DOPC   H7X20037   7.422   1.480   5.799 -1.6867  0.2785 -1.8665
  165DOPC   H7Y20038   7.520   1.634   5.806 -0.2916 -0.9556 -0.9913
  165DOPC   C3820039   7.322   1.662   5.727  0.0339  0.0324  0.5015
  165DOPC   H8X20040   7.308   1.770   5.745  0.2942  0.4442 -1.5369
  165DOPC   H8Y20041   7.225   1.611   5.745  0.7056 -2.2932 -1.7763
  165DOPC   C3920042   7.368   1.620   5.589 -0.2276 -0.4358  0.2423
  165DOPC   H9X20043   7.398   1.515   5.579  1.3537  0.0251 -0.1700
  165DOPC  C31020044   7.370   1.695   5.478 -0.2214  0.6595 -1.0701
  165DOPC  H10X20045   7.389   1.649   5.380 -0.9348  4.5319 -3.2744
  165DOPC  C31120046   7.325   1.838   5.474 -1.0260 -0.0449  0.0127
  165DOPC  H11X20047   7.417   1.899   5.459 -0.3327 -0.8247  0.9995
  165DOPC  H11Y20048   7.273   1.861   5.569  1.9693 -1.7621  2.2313
  165DOPC  C31220049   7.229   1.863   5.361  0.0640 -0.4066 -0.0949
  165DOPC  H12X20050   7.195   1.969   5.355 -1.7817 -1.0175 -0.9024
  165DOPC  H12Y20051   7.141   1.797   5.351 -0.4673  0.2725  0.0308
  165DOPC  C31320052   7.300   1.858   5.224 -0.4519 -0.8293  1.1164
  165DOPC  H13X20053   7.333   1.754   5.204 -2.6664 -1.7535  1.9874
  165DOPC  H13Y20054   7.234   1.885   5.138  0.3593  0.8963  0.9904
  165DOPC  C31420055   7.431   1.951   5.196  0.1263 -0.1102  0.0671
  165DOPC  H14X20056   7.385   2.052   5.190 -1.7759 -0.9128  0.2972
  165DOPC  H14Y20057   7.499   1.944   5.284 -0.3893  0.7826  0.5521
  165DOPC  C31520058   7.511   1.907   5.075 -0.0001  0.4421  0.2421
  165DOPC  H15X20059   7.562   1.811   5.094  1.2979  1.4172  1.9514
  165DOPC  H15Y20060   7.588   1.987   5.068  0.1665  0.5841  2.7432
  165DOPC  C31620061   7.430   1.902   4.954  0.3583 -0.2543  0.0295
  165DOPC  H16X20062   7.367   1.811   4.941 -0.5488  0.4948 -1.0710
  165DOPC  H16Y20063   7.365   1.992   4.958  0.3751 -0.2575  0.3759
  165DOPC  C31720064   7.524   1.893   4.833  0.5271  1.0052 -0.0944
  165DOPC  H17X20065   7.562   1.995   4.810  2.0162  0.2455 -1.1378
  165DOPC  H17Y20066   7.611   1.836   4.871 -0.9010 -1.1029  0.2138
  165DOPC  C31820067   7.465   1.817   4.712  0.1276 -0.2009 -0.0382
  165DOPC  H18X20068   7.355   1.807   4.707  0.1680 -1.3907  0.9792
  165DOPC  H18Y20069   7.504   1.872   4.624 -0.8127 -0.1636 -0.4368
  165DOPC  H18Z20070   7.518   1.719   4.724  0.5629  0.1850  1.4163
  166DOPC     N20071   6.222   3.061   7.101 -0.5499  0.1251 -0.1544
  166DOPC   C1220072   6.218   2.968   6.981 -0.2112 -0.4227 -0.1252
  166DOPC  H12A20073   6.159   3.007   6.900  0.0288 -1.7004 -0.9523
  166DOPC  H12B20074   6.170   2.878   7.017  2.5209 -0.9018  2.8901
  166DOPC   C1320075   6.088   3.099   7.142 -0.4263 -0.1237 -0.2154
  166DOPC  H13A20076   6.035   3.155   7.067 -0.6059 -0.9330 -0.7046
  166DOPC  H13B20077   6.025   3.020   7.182 -1.3939  1.2563  1.0830
  166DOPC  H13C20078   6.101   3.162   7.229 -1.7806 -0.6872  0.4346
  166DOPC   C1420079   6.295   3.193   7.070 -0.3300  0.1674  0.0666
  166DOPC  H14A20080   6.398   3.183   7.099 -0.2381  1.6879  0.3120
  166DOPC  H14B20081   6.282   3.203   6.963 -2.0242 -2.0972 -0.0229
  166DOPC  H14C20082   6.247   3.278   7.116 -0.5065  1.4097 -2.2372
  166DOPC   C1520083   6.291   3.003   7.219  0.0854  0.2269  0.3016
  166DOPC  H15A20084   6.388   2.964   7.192 -1.1326 -2.3092 -0.6723
  166DOPC  H15B20085   6.234   2.924   7.266  0.0145 -0.0856 -0.3039
  166DOPC  H15C20086   6.291   3.083   7.292  0.2006 -1.3308  2.0936
  166DOPC   C1120087   6.363   2.928   6.928  0.1923 -0.2567  0.4434
  166DOPC  H11A20088   6.415   2.879   7.013  1.0841  0.1577  0.1547
  166DOPC  H11B20089   6.342   2.862   6.842  2.4318  0.7401 -0.9512
  166DOPC     P20090   6.599   3.030   6.858 -0.1459 -0.3140 -0.7261
  166DOPC   O1320091   6.664   3.004   6.986  0.4983  0.1280 -0.0460
  166DOPC   O1420092   6.647   3.144   6.776  0.2464 -0.2676  0.4600
  166DOPC   O1220093   6.443   3.044   6.890  0.2869  0.6627 -0.2120
  166DOPC   O1120094   6.595   2.894   6.776  0.3268  0.2028 -0.1682
  166DOPC    C120095   6.556   2.884   6.637 -0.2845  0.0294 -0.0478
  166DOPC    HA20096   6.460   2.937   6.617  0.8820  3.1567  1.9157
  166DOPC    HB20097   6.532   2.779   6.608  2.2777 -0.2390 -1.4485
  166DOPC    C220098   6.667   2.938   6.540 -0.3582  0.0387 -0.4258
  166DOPC    HS20099   6.687   3.042   6.572 -2.2413  0.8186 -1.6207
  166DOPC   O2120100   6.623   2.929   6.404 -0.0864  0.3899 -0.1882
  166DOPC   C2120101   6.558   3.037   6.352 -0.6485 -0.4008 -0.2993
  166DOPC   O2220102   6.534   3.141   6.414  0.0423  0.2627 -0.0630
  166DOPC   C2220103   6.526   3.025   6.204  0.5998  0.3485  1.0985
  166DOPC   H2R20104   6.426   3.066   6.181  0.4884  0.5095  1.8709
  166DOPC   H2S20105   6.535   2.916   6.182  2.5874  0.5544  0.6146
  166DOPC    C320106   6.798   2.859   6.564  0.3257  0.3026  0.1017
  166DOPC    HX20107   6.783   2.753   6.536  2.4234 -0.0295  0.0440
  166DOPC    HY20108   6.820   2.849   6.673  0.4109  1.1097  0.1642
  166DOPC   O3120109   6.908   2.923   6.493 -0.6720  0.0296  0.1817
  166DOPC   C3120110   7.008   2.967   6.560 -0.6518 -0.1764 -0.7647
  166DOPC   O3220111   7.010   2.988   6.683  0.8562 -0.2520 -0.1912
  166DOPC   C3220112   7.131   2.997   6.472  0.2564 -0.3155  0.5148
  166DOPC   H2X20113   7.089   3.055   6.387  0.0045 -0.4042  0.5773
  166DOPC   H2Y20114   7.199   3.067   6.525 -0.3847  1.3362 -0.7593
  166DOPC   C2320115   6.627   3.110   6.123  1.1118 -0.1906 -0.2999
  166DOPC   H3R20116   6.666   3.202   6.171 -2.2077  1.0481  0.3165
  166DOPC   H3S20117   6.584   3.160   6.034 -0.6641 -0.3104  0.4456
  166DOPC   C2420118   6.745   3.024   6.079  0.1176  0.0036 -0.2717
  166DOPC   H4R20119   6.697   2.934   6.035 -0.1140 -1.7389  3.2428
  166DOPC   H4S20120   6.808   2.992   6.164  1.0865  0.3664 -0.8267
  166DOPC   C2520121   6.847   3.086   5.981 -0.1982 -0.3772  0.0588
  166DOPC   H5R20122   6.909   3.009   5.931  0.4872  0.7301 -0.8542
  166DOPC   H5S20123   6.919   3.149   6.037 -1.8285  1.1506  0.5140
  166DOPC   C2620124   6.783   3.176   5.867 -0.0853  0.4756  0.2063
  166DOPC   H6R20125   6.855   3.230   5.801  0.1434 -0.1467 -0.0685
  166DOPC   H6S20126   6.731   3.262   5.914 -0.0356 -0.3167  1.7638
  166DOPC   C2720127   6.679   3.104   5.778  0.1447  1.0850 -1.1314
  166DOPC   H7R20128   6.646   3.171   5.696 -3.0055  0.7716 -0.2315
  166DOPC   H7S20129   6.597   3.075   5.847  0.9289 -1.2326 -1.0917
  166DOPC   C2820130   6.730   2.973   5.714  0.1398 -0.5035  0.2546
  166DOPC   H8R20131   6.763   2.910   5.800  2.8213  2.1125  1.3419
  166DOPC   H8S20132   6.821   2.997   5.654  0.5023  1.8221  1.6380
  166DOPC   C2920133   6.633   2.911   5.607 -0.3863  0.3737 -0.2091
  166DOPC   H9R20134   6.608   2.971   5.518 -0.9707  1.9709  0.9770
  166DOPC  C21020135   6.542   2.814   5.630 -0.1087 -0.2852 -0.6593
  166DOPC  H10R20136   6.461   2.787   5.560 -1.8371  0.7065  0.8485
  166DOPC  C21120137   6.517   2.747   5.770  0.2049 -0.4437  0.0254
  166DOPC  H11R20138   6.610   2.743   5.830  0.3502 -0.6024 -0.2122
  166DOPC  H11S20139   6.485   2.641   5.773  0.5503 -0.5627 -0.4603
  166DOPC  C21220140   6.400   2.824   5.835  0.1568  0.0144 -0.0734
  166DOPC  H12R20141   6.312   2.808   5.769  0.0166 -0.0975  0.1402
  166DOPC  H12S20142   6.432   2.930   5.825  0.0923 -0.0211 -0.7120
  166DOPC  C21320143   6.369   2.783   5.980  0.2208 -1.0400  0.1858
  166DOPC  H13R20144   6.459   2.792   6.044  0.7963 -0.4386 -0.6856
  166DOPC  H13S20145   6.341   2.675   5.979 -2.2025 -0.4845 -1.3206
  166DOPC  C21420146   6.251   2.859   6.045  0.2183  0.9076 -0.4809
  166DOPC  H14R20147   6.157   2.849   5.986 -0.1143 -1.0072  0.3138
  166DOPC  H14S20148   6.264   2.969   6.050 -0.3558  0.9315  0.9007
  166DOPC  C21520149   6.228   2.820   6.195 -0.4610  0.2825  0.0970
  166DOPC  H15R20150   6.326   2.826   6.247 -0.5161  1.6662  0.0674
  166DOPC  H15S20151   6.181   2.720   6.206 -1.8170  1.0215  1.3334
  166DOPC  C21620152   6.141   2.926   6.262 -0.3084 -0.0985  0.1041
  166DOPC  H16R20153   6.042   2.932   6.212 -0.5737  1.7464  0.7797
  166DOPC  H16S20154   6.179   3.028   6.243  0.0318 -0.1883  0.2913
  166DOPC  C21720155   6.110   2.904   6.413 -0.1116 -0.5029 -0.4077
  166DOPC  H17R20156   6.027   2.971   6.443  1.4567  0.1314  3.0859
  166DOPC  H17S20157   6.197   2.941   6.472  0.5742  1.3495 -2.4463
  166DOPC  C21820158   6.078   2.763   6.453  0.2275 -0.3882  0.1203
  166DOPC  H18R20159   6.024   2.726   6.364  0.6462 -0.9434  0.0913
  166DOPC  H18S20160   6.002   2.756   6.533  0.5389  0.4788  0.5061
  166DOPC  H18T20161   6.170   2.707   6.484  0.1358  0.7704  2.8051
  166DOPC   C3320162   7.204   2.872   6.416 -0.3109  0.0225  0.4311
  166DOPC   H3X20163   7.128   2.803   6.373 -1.7346  0.7781  1.6310
  166DOPC   H3Y20164   7.269   2.819   6.489  0.0759 -0.9337 -0.5765
  166DOPC   C3420165   7.297   2.911   6.304 -0.4709 -0.4838  0.0211
  166DOPC   H4X20166   7.381   2.837   6.299  0.5977  0.5738  1.4085
  166DOPC   H4Y20167   7.344   3.007   6.334 -1.9381 -0.0298  0.9603
  166DOPC   C3520168   7.242   2.917   6.158 -0.1432 -0.0102 -0.5996
  166DOPC   H5X20169   7.161   2.991   6.148  2.2275  3.1100  1.2715
  166DOPC   H5Y20170   7.198   2.821   6.126 -1.2428 -0.0247  0.8480
  166DOPC   C3620171   7.359   2.946   6.056 -0.0870 -0.2881 -0.0044
  166DOPC   H6X20172   7.378   3.056   6.059  1.5589 -0.4840 -1.7283
  166DOPC   H6Y20173   7.450   2.893   6.089  1.6128  2.0818 -0.6269
  166DOPC   C3720174   7.331   2.901   5.911 -0.5889  0.5550 -0.0962
  166DOPC   H7X20175   7.408   2.944   5.844 -1.0755 -0.3208 -1.2576
  166DOPC   H7Y20176   7.331   2.790   5.909  0.8385  0.3770  3.2249
  166DOPC   C3820177   7.192   2.942   5.853  0.5289  0.2047 -0.2755
  166DOPC   H8X20178   7.183   3.049   5.880 -1.3788 -0.0645  0.2800
  166DOPC   H8Y20179   7.118   2.888   5.916  0.4648 -0.6697 -1.0733
  166DOPC   C3920180   7.174   2.903   5.708 -0.4362 -0.2821  0.4144
  166DOPC   H9X20181   7.155   2.796   5.691 -3.0161  0.3135 -0.8690
  166DOPC  C31020182   7.178   2.991   5.601 -0.7956 -1.4493  0.3159
  166DOPC  H10X20183   7.148   2.959   5.500  0.0414  2.6962 -1.4414
  166DOPC  C31120184   7.177   3.143   5.620  0.2088 -0.1395  0.1011
  166DOPC  H11X20185   7.268   3.199   5.591 -0.0913  0.7184  0.7735
  166DOPC  H11Y20186   7.161   3.172   5.726  1.1971  1.7491 -0.2171
  166DOPC  C31220187   7.065   3.195   5.528 -0.0151 -0.4343  0.3261
  166DOPC  H12X20188   6.967   3.149   5.554 -0.2136 -1.5250 -2.0573
  166DOPC  H12Y20189   7.102   3.164   5.428 -0.7294  0.5280 -0.2628
  166DOPC  C31320190   7.072   3.355   5.523 -0.2127  0.2330 -0.7009
  166DOPC  H13X20191   7.061   3.390   5.628 -1.0145 -1.8258 -0.0530
  166DOPC  H13Y20192   7.174   3.382   5.489  1.0445 -1.4623  1.4823
  166DOPC  C31420193   6.955   3.418   5.435  0.3873 -0.0810  0.6044
  166DOPC  H14X20194   6.944   3.353   5.345 -2.1821  0.3084  0.5534
  166DOPC  H14Y20195   6.858   3.413   5.488  0.2279 -1.0981  0.2386
  166DOPC  C31520196   6.999   3.557   5.390 -0.5071 -0.0503  0.0834
  166DOPC  H15X20197   7.097   3.556   5.337  1.2696 -1.6591  3.0844
  166DOPC  H15Y20198   7.003   3.618   5.483 -0.6206  0.7892 -0.4554
  166DOPC  C31620199   6.898   3.615   5.294 -0.3801 -0.3211  0.6728
  166DOPC  H16X20200   6.903   3.555   5.200 -3.0595  1.6650 -0.8674
  166DOPC  H16Y20201   6.798   3.614   5.343 -0.4520 -0.5443  0.5241
  166DOPC  C31720202   6.936   3.764   5.254 -0.2481  0.0927  0.1406
  166DOPC  H17X20203   7.043   3.775   5.228 -1.2793  3.0332 -3.7623
  166DOPC  H17Y20204   6.872   3.795   5.169 -3.3849 -0.3535  2.1583
  166DOPC  C31820205   6.896   3.857   5.367 -0.3841 -0.7618  0.6517
  166DOPC  H18X20206   6.945   3.844   5.466 -0.7608  0.7900  1.0647
  166DOPC  H18Y20207   6.930   3.958   5.337  0.1063 -0.3162  2.5439
  166DOPC  H18Z20208   6.789   3.847   5.397 -1.1700 -0.0506 -1.6846
  167DOPC     N20209   0.054   1.579   7.237  0.0263  0.2893 -0.0773
  167DOPC   C1220210   0.078   1.445   7.176 -0.0207  0.8266  0.1732
  167DOPC  H12A20211   0.142   1.380   7.234 -1.1620  0.8282  1.4701
  167DOPC  H12B20212   0.133   1.459   7.084 -0.6264  2.7585  0.0658
  167DOPC   C1320213   0.189   1.637   7.259  0.4355 -0.5471 -0.2780
  167DOPC  H13A20214   0.168   1.736   7.297 -0.7067 -0.6125 -0.6911
  167DOPC  H13B20215   0.242   1.587   7.339  0.3878  1.5775  1.1654
  167DOPC  H13C20216   0.246   1.658   7.170 -3.2221 -1.2062 -2.9824
  167DOPC   C1420217  -0.022   1.567   7.367  0.4964 -0.3450 -0.2121
  167DOPC  H14A20218  -0.119   1.527   7.341 -0.6066  2.0301 -0.0215
  167DOPC  H14B20219   0.035   1.505   7.435  0.0438  1.1546  1.6221
  167DOPC  H14C20220  -0.049   1.660   7.416 -1.0082 -1.6757  1.6364
  167DOPC   C1520221  -0.030   1.669   7.150 -0.0689  0.1140  0.0891
  167DOPC  H15A20222  -0.117   1.621   7.107  0.7976 -1.0979 -0.3524
  167DOPC  H15B20223   0.030   1.714   7.073 -1.0671  2.8781  0.7998
  167DOPC  H15C20224  -0.074   1.755   7.199 -0.0714 -0.0636  0.4021
  167DOPC   C1120225  -0.046   1.357   7.152 -1.0441  0.5445  0.1058
  167DOPC  H11A20226  -0.012   1.262   7.106 -1.9387  0.5736 -0.6543
  167DOPC  H11B20227  -0.085   1.333   7.253 -0.4713  1.3156  0.5260
  167DOPC     P20228  -0.219   1.353   6.961  0.3664 -0.2256 -0.3301
  167DOPC   O1320229  -0.289   1.463   6.894  0.2204  0.1056 -0.3892
  167DOPC   O1420230  -0.305   1.244   7.017 -0.2352 -0.5008 -0.6401
  167DOPC   O1220231  -0.144   1.426   7.076  0.1931 -0.0052 -0.2550
  167DOPC   O1120232  -0.100   1.300   6.876  0.3182  0.5636  0.2126
  167DOPC    C120233  -0.015   1.398   6.824 -0.1601 -0.1070  0.3481
  167DOPC    HA20234   0.089   1.363   6.843 -0.5074 -0.0681  2.5168
  167DOPC    HB20235  -0.025   1.499   6.867 -4.2449  1.7088 -3.9571
  167DOPC    C220236  -0.035   1.403   6.660 -0.6492  0.2177 -0.3762
  167DOPC    HS20237   0.063   1.431   6.616 -1.5038  1.3816 -1.6247
  167DOPC   O2120238  -0.141   1.492   6.623 -0.4939 -0.2258  0.0483
  167DOPC   C2120239  -0.104   1.617   6.631  0.1672  0.8150 -0.4446
  167DOPC   O2220240   0.006   1.661   6.661 -0.8656  0.3518  0.1567
  167DOPC   C2220241  -0.222   1.695   6.600  0.7532 -0.1599  0.1247
  167DOPC   H2R20242  -0.297   1.663   6.675  0.4939  1.1706  0.4490
  167DOPC   H2S20243  -0.260   1.660   6.501  2.0376 -1.5571  0.0857
  167DOPC    C320244  -0.071   1.263   6.604 -0.0534 -0.0893 -0.3470
  167DOPC    HX20245  -0.175   1.239   6.636  0.9685 -2.6596  1.3567
  167DOPC    HY20246  -0.004   1.188   6.650 -1.1464 -0.0815  1.3631
  167DOPC   O3120247  -0.055   1.259   6.464  0.0172 -0.0665 -0.1338
  167DOPC   C3120248  -0.157   1.277   6.386 -0.1126 -0.2300 -0.3548
  167DOPC   O3220249  -0.270   1.298   6.433  0.8930 -0.2063 -0.6174
  167DOPC   C3220250  -0.121   1.269   6.239  0.0238 -0.6362 -0.3465
  167DOPC   H2X20251  -0.099   1.372   6.204  1.4997 -0.7275  0.2558
  167DOPC   H2Y20252  -0.034   1.200   6.237  1.7826  1.5067 -2.2433
  167DOPC   C2320253  -0.194   1.844   6.615  0.3766  0.0497 -0.4471
  167DOPC   H3R20254  -0.139   1.878   6.524 -1.5795 -1.5637 -2.3595
  167DOPC   H3S20255  -0.138   1.878   6.705  0.8107 -0.5978 -0.4697
  167DOPC   C2420256  -0.325   1.933   6.603 -0.2808  0.5935  0.2930
  167DOPC   H4R20257  -0.283   2.036   6.612 -1.0870  1.0097 -0.5318
  167DOPC   H4S20258  -0.396   1.909   6.685 -2.4970  0.9147 -1.4201
  167DOPC   C2520259  -0.411   1.918   6.479 -0.0909  0.3042 -0.1907
  167DOPC   H5R20260  -0.496   1.989   6.492  0.3790  0.7285  0.6201
  167DOPC   H5S20261  -0.448   1.815   6.457  0.9159 -0.0874 -0.0934
  167DOPC   C2620262  -0.348   1.954   6.344  0.1712 -0.1558 -0.2185
  167DOPC   H6R20263  -0.259   1.891   6.324  0.1517  0.0108 -0.8661
  167DOPC   H6S20264  -0.316   2.060   6.351  1.8528 -0.5233 -1.5972
  167DOPC   C2720265  -0.452   1.938   6.235 -0.0452  0.4332  0.1275
  167DOPC   H7R20266  -0.540   2.002   6.260  0.4208  0.4650  1.8322
  167DOPC   H7S20267  -0.501   1.839   6.246 -1.2427  1.1798  2.1695
  167DOPC   C2820268  -0.381   1.960   6.099  0.0455 -0.3664 -0.0485
  167DOPC   H8R20269  -0.432   1.910   6.013  3.1247 -1.6518 -1.2552
  167DOPC   H8S20270  -0.279   1.918   6.107 -0.6235 -2.3155 -1.2308
  167DOPC   C2920271  -0.369   2.112   6.071  0.2259  0.0343  0.3661
  167DOPC   H9R20272  -0.414   2.181   6.145  0.0890 -1.0258  1.2924
  167DOPC  C21020273  -0.345   2.163   5.948  0.0874  0.3683 -0.0838
  167DOPC  H10R20274  -0.351   2.268   5.916  1.1015 -0.0556 -1.7620
  167DOPC  C21120275  -0.307   2.069   5.833 -0.5427 -0.6621 -0.1696
  167DOPC  H11R20276  -0.387   2.001   5.796 -0.4414 -2.0172  1.9719
  167DOPC  H11S20277  -0.221   2.012   5.873  1.7066  2.6958  0.1543
  167DOPC  C21220278  -0.247   2.143   5.710  0.3294 -0.0047 -0.1757
  167DOPC  H12R20279  -0.164   2.215   5.725 -1.5438  2.3210 -0.3410
  167DOPC  H12S20280  -0.206   2.070   5.637  1.2777  1.2598 -0.9370
  167DOPC  C21320281  -0.360   2.221   5.628  0.1514 -0.0062 -0.0021
  167DOPC  H13R20282  -0.386   2.320   5.671 -0.3068 -0.4151  0.6963
  167DOPC  H13S20283  -0.455   2.162   5.629  1.2950 -1.9582  1.9111
  167DOPC  C21420284  -0.318   2.253   5.487  0.0884  0.2159  0.3626
  167DOPC  H14R20285  -0.409   2.294   5.437  0.4946 -0.2495 -0.7887
  167DOPC  H14S20286  -0.300   2.155   5.438 -0.5493 -0.4044  1.3290
  167DOPC  C21520287  -0.203   2.351   5.466  0.0118 -0.4574 -0.1723
  167DOPC  H15R20288  -0.110   2.303   5.502 -1.2667 -1.9953  1.2494
  167DOPC  H15S20289  -0.233   2.437   5.531 -0.4260  0.0900 -1.0736
  167DOPC  C21620290  -0.174   2.383   5.318 -0.7205 -0.5725  0.2907
  167DOPC  H16R20291  -0.135   2.487   5.315 -2.4320  0.0896 -0.2459
  167DOPC  H16S20292  -0.273   2.387   5.268 -0.3360  0.4222 -0.4250
  167DOPC  C21720293  -0.088   2.293   5.230 -0.3468  0.0938  0.0023
  167DOPC  H17R20294  -0.117   2.186   5.234  1.4182 -0.5009 -1.5040
  167DOPC  H17S20295   0.014   2.290   5.274 -0.2619  2.6373  0.1237
  167DOPC  C21820296  -0.073   2.333   5.084 -0.1001  0.0758  0.6785
  167DOPC  H18R20297   0.009   2.275   5.036  0.2415  0.5236  0.7132
  167DOPC  H18S20298  -0.057   2.443   5.074  1.9397 -0.0290  2.1782
  167DOPC  H18T20299  -0.167   2.305   5.033  0.0157 -0.3154  0.6808
  167DOPC   C3320300  -0.235   1.200   6.158 -0.0903  0.2405  0.0257
  167DOPC   H3X20301  -0.325   1.264   6.167 -0.1621 -0.0064  1.3053
  167DOPC   H3Y20302  -0.248   1.099   6.202  0.2347  0.8697  1.6422
  167DOPC   C3420303  -0.196   1.190   6.012 -0.3643 -0.3644 -0.2472
  167DOPC   H4X20304  -0.105   1.128   5.997  0.3996  0.5063  0.6635
  167DOPC   H4Y20305  -0.186   1.292   5.970 -1.8378 -0.5596 -1.1548
  167DOPC   C3520306  -0.316   1.133   5.927 -0.4472  0.0584  0.1249
  167DOPC   H5X20307  -0.402   1.192   5.966 -0.5050 -0.4119  0.7254
  167DOPC   H5Y20308  -0.352   1.028   5.938 -2.5632  0.6923 -0.2622
  167DOPC   C3620309  -0.319   1.156   5.769  0.0701  0.2136  0.2522
  167DOPC   H6X20310  -0.304   1.264   5.750  2.9037  0.2638  2.1899
  167DOPC   H6Y20311  -0.221   1.111   5.744 -0.2904 -1.0530  1.0121
  167DOPC   C3720312  -0.440   1.088   5.698  0.0530  0.6849  0.5059
  167DOPC   H7X20313  -0.453   0.983   5.730 -2.5166  0.4690 -0.9974
  167DOPC   H7Y20314  -0.535   1.142   5.721  0.3079  1.0995  0.6112
  167DOPC   C3820315  -0.433   1.078   5.543  0.2460  0.3592  0.4415
  167DOPC   H8X20316  -0.345   1.017   5.515  0.3865 -0.9287  3.3633
  167DOPC   H8Y20317  -0.413   1.183   5.512 -0.3116  0.0293 -1.1514
  167DOPC   C3920318  -0.560   1.031   5.476  0.1268  0.3657  0.1768
  167DOPC   H9X20319  -0.644   1.040   5.547 -0.0111  1.5725 -0.1174
  167DOPC  C31020320  -0.568   0.971   5.355 -0.1932  0.7773 -0.1718
  167DOPC  H10X20321  -0.671   0.947   5.323 -0.5738  0.5254  1.2005
  167DOPC  C31120322  -0.456   0.941   5.252  0.6195  0.4015  0.6213
  167DOPC  H11X20323  -0.360   0.950   5.308  1.3762 -3.5505  0.2884
  167DOPC  H11Y20324  -0.467   1.008   5.165  2.8554  0.5381  0.3786
  167DOPC  C31220325  -0.452   0.786   5.197  0.2471  0.0908  0.2745
  167DOPC  H12X20326  -0.549   0.760   5.150  0.1858  1.6902 -0.5507
  167DOPC  H12Y20327  -0.429   0.714   5.279  0.6716 -1.1623 -0.8994
  167DOPC  C31320328  -0.343   0.758   5.099  0.6003  0.0321 -0.2316
  167DOPC  H13X20329  -0.343   0.806   4.999  3.6178  0.3240 -0.2037
  167DOPC  H13Y20330  -0.244   0.800   5.130  0.3591  1.1932 -0.9632
  167DOPC  C31420331  -0.332   0.600   5.070  0.4257  0.1971 -0.4093
  167DOPC  H14X20332  -0.333   0.535   5.160  0.0297  0.4842 -0.2037
  167DOPC  H14Y20333  -0.427   0.577   5.017 -0.4304  1.5078  0.5001
  167DOPC  C31520334  -0.214   0.560   4.987  0.1456  0.0306  0.1186
  167DOPC  H15X20335  -0.118   0.609   5.016 -0.0997  0.3272  0.4358
  167DOPC  H15Y20336  -0.222   0.585   4.879 -0.5647  2.5900  0.6936
  167DOPC  C31620337  -0.199   0.411   4.988 -0.5406 -0.0291  0.6077
  167DOPC  H16X20338  -0.156   0.370   5.082  2.3481 -0.0931 -0.6584
  167DOPC  H16Y20339  -0.298   0.362   4.979  0.2226 -2.0927  2.4749
  167DOPC  C31720340  -0.109   0.361   4.873 -0.0408 -0.2663 -1.0026
  167DOPC  H17X20341  -0.127   0.410   4.775 -2.2031  0.1434 -0.4556
  167DOPC  H17Y20342  -0.002   0.377   4.897 -0.2327  1.0874 -0.9339
  167DOPC  C31820343  -0.127   0.209   4.840  0.0973  1.1239 -0.6057
  167DOPC  H18X20344  -0.229   0.186   4.804  0.9572  0.7141 -2.9636
  167DOPC  H18Y20345  -0.048   0.169   4.773  1.2627 -1.2888  1.9624
  167DOPC  H18Z20346  -0.116   0.162   4.941 -2.8300  1.4295 -0.0720
  168DOPC     N20347   4.827   0.351   7.254 -0.2058  0.3334  0.1498
  168DOPC   C1220348   4.704   0.317   7.179 -0.3882  0.3226  0.3003
  168DOPC  H12A20349   4.647   0.248   7.239  1.8836 -3.0651 -1.1496
  168DOPC  H12B20350   4.731   0.244   7.104 -1.2128 -1.4696  1.6585
  168DOPC   C1320351   4.896   0.233   7.307  0.4420  0.1209 -0.3955
  168DOPC  H13A20352   4.931   0.157   7.239 -2.6218  0.3244 -2.4103
  168DOPC  H13B20353   4.975   0.271   7.370 -1.0986  0.4467  1.4296
  168DOPC  H13C20354   4.823   0.188   7.372 -0.9736 -0.2242 -2.1436
  168DOPC   C1420355   4.779   0.430   7.374  0.3288 -0.1066 -0.6518
  168DOPC  H14A20356   4.701   0.501   7.348 -2.3988 -2.2810  1.0059
  168DOPC  H14B20357   4.724   0.362   7.437  0.5861  0.2074 -0.0763
  168DOPC  H14C20358   4.866   0.463   7.428 -0.1827 -2.3500  1.7486
  168DOPC   C1520359   4.919   0.443   7.173  0.2905  0.6115  0.6251
  168DOPC  H15A20360   5.011   0.454   7.228  0.6052 -0.7931  0.4171
  168DOPC  H15B20361   4.879   0.542   7.157  1.1485  0.5945 -2.0584
  168DOPC  H15C20362   4.939   0.405   7.074  1.3158 -1.1021  1.4510
  168DOPC   C1120363   4.610   0.423   7.105  0.6744  0.3891 -0.6698
  168DOPC  H11A20364   4.674   0.484   7.038 -1.5339  0.6091 -2.7248
  168DOPC  H11B20365   4.537   0.367   7.043 -2.3344  2.7716  0.4920
  168DOPC     P20366   4.434   0.466   7.287 -0.1586  0.0086 -0.3770
  168DOPC   O1320367   4.440   0.542   7.411  0.4902 -0.0922 -0.2874
  168DOPC   O1420368   4.437   0.318   7.301  0.0029 -0.2127  0.0378
  168DOPC   O1220369   4.545   0.517   7.188  0.0936 -0.1273  0.2372
  168DOPC   O1120370   4.297   0.499   7.219 -0.1617  0.1251  0.2739
  168DOPC    C120371   4.270   0.615   7.139  0.0016  0.7047  0.2552
  168DOPC    HA20372   4.359   0.679   7.121 -0.0571  0.7349  0.0637
  168DOPC    HB20373   4.179   0.671   7.170  0.3383  2.2585 -1.4173
  168DOPC    C220374   4.221   0.575   6.993  0.1261  0.3376 -0.0758
  168DOPC    HS20375   4.136   0.504   7.001  0.6840 -0.2774  0.5142
  168DOPC   O2120376   4.332   0.509   6.917  0.3746  0.5618  0.0411
  168DOPC   C2120377   4.296   0.406   6.836  0.2667  0.0661  0.2914
  168DOPC   O2220378   4.181   0.369   6.812 -1.1053 -0.8109  0.5054
  168DOPC   C2220379   4.423   0.346   6.765  0.6255  0.0146  0.5438
  168DOPC   H2R20380   4.417   0.235   6.758  0.6848 -0.0269  1.1083
  168DOPC   H2S20381   4.508   0.375   6.830 -0.7203  1.3617  1.7422
  168DOPC    C320382   4.171   0.704   6.913 -0.2396  0.1135  0.2121
  168DOPC    HX20383   4.245   0.783   6.886 -0.4255 -0.1293 -1.0906
  168DOPC    HY20384   4.093   0.756   6.972 -1.3461 -1.0054 -0.2082
  168DOPC   O3120385   4.121   0.659   6.781  0.7890  0.7393 -0.8362
  168DOPC   C3120386   3.985   0.637   6.795 -0.8015 -0.2462 -0.1633
  168DOPC   O3220387   3.917   0.667   6.891 -0.3437 -0.0092 -0.4531
  168DOPC   C3220388   3.932   0.578   6.662  0.7749 -0.7327 -0.6960
  168DOPC   H2X20389   3.874   0.659   6.611  0.9058  0.9396  1.6481
  168DOPC   H2Y20390   4.025   0.552   6.607  1.2129 -1.0745  0.1834
  168DOPC   C2320391   4.463   0.410   6.629 -0.1420 -0.2551  0.1994
  168DOPC   H3R20392   4.557   0.355   6.610 -0.1367 -0.2313  0.1562
  168DOPC   H3S20393   4.489   0.518   6.636 -1.4827 -0.0340  3.1992
  168DOPC   C2420394   4.361   0.368   6.525 -0.2860 -0.2235  0.2561
  168DOPC   H4R20395   4.258   0.390   6.560 -0.7131 -2.6452  0.7260
  168DOPC   H4S20396   4.357   0.257   6.533  3.3622 -0.3904  1.3099
  168DOPC   C2520397   4.408   0.424   6.388  0.0906 -0.1748 -0.2002
  168DOPC   H5R20398   4.494   0.362   6.357  0.5495  0.3831 -0.0520
  168DOPC   H5S20399   4.447   0.528   6.395 -0.5997  0.0613  0.2268
  168DOPC   C2620400   4.301   0.419   6.277 -0.1638 -0.2708 -0.1275
  168DOPC   H6R20401   4.353   0.439   6.181  2.7446 -1.6873  1.0368
  168DOPC   H6S20402   4.230   0.503   6.293 -1.7399 -1.3572 -1.1075
  168DOPC   C2720403   4.211   0.293   6.260 -0.6193  0.2601 -0.7654
  168DOPC   H7R20404   4.150   0.284   6.352  1.5018 -1.4591  0.5837
  168DOPC   H7S20405   4.262   0.194   6.254 -0.1363  0.0189  3.9125
  168DOPC   C2820406   4.116   0.302   6.137 -0.7871 -0.8147 -0.1875
  168DOPC   H8R20407   4.175   0.331   6.046 -2.9101  0.1791 -1.3181
  168DOPC   H8S20408   4.048   0.386   6.163  1.4918  1.4237 -0.8742
  168DOPC   C2920409   4.048   0.172   6.124 -0.3427  1.0207  0.3045
  168DOPC   H9R20410   3.984   0.156   6.212  0.2349  0.8572  0.7006
  168DOPC  C21020411   4.023   0.099   6.013 -0.0707  0.6428 -0.8770
  168DOPC  H10R20412   3.986  -0.003   6.028 -1.2452  1.4577  2.6828
  168DOPC  C21120413   4.079   0.139   5.880  0.5842 -0.1024 -0.5433
  168DOPC  H11R20414   4.190   0.135   5.885  0.6055  1.3379  1.2107
  168DOPC  H11S20415   4.051   0.244   5.857  2.1217  0.4455 -0.0105
  168DOPC  C21220416   4.028   0.035   5.771 -0.2540  0.1279  0.1424
  168DOPC  H12R20417   3.921   0.062   5.757  0.3525  3.3761  0.7899
  168DOPC  H12S20418   4.032  -0.069   5.808  0.7727  0.7493  1.9412
  168DOPC  C21320419   4.096   0.045   5.628  0.1768 -0.3492 -0.2675
  168DOPC  H13R20420   4.199   0.004   5.628  1.1098  1.8899  0.0107
  168DOPC  H13S20421   4.105   0.152   5.599 -1.5246  0.2036  1.0696
  168DOPC  C21420422   4.015  -0.021   5.519  0.1250 -0.7812  0.0017
  168DOPC  H14R20423   3.917   0.032   5.524 -0.3191 -1.5178 -0.6238
  168DOPC  H14S20424   3.993  -0.129   5.530 -0.7021 -0.7047 -0.7247
  168DOPC  C21520425   4.080   0.007   5.381  0.1857  0.4929 -0.1279
  168DOPC  H15R20426   4.166   0.075   5.396 -0.6448  1.3070  1.1263
  168DOPC  H15S20427   4.021   0.053   5.299  1.3186  1.4426 -0.4458
  168DOPC  C21620428   4.138  -0.129   5.342  0.6479  0.9862  0.4890
  168DOPC  H16R20429   4.183  -0.184   5.427  1.1643  0.1132 -0.3234
  168DOPC  H16S20430   4.219  -0.117   5.266 -0.7622  0.1607 -1.2300
  168DOPC  C21720431   4.049  -0.231   5.263  0.3547 -0.1695 -0.2364
  168DOPC  H17R20432   3.992  -0.167   5.192  0.4359  1.9867  1.5378
  168DOPC  H17S20433   3.976  -0.284   5.329 -1.1281 -0.3734 -1.9523
  168DOPC  C21820434   4.124  -0.348   5.191 -0.1871  0.2610 -0.4255
  168DOPC  H18R20435   4.049  -0.424   5.158 -0.1424  0.9340 -2.1423
  168DOPC  H18S20436   4.200  -0.401   5.253  0.9715  1.4937 -0.7604
  168DOPC  H18T20437   4.184  -0.321   5.101  1.7051  2.6393  1.4308
  168DOPC   C3320438   3.848   0.455   6.680 -0.2340  0.1461  0.3464
  168DOPC   H3X20439   3.774   0.467   6.762 -1.1277  1.7049 -0.6412
  168DOPC   H3Y20440   3.924   0.380   6.713  0.4703  0.2033 -1.0703
  168DOPC   C3420441   3.770   0.408   6.558  0.3390  0.1611 -0.8816
  168DOPC   H4X20442   3.702   0.492   6.534 -0.7365 -0.7616 -1.2046
  168DOPC   H4Y20443   3.704   0.328   6.600  1.9515 -0.3449  0.8343
  168DOPC   C3520444   3.841   0.374   6.432  0.1325 -0.1829 -0.3466
  168DOPC   H5X20445   3.900   0.282   6.452 -0.8258 -0.9617 -1.0286
  168DOPC   H5Y20446   3.908   0.456   6.400 -0.9893  1.3233  1.0241
  168DOPC   C3620447   3.758   0.345   6.304 -0.2004  0.3160 -0.4341
  168DOPC   H6X20448   3.700   0.437   6.283  0.9026  1.2705  0.5426
  168DOPC   H6Y20449   3.832   0.331   6.223 -0.0984  1.8693 -0.6467
  168DOPC   C3720450   3.657   0.223   6.320  0.0305  0.3476  0.2154
  168DOPC   H7X20451   3.710   0.131   6.349 -1.1765 -0.6988 -0.7726
  168DOPC   H7Y20452   3.583   0.239   6.401 -0.9384  1.1393 -0.7871
  168DOPC   C3820453   3.579   0.198   6.193  0.0138 -0.0639  1.1365
  168DOPC   H8X20454   3.541   0.297   6.161 -0.4800 -0.7592 -0.5112
  168DOPC   H8Y20455   3.494   0.134   6.223  1.0556 -1.2441  1.6534
  168DOPC   C3920456   3.670   0.138   6.082  0.3067 -0.3843  0.9334
  168DOPC   H9X20457   3.701   0.034   6.099  0.3261 -0.8568 -1.6025
  168DOPC  C31020458   3.712   0.196   5.968 -0.2448  0.6985 -0.6530
  168DOPC  H10X20459   3.765   0.125   5.903 -0.7675 -1.3073  1.0231
  168DOPC  C31120460   3.675   0.329   5.909 -0.2210  0.2585  0.1427
  168DOPC  H11X20461   3.752   0.409   5.907 -1.1238  1.1436 -0.0237
  168DOPC  H11Y20462   3.595   0.378   5.968 -0.7601  0.9899 -1.1414
  168DOPC  C31220463   3.606   0.307   5.775  0.0248  0.4430  0.4414
  168DOPC  H12X20464   3.673   0.243   5.714 -0.5342 -0.5032  0.7969
  168DOPC  H12Y20465   3.599   0.409   5.729  0.3039  0.7226  1.0141
  168DOPC  C31320466   3.462   0.259   5.775 -0.0540  0.4427 -0.0025
  168DOPC  H13X20467   3.451   0.161   5.827 -0.3788  1.6715  2.3763
  168DOPC  H13Y20468   3.404   0.330   5.838 -0.4892  2.2483 -2.2970
  168DOPC  C31420469   3.404   0.239   5.630 -0.1251 -0.5179 -0.6783
  168DOPC  H14X20470   3.406   0.335   5.575 -1.2384 -0.7659 -1.1684
  168DOPC  H14Y20471   3.471   0.175   5.568 -0.2860  0.5922 -2.0451
  168DOPC  C31520472   3.262   0.184   5.641  0.0372  0.1138 -0.2958
  168DOPC  H15X20473   3.263   0.094   5.708 -1.4111  1.3770  1.5467
  168DOPC  H15Y20474   3.226   0.154   5.541  2.9079 -1.3862 -1.0025
  168DOPC  C31620475   3.164   0.287   5.702  0.0066 -0.6121 -0.1517
  168DOPC  H16X20476   3.218   0.339   5.783 -0.4474 -2.8201  1.6672
  168DOPC  H16Y20477   3.149   0.366   5.626 -2.4972 -2.2860 -1.5734
  168DOPC  C31720478   3.027   0.228   5.737 -0.5074 -1.1559 -0.8152
  168DOPC  H17X20479   2.986   0.169   5.653 -0.3626 -2.0631 -0.2564
  168DOPC  H17Y20480   3.041   0.149   5.814 -2.6038 -0.7447  0.0670
  168DOPC  C31820481   2.931   0.342   5.779  0.2792 -0.3693  0.0915
  168DOPC  H18X20482   2.980   0.390   5.867  0.0916 -1.3211  0.7288
  168DOPC  H18Y20483   2.924   0.423   5.703  1.7405  0.4333  0.7583
  168DOPC  H18Z20484   2.828   0.311   5.808 -1.0783  2.8719 -0.7680
  169DOPC     N20485   0.813   2.002   7.348 -0.4967 -0.3220 -0.0454
  169DOPC   C1220486   0.719   1.916   7.267 -0.2827 -0.2057 -0.0295
  169DOPC  H12A20487   0.771   1.900   7.174  0.0074  1.2837 -0.1392
  169DOPC  H12B20488   0.644   1.981   7.225  0.6293  1.2169  0.4526
  169DOPC   C1320489   0.958   1.939   7.353 -0.3305  0.0083 -0.0996
  169DOPC  H13A20490   1.006   1.937   7.256  2.3117 -0.3033  1.1311
  169DOPC  H13B20491   1.027   1.995   7.414 -1.6827 -1.4328  2.9380
  169DOPC  H13C20492   0.961   1.845   7.406 -1.6508  1.0155  1.8925
  169DOPC   C1420493   0.774   2.009   7.495 -0.3226  0.0699  0.1334
  169DOPC  H14A20494   0.684   2.066   7.513 -0.8422 -1.0190  1.1306
  169DOPC  H14B20495   0.759   1.910   7.534  0.2310 -0.1614 -0.2292
  169DOPC  H14C20496   0.856   2.047   7.554 -0.5667 -0.4469  0.8201
  169DOPC   C1520497   0.825   2.144   7.300 -0.2910  0.8071  0.5191
  169DOPC  H15A20498   0.864   2.145   7.199 -1.0416  2.3250  0.2085
  169DOPC  H15B20499   0.889   2.195   7.371 -1.2404  1.1689  1.1335
  169DOPC  H15C20500   0.731   2.195   7.314 -0.6975  0.5304 -1.0631
  169DOPC   C1120501   0.654   1.784   7.327 -0.1191 -0.3130  0.3051
  169DOPC  H11A20502   0.586   1.808   7.411 -0.8135 -2.5009  0.4348
  169DOPC  H11B20503   0.584   1.738   7.254 -2.6336  2.1848  0.9645
  169DOPC     P20504   0.830   1.590   7.283 -0.0808  0.1732 -0.1720
  169DOPC   O1320505   0.734   1.498   7.226  0.3837 -0.0637  0.1576
  169DOPC   O1420506   0.935   1.526   7.367 -0.0534 -0.3285  0.7917
  169DOPC   O1220507   0.749   1.692   7.377  0.2343 -0.2405  0.1694
  169DOPC   O1120508   0.888   1.680   7.166 -0.3255  0.2785 -0.3372
  169DOPC    C120509   1.001   1.632   7.096  0.2841 -0.0941  0.0543
  169DOPC    HA20510   0.980   1.532   7.054  0.7204 -1.4424  2.8510
  169DOPC    HB20511   1.088   1.611   7.161 -0.7485 -0.9017  1.2295
  169DOPC    C220512   1.039   1.729   6.976 -0.6963  0.2844 -0.2844
  169DOPC    HS20513   1.058   1.827   7.025 -2.2043  0.6922 -0.4844
  169DOPC   O2120514   0.923   1.735   6.886 -0.4729  0.7786 -0.2454
  169DOPC   C2120515   0.839   1.835   6.906  1.3528 -0.1623 -0.0744
  169DOPC   O2220516   0.855   1.932   6.977 -0.2622 -0.3262  0.2959
  169DOPC   C2220517   0.725   1.817   6.796  0.5075  0.4399 -0.8718
  169DOPC   H2R20518   0.675   1.722   6.825  0.8025  0.7623  0.7963
  169DOPC   H2S20519   0.764   1.803   6.693 -0.4671 -1.9209 -0.9851
  169DOPC    C320520   1.167   1.695   6.906  0.2612 -0.1202  0.1889
  169DOPC    HX20521   1.165   1.587   6.879  0.5218 -0.4285  1.3356
  169DOPC    HY20522   1.252   1.682   6.975 -0.6435  0.0385  1.3671
  169DOPC   O3120523   1.192   1.787   6.792  0.2027  0.4480 -0.3451
  169DOPC   C3120524   1.258   1.897   6.823 -0.5125  0.6903  0.2394
  169DOPC   O3220525   1.285   1.932   6.934  0.1853  0.7155 -0.1523
  169DOPC   C3220526   1.285   1.980   6.693 -0.9521 -0.2024 -0.2648
  169DOPC   H2X20527   1.310   2.084   6.724 -3.0119 -0.0171  0.9438
  169DOPC   H2Y20528   1.374   1.938   6.642 -0.5847 -0.4382  0.5456
  169DOPC   C2320529   0.632   1.932   6.790 -0.8533 -0.4314  0.1636
  169DOPC   H3R20530   0.698   2.010   6.748  0.7718 -0.8703  1.7886
  169DOPC   H3S20531   0.604   1.956   6.895  1.0260 -2.9851  1.3544
  169DOPC   C2420532   0.505   1.904   6.710 -0.4412  0.1432  0.0942
  169DOPC   H4R20533   0.434   1.842   6.768 -1.7443  2.9641  1.7491
  169DOPC   H4S20534   0.521   1.844   6.618 -0.0970  0.5030 -0.0835
  169DOPC   C2520535   0.413   2.029   6.666 -0.0289 -0.4621  0.1360
  169DOPC   H5R20536   0.486   2.109   6.643  0.9945 -0.6979  2.2856
  169DOPC   H5S20537   0.353   2.056   6.756  2.4366  1.3047  1.3575
  169DOPC   C2620538   0.321   1.996   6.541  0.2640  0.4094  0.1986
  169DOPC   H6R20539   0.254   1.912   6.569  1.3016  0.1136  1.9451
  169DOPC   H6S20540   0.403   1.952   6.479  0.1980 -2.3413  1.9100
  169DOPC   C2720541   0.259   2.125   6.481 -0.3440 -0.1156 -0.5059
  169DOPC   H7R20542   0.338   2.200   6.463 -0.4568  0.3240  0.7058
  169DOPC   H7S20543   0.187   2.157   6.560  0.9958  1.2598  0.2136
  169DOPC   C2820544   0.194   2.092   6.351  0.1054 -0.1348  0.1920
  169DOPC   H8R20545   0.142   1.993   6.352  1.8132 -1.0750  0.2783
  169DOPC   H8S20546   0.276   2.061   6.282  0.8570  3.1380 -0.5492
  169DOPC   C2920547   0.117   2.212   6.301 -0.0123  0.8411 -0.9601
  169DOPC   H9R20548   0.029   2.232   6.365 -0.6417  2.0548 -2.1608
  169DOPC  C21020549   0.165   2.307   6.229  0.4569 -0.6462 -0.4317
  169DOPC  H10R20550   0.104   2.399   6.219  1.0585 -0.0525  1.0954
  169DOPC  C21120551   0.299   2.312   6.162  0.3609  0.4813  0.6445
  169DOPC  H11R20552   0.283   2.291   6.054  2.0282 -2.9304  0.9370
  169DOPC  H11S20553   0.358   2.223   6.191  1.8233  0.6731 -1.5924
  169DOPC  C21220554   0.374   2.439   6.164 -0.1867  0.5345  0.5599
  169DOPC  H12R20555   0.391   2.452   6.273  1.7372  0.6754  0.2716
  169DOPC  H12S20556   0.308   2.520   6.128  1.4431  0.9173 -1.7295
  169DOPC  C21320557   0.502   2.421   6.086  0.1938 -0.3897 -0.3897
  169DOPC  H13R20558   0.479   2.400   5.979  0.2431  0.8140 -0.6502
  169DOPC  H13S20559   0.555   2.326   6.110 -1.4703 -1.4629 -0.8022
  169DOPC  C21420560   0.594   2.541   6.094 -0.5405  0.2324 -0.9760
  169DOPC  H14R20561   0.531   2.633   6.100  3.5418  3.2561  0.9423
  169DOPC  H14S20562   0.660   2.548   6.006 -1.0253 -0.7191 -1.4296
  169DOPC  C21520563   0.676   2.550   6.228 -0.2746  0.3009 -0.3570
  169DOPC  H15R20564   0.751   2.468   6.223 -1.1397 -0.6786  1.5043
  169DOPC  H15S20565   0.610   2.517   6.312  1.4684 -1.2890  0.4514
  169DOPC  C21620566   0.743   2.684   6.251 -0.1385  0.3406  0.2301
  169DOPC  H16R20567   0.661   2.760   6.255  0.5604  1.0852  3.0857
  169DOPC  H16S20568   0.809   2.701   6.164 -0.9217  1.0510 -0.2419
  169DOPC  C21720569   0.819   2.692   6.382 -0.0442  0.9569  0.2843
  169DOPC  H17R20570   0.789   2.616   6.457 -0.7801  0.2375 -0.7194
  169DOPC  H17S20571   0.782   2.787   6.427  1.6351  1.3472  0.9217
  169DOPC  C21820572   0.969   2.679   6.349  0.0979 -0.3641  1.0390
  169DOPC  H18R20573   0.977   2.581   6.298 -0.4206 -2.3213  4.4115
  169DOPC  H18S20574   1.038   2.673   6.436  1.2961  0.1180  0.1536
  169DOPC  H18T20575   0.994   2.767   6.287 -0.7827 -0.2094  0.8829
  169DOPC   C3320576   1.169   1.992   6.592 -0.2487 -0.3150  0.0060
  169DOPC   H3X20577   1.121   1.896   6.563  0.7654 -0.9252  0.3055
  169DOPC   H3Y20578   1.216   2.046   6.507 -0.4948  0.2152  0.1991
  169DOPC   C3420579   1.064   2.087   6.658  0.3614 -0.0159 -1.1791
  169DOPC   H4X20580   1.105   2.187   6.681  0.3710 -0.7220  2.3521
  169DOPC   H4Y20581   1.026   2.051   6.756 -1.7551  2.9463 -0.7858
  169DOPC   C3520582   0.938   2.110   6.575 -0.2418  1.2088  0.2527
  169DOPC   H5X20583   0.861   2.168   6.630 -0.7237  0.0424  0.8332
  169DOPC   H5Y20584   0.885   2.016   6.547  0.2882  1.4479 -1.6969
  169DOPC   C3620585   0.981   2.180   6.444  0.2571  0.3578 -0.6127
  169DOPC   H6X20586   1.043   2.268   6.470  1.5083 -0.6837  0.0354
  169DOPC   H6Y20587   1.046   2.107   6.391 -0.7082 -0.1306 -1.1617
  169DOPC   C3720588   0.868   2.235   6.361  0.1653 -0.3166  0.6410
  169DOPC   H7X20589   0.831   2.311   6.433  3.4378  0.6221  1.5069
  169DOPC   H7Y20590   0.915   2.276   6.269  1.9932 -2.9253  0.2954
  169DOPC   C3820591   0.757   2.130   6.332  0.5762  0.0542 -0.0491
  169DOPC   H8X20592   0.681   2.194   6.283  2.0407  2.0190  0.1205
  169DOPC   H8Y20593   0.702   2.102   6.424 -0.6200  2.0333 -0.1117
  169DOPC   C3920594   0.796   2.015   6.248  0.7202  1.0301 -0.0661
  169DOPC   H9X20595   0.905   2.010   6.229  0.5550 -2.3242 -0.7493
  169DOPC  C31020596   0.717   1.925   6.188 -0.2147  0.1500 -0.3045
  169DOPC  H10X20597   0.767   1.858   6.116  1.5191  1.5917 -0.5245
  169DOPC  C31120598   0.571   1.907   6.214 -0.0847 -0.5107  0.0071
  169DOPC  H11X20599   0.514   1.985   6.269  1.8028 -0.3925  1.9441
  169DOPC  H11Y20600   0.566   1.822   6.285  3.5274 -2.7561 -2.0993
  169DOPC  C31220601   0.503   1.853   6.084 -0.0777 -0.0424 -0.4204
  169DOPC  H12X20602   0.408   1.812   6.125 -1.1462  2.6438 -0.0121
  169DOPC  H12Y20603   0.553   1.768   6.035 -0.4004 -0.4286 -0.0912
  169DOPC  C31320604   0.476   1.956   5.969  0.6083 -0.5215  0.4718
  169DOPC  H13X20605   0.424   2.041   6.019  0.5638 -0.3337  0.1138
  169DOPC  H13Y20606   0.569   1.987   5.917 -0.7302 -1.6992 -2.8734
  169DOPC  C31420607   0.382   1.904   5.866 -0.1553 -0.9726  0.4792
  169DOPC  H14X20608   0.421   1.802   5.844  0.5381 -0.5411 -0.4136
  169DOPC  H14Y20609   0.281   1.885   5.907 -0.4630 -2.5932 -0.8929
  169DOPC  C31520610   0.383   1.996   5.745  0.7862 -0.3333 -0.4619
  169DOPC  H15X20611   0.486   2.024   5.713  0.7790  0.1843 -0.0477
  169DOPC  H15Y20612   0.332   2.085   5.788 -0.9207 -2.5902  2.5327
  169DOPC  C31620613   0.304   1.930   5.624  0.3147  0.1005  0.1229
  169DOPC  H16X20614   0.305   2.010   5.548  1.9007  0.3748  0.3850
  169DOPC  H16Y20615   0.359   1.837   5.598 -0.1051  0.0851 -0.7127
  169DOPC  C31720616   0.154   1.890   5.635 -1.0312 -0.3000 -0.5616
  169DOPC  H17X20617   0.160   1.796   5.694 -0.7958 -0.3884 -0.7257
  169DOPC  H17Y20618   0.103   1.963   5.702  2.0228  1.5635 -0.0675
  169DOPC  C31820619   0.076   1.875   5.513  0.5505 -0.1197  0.3990
  169DOPC  H18X20620   0.091   1.963   5.446 -0.8231  0.3681  0.6980
  169DOPC  H18Y20621   0.107   1.787   5.454  1.8923  1.7765 -1.9260
  169DOPC  H18Z20622  -0.032   1.870   5.540  0.5515 -2.1195  0.1112
  170DOPC     N20623   7.439   7.470   7.519 -0.7447  0.2462  0.2999
  170DOPC   C1220624   7.554   7.381   7.476 -0.4996 -0.5434  0.9721
  170DOPC  H12A20625   7.518   7.283   7.449  2.3636 -1.1568 -1.0679
  170DOPC  H12B20626   7.619   7.372   7.562  1.1098  1.7860  0.1178
  170DOPC   C1320627   7.498   7.603   7.563  0.8550  0.0060  0.4675
  170DOPC  H13A20628   7.561   7.657   7.495 -0.1262  0.3458 -0.1869
  170DOPC  H13B20629   7.425   7.671   7.605 -1.4052 -2.0708  0.1332
  170DOPC  H13C20630   7.575   7.576   7.634  2.4482 -0.5539 -1.3874
  170DOPC   C1420631   7.368   7.407   7.632  0.0891  0.2309 -0.0845
  170DOPC  H14A20632   7.426   7.399   7.723 -2.1982 -3.0853  1.3067
  170DOPC  H14B20633   7.285   7.473   7.651 -0.9125 -0.6342 -1.2567
  170DOPC  H14C20634   7.334   7.306   7.613 -1.0551  0.8438 -1.4043
  170DOPC   C1520635   7.340   7.492   7.414  0.4491  0.1802  0.6260
  170DOPC  H15A20636   7.253   7.536   7.462 -0.0772  0.1802 -0.3053
  170DOPC  H15B20637   7.299   7.405   7.364 -3.1126  1.1733  1.4770
  170DOPC  H15C20638   7.374   7.565   7.343 -2.3860  0.2656 -0.7932
  170DOPC   C1120639   7.642   7.438   7.358 -0.7933 -0.5727  0.0773
  170DOPC  H11A20640   7.694   7.527   7.398 -3.8218  1.3276  0.1000
  170DOPC  H11B20641   7.727   7.372   7.331 -0.0555  0.4804 -0.2171
  170DOPC     P20642   7.531   7.342   7.136 -0.1511 -0.1962 -0.5634
  170DOPC   O1320643   7.385   7.352   7.111  0.4665  0.6174 -0.7172
  170DOPC   O1420644   7.578   7.206   7.183  0.1684 -0.1761  0.3640
  170DOPC   O1220645   7.576   7.468   7.236  0.2370  0.3433  0.0252
  170DOPC   O1120646   7.621   7.388   7.015  0.4568  0.0432 -0.1674
  170DOPC    C120647   7.752   7.341   6.997  1.0769  0.0270  0.1339
  170DOPC    HA20648   7.756   7.231   7.011 -2.3716 -0.0437  1.5771
  170DOPC    HB20649   7.821   7.379   7.075  1.0221 -1.0794  0.7366
  170DOPC    C220650   7.808   7.393   6.864 -0.0894  0.3917  0.5547
  170DOPC    HS20651   7.796   7.503   6.850 -0.4018  0.3086  0.1619
  170DOPC   O2120652   7.749   7.317   6.753  0.2596  0.0147  0.3065
  170DOPC   C2120653   7.636   7.358   6.715  0.7504  0.3189  0.6589
  170DOPC   O2220654   7.586   7.469   6.733 -0.0928  0.5186  0.6503
  170DOPC   C2220655   7.584   7.249   6.615 -0.0662  0.5133  0.2662
  170DOPC   H2R20656   7.586   7.154   6.672  3.1158 -0.7319 -1.6627
  170DOPC   H2S20657   7.656   7.218   6.537 -1.3010 -3.2682  0.4211
  170DOPC    C320658   7.954   7.361   6.873  0.3664 -0.0569 -0.5877
  170DOPC    HX20659   7.955   7.252   6.897  1.4579  0.4117  1.7977
  170DOPC    HY20660   8.008   7.410   6.956 -0.2024 -3.3836  1.9461
  170DOPC   O3120661   8.024   7.373   6.751  0.1917 -0.0691 -0.4772
  170DOPC   C3120662   8.097   7.488   6.729 -0.0758  0.8445  0.0469
  170DOPC   O3220663   8.106   7.582   6.805 -0.2687  0.1194 -0.0827
  170DOPC   C3220664   8.162   7.473   6.588  0.1058  0.1964  0.1268
  170DOPC   H2X20665   8.088   7.426   6.520 -0.1890  2.4145 -1.1941
  170DOPC   H2Y20666   8.194   7.574   6.554  2.0205 -0.6332 -0.6744
  170DOPC   C2320667   7.441   7.284   6.578 -0.6797 -0.3822  1.1283
  170DOPC   H3R20668   7.443   7.376   6.516  0.1472  0.8294  2.8789
  170DOPC   H3S20669   7.377   7.307   6.666 -2.2836  0.5537 -0.2071
  170DOPC   C2420670   7.375   7.180   6.488  0.4845  0.4264  0.1256
  170DOPC   H4R20671   7.269   7.205   6.469  0.1869 -1.0804 -0.3102
  170DOPC   H4S20672   7.387   7.084   6.542  1.3862 -0.5069 -1.6414
  170DOPC   C2520673   7.447   7.162   6.349 -0.1684 -0.2313 -0.5038
  170DOPC   H5R20674   7.388   7.082   6.300  1.6104 -0.5900 -2.2203
  170DOPC   H5S20675   7.549   7.120   6.363 -0.5930 -0.4837  2.3163
  170DOPC   C2620676   7.460   7.283   6.261 -0.1125 -0.3959 -0.0607
  170DOPC   H6R20677   7.516   7.359   6.319 -3.2093  0.5366  1.9379
  170DOPC   H6S20678   7.362   7.333   6.249  0.6275  1.2109  0.3579
  170DOPC   C2720679   7.525   7.254   6.130  0.0692  0.2208 -0.0061
  170DOPC   H7R20680   7.465   7.174   6.082  1.2615 -0.4464 -0.4212
  170DOPC   H7S20681   7.622   7.205   6.152 -0.9513 -0.3055  4.2417
  170DOPC   C2820682   7.536   7.385   6.047  0.2294 -0.0232 -0.2374
  170DOPC   H8R20683   7.631   7.359   5.996 -0.5112  0.2883 -1.8208
  170DOPC   H8S20684   7.566   7.476   6.103 -0.7673  0.5087 -0.5349
  170DOPC   C2920685   7.437   7.414   5.937 -0.5847  0.4454  0.1885
  170DOPC   H9R20686   7.338   7.414   5.985  0.3222 -1.5161  2.2540
  170DOPC  C21020687   7.452   7.430   5.799 -0.3222  0.7393 -0.6577
  170DOPC  H10R20688   7.369   7.475   5.742 -1.4086  0.1718  0.4214
  170DOPC  C21120689   7.587   7.437   5.731  0.2617  0.7855 -0.8902
  170DOPC  H11R20690   7.670   7.421   5.803 -0.6066 -2.4843 -0.4879
  170DOPC  H11S20691   7.600   7.538   5.685  1.3801  1.0138 -0.1229
  170DOPC  C21220692   7.603   7.327   5.631  0.6741  0.5896 -0.5842
  170DOPC  H12R20693   7.540   7.325   5.540  1.1792 -2.0599 -0.9600
  170DOPC  H12S20694   7.591   7.227   5.678  2.3667  0.7277  0.2044
  170DOPC  C21320695   7.749   7.319   5.571 -0.1796 -0.1010  0.0010
  170DOPC  H13R20696   7.828   7.302   5.647 -1.1774 -0.5283  0.9744
  170DOPC  H13S20697   7.782   7.418   5.534  0.6668 -0.7434 -1.0259
  170DOPC  C21420698   7.775   7.204   5.473 -0.0590  0.2288 -0.1574
  170DOPC  H14R20699   7.686   7.165   5.420 -1.4972 -0.4055  2.5579
  170DOPC  H14S20700   7.818   7.115   5.523  2.3854  0.3523 -1.8189
  170DOPC  C21520701   7.885   7.232   5.363  0.0145 -0.2646 -0.0223
  170DOPC  H15R20702   7.979   7.253   5.419 -0.5952 -0.8390  1.2517
  170DOPC  H15S20703   7.857   7.328   5.315  1.9133 -0.7284 -2.2563
  170DOPC  C21620704   7.890   7.126   5.254 -0.2383  0.3016 -0.8017
  170DOPC  H16R20705   7.961   7.155   5.173  1.3965  1.3636  0.9081
  170DOPC  H16S20706   7.791   7.121   5.205 -1.0498 -0.9852  0.8845
  170DOPC  C21720707   7.938   6.995   5.312  0.4415 -0.0093  0.1658
  170DOPC  H17R20708   7.933   6.926   5.225  2.3824  3.1809 -2.7350
  170DOPC  H17S20709   7.878   6.958   5.398  1.1161 -0.1875  0.5592
  170DOPC  C21820710   8.083   6.997   5.365  0.6721 -0.1507  0.5109
  170DOPC  H18R20711   8.101   7.091   5.420 -0.9199  0.3174  0.2852
  170DOPC  H18S20712   8.153   7.000   5.278  0.2012  0.1802  0.1334
  170DOPC  H18T20713   8.100   6.907   5.428 -2.0321 -0.4843  0.8902
  170DOPC   C3320714   8.290   7.388   6.595  0.4793 -0.4564  0.0385
  170DOPC   H3X20715   8.346   7.389   6.499  1.8102  0.8197  0.7858
  170DOPC   H3Y20716   8.259   7.284   6.621  0.6556 -0.7567 -0.8827
  170DOPC   C3420717   8.386   7.441   6.696  0.6511 -0.1139  0.1383
  170DOPC   H4X20718   8.363   7.423   6.803  1.8218 -0.3382  0.3647
  170DOPC   H4Y20719   8.393   7.551   6.682  1.8304 -0.1506  0.3701
  170DOPC   C3520720   8.527   7.383   6.682 -0.4544 -0.5404  0.2101
  170DOPC   H5X20721   8.553   7.385   6.574 -1.6388 -1.4897 -0.1158
  170DOPC   H5Y20722   8.525   7.275   6.708  0.7578 -0.7064 -0.3640
  170DOPC   C3620723   8.630   7.460   6.766 -0.4241  0.5647 -0.3516
  170DOPC   H6X20724   8.610   7.458   6.875 -1.8374  1.4592 -0.5760
  170DOPC   H6Y20725   8.721   7.402   6.738 -1.1891  0.2253 -2.3395
  170DOPC   C3720726   8.650   7.605   6.733 -0.0426 -0.8023  0.3759
  170DOPC   H7X20727   8.564   7.662   6.772  0.0429  1.7063 -2.7072
  170DOPC   H7Y20728   8.741   7.646   6.782  0.1806  2.2305 -2.2355
  170DOPC   C3820729   8.654   7.635   6.580 -0.4462 -0.1408 -0.0515
  170DOPC   H8X20730   8.559   7.607   6.530 -0.6732  0.0949  0.2376
  170DOPC   H8Y20731   8.744   7.577   6.552 -0.0654  0.8209 -0.9002
  170DOPC   C3920732   8.684   7.781   6.543 -0.3275 -0.0830 -0.2671
  170DOPC   H9X20733   8.752   7.830   6.614 -0.5980 -0.2207  0.0888
  170DOPC  C31020734   8.675   7.840   6.425  0.3369  0.0204 -0.4280
  170DOPC  H10X20735   8.673   7.949   6.435  1.9699 -0.1032  1.7473
  170DOPC  C31120736   8.602   7.779   6.301 -0.5343  0.0220 -0.8881
  170DOPC  H11X20737   8.502   7.737   6.327 -0.0173 -1.0104 -0.4862
  170DOPC  H11Y20738   8.666   7.696   6.262  0.7286 -0.4262  1.8612
  170DOPC  C31220739   8.579   7.871   6.185 -0.7016 -0.3987  0.9125
  170DOPC  H12X20740   8.672   7.927   6.159 -1.1442  0.4023  0.9973
  170DOPC  H12Y20741   8.500   7.944   6.213  0.6215  1.5068 -0.0311
  170DOPC  C31320742   8.524   7.803   6.062  0.7850 -0.0595  0.0116
  170DOPC  H13X20743   8.590   7.724   6.019 -1.1901 -1.5891 -0.3873
  170DOPC  H13Y20744   8.432   7.747   6.086  0.9481 -0.3448 -0.0246
  170DOPC  C31420745   8.487   7.908   5.960  0.1166  0.3350  0.3437
  170DOPC  H14X20746   8.420   7.871   5.879  1.8915  0.6612 -1.3510
  170DOPC  H14Y20747   8.434   7.995   6.003 -1.0584 -1.1232  1.9641
  170DOPC  C31520748   8.607   7.944   5.874 -0.0252  0.6753 -0.5396
  170DOPC  H15X20749   8.644   7.849   5.830 -0.0232  0.8052 -0.8183
  170DOPC  H15Y20750   8.687   7.984   5.939  0.4712 -1.4355  0.2208
  170DOPC  C31620751   8.567   8.049   5.764  0.8866 -0.3354  0.2011
  170DOPC  H16X20752   8.500   7.997   5.692  1.4779 -1.5497  0.5046
  170DOPC  H16Y20753   8.506   8.125   5.817 -2.4006 -1.7422 -1.2954
  170DOPC  C31720754   8.686   8.109   5.687  0.2258 -0.5821 -1.5830
  170DOPC  H17X20755   8.649   8.183   5.613  1.0016  0.7379 -0.7023
  170DOPC  H17Y20756   8.739   8.174   5.760 -1.3572  0.5142 -1.3530
  170DOPC  C31820757   8.772   8.009   5.608 -0.1840 -0.1718 -0.5945
  170DOPC  H18X20758   8.828   7.944   5.679 -1.3396 -1.7717 -1.1035
  170DOPC  H18Y20759   8.695   7.944   5.560 -1.0051 -0.6398  1.2865
  170DOPC  H18Z20760   8.845   8.062   5.542  1.3792  1.6934  2.3888
  171DOPC     N20761   3.277   3.087   2.885 -0.3670 -0.0285  0.0246
  171DOPC   C1220762   3.379   2.967   2.885 -0.1342 -0.2501  0.2836
  171DOPC  H12A20763   3.418   2.964   2.784 -0.5551  0.6232  0.0776
  171DOPC  H12B20764   3.325   2.879   2.915 -1.9202 -0.1037 -2.1251
  171DOPC   C1320765   3.344   3.213   2.862  0.5530  0.1278  0.0358
  171DOPC  H13A20766   3.388   3.229   2.765 -0.2080  2.2023 -0.0102
  171DOPC  H13B20767   3.291   3.307   2.873 -0.1912 -0.3810  0.9899
  171DOPC  H13C20768   3.430   3.227   2.926 -1.2517  0.1795  2.6154
  171DOPC   C1420769   3.213   3.098   3.022  0.5855  0.1815  0.7132
  171DOPC  H14A20770   3.284   3.105   3.104  2.0172  0.5354 -0.4985
  171DOPC  H14B20771   3.148   3.184   3.022 -1.3135 -1.1785  2.3143
  171DOPC  H14C20772   3.136   3.026   3.045  0.1748  0.4865  0.2951
  171DOPC   C1520773   3.172   3.069   2.781  0.5563 -0.0470  1.0237
  171DOPC  H15A20774   3.109   3.156   2.771  2.2359  0.9671 -2.0752
  171DOPC  H15B20775   3.117   2.976   2.789 -0.4104  0.2803 -1.1497
  171DOPC  H15C20776   3.225   3.050   2.688 -0.2137 -3.3274  1.1406
  171DOPC   C1120777   3.504   2.994   2.973  0.3177 -0.2048 -1.0936
  171DOPC  H11A20778   3.472   2.996   3.080  1.6473 -1.4528 -0.6300
  171DOPC  H11B20779   3.573   2.908   2.956  1.2589 -0.0935  1.6436
  171DOPC     P20780   3.701   3.153   3.012  0.4485  0.3347 -0.1553
  171DOPC   O1320781   3.760   3.261   2.929  0.1275 -0.5137  0.0931
  171DOPC   O1420782   3.779   3.032   3.047 -0.0734  0.3927 -0.1563
  171DOPC   O1220783   3.571   3.112   2.940 -0.2918 -0.9832  0.0965
  171DOPC   O1120784   3.649   3.222   3.141  0.4026 -0.2673 -0.1095
  171DOPC    C120785   3.555   3.327   3.124  0.1098 -0.5164  0.7699
  171DOPC    HA20786   3.459   3.288   3.084  0.6016 -0.9296 -0.0533
  171DOPC    HB20787   3.590   3.407   3.055  0.6600 -1.3770  0.0377
  171DOPC    C220788   3.537   3.401   3.258  0.7017 -0.8136  0.5695
  171DOPC    HS20789   3.514   3.314   3.323 -0.5910 -2.2373 -1.6672
  171DOPC   O2120790   3.440   3.501   3.250 -0.1891 -0.1693 -0.0299
  171DOPC   C2120791   3.320   3.449   3.271 -0.5215 -0.0387 -0.7731
  171DOPC   O2220792   3.293   3.334   3.287 -0.0964  0.8122  0.2491
  171DOPC   C2220793   3.217   3.564   3.269 -0.0106 -0.5388  0.7295
  171DOPC   H2R20794   3.110   3.533   3.268 -1.0041  2.5523 -0.7529
  171DOPC   H2S20795   3.233   3.621   3.174 -1.0249 -0.1858  0.7594
  171DOPC    C320796   3.665   3.458   3.329 -0.0997  0.1610  0.2603
  171DOPC    HX20797   3.710   3.541   3.270  1.5046 -0.9734 -0.1828
  171DOPC    HY20798   3.735   3.372   3.318  1.4431  1.3310  0.6269
  171DOPC   O3120799   3.645   3.491   3.469 -0.0053 -0.1402 -0.6604
  171DOPC   C3120800   3.628   3.618   3.498 -0.3910 -0.4599 -0.2021
  171DOPC   O3220801   3.612   3.709   3.422  0.0691  0.2508 -0.6856
  171DOPC   C3220802   3.610   3.628   3.654  0.4791 -0.1316  0.1261
  171DOPC   H2X20803   3.502   3.618   3.679  1.0181 -0.5095  2.6027
  171DOPC   H2Y20804   3.654   3.534   3.692  1.2763  0.0851 -0.2440
  171DOPC   C2320805   3.241   3.657   3.388  0.7125 -0.3602  0.0982
  171DOPC   H3R20806   3.165   3.737   3.378  0.7954 -0.2678  0.2086
  171DOPC   H3S20807   3.345   3.695   3.378  0.5322 -0.1312 -0.9995
  171DOPC   C2420808   3.200   3.604   3.528  0.2088  0.1310  0.2849
  171DOPC   H4R20809   3.281   3.530   3.549 -1.6835 -1.2528  3.3272
  171DOPC   H4S20810   3.111   3.537   3.526 -0.6516  1.2460  0.6312
  171DOPC   C2520811   3.189   3.708   3.636 -0.2305 -0.2186 -0.1239
  171DOPC   H5R20812   3.109   3.777   3.605 -3.2860 -3.1583  0.6789
  171DOPC   H5S20813   3.283   3.767   3.644 -1.1948  1.2671  0.8415
  171DOPC   C2620814   3.162   3.647   3.773 -0.3214  0.1639  0.1468
  171DOPC   H6R20815   3.192   3.719   3.852 -0.6271  0.3520  0.0941
  171DOPC   H6S20816   3.233   3.563   3.784  0.2893  0.6523 -0.0014
  171DOPC   C2720817   3.027   3.588   3.806  0.5205  0.0230  0.1341
  171DOPC   H7R20818   3.022   3.492   3.750  2.8922  1.6557 -3.1758
  171DOPC   H7S20819   2.943   3.648   3.764  0.3913 -0.6522 -0.6016
  171DOPC   C2820820   3.002   3.562   3.955  0.2922  0.2849 -0.7430
  171DOPC   H8R20821   3.011   3.661   4.006  1.3989  0.5056 -1.3371
  171DOPC   H8S20822   3.082   3.496   3.995 -0.1757 -0.7113 -1.4371
  171DOPC   C2920823   2.862   3.509   3.979 -0.2326  0.4310 -0.8150
  171DOPC   H9R20824   2.844   3.404   3.949 -0.9157  0.2977  0.0365
  171DOPC  C21020825   2.759   3.575   4.041 -0.6871 -0.2027 -0.0972
  171DOPC  H10R20826   2.665   3.523   4.065  0.7218 -1.2685  3.8546
  171DOPC  C21120827   2.765   3.716   4.098 -0.6746 -0.4467  0.1685
  171DOPC  H11R20828   2.736   3.795   4.026  2.5295 -0.4101 -1.2816
  171DOPC  H11S20829   2.870   3.727   4.133 -1.0661  1.1294  0.9807
  171DOPC  C21220830   2.663   3.740   4.216  0.4052 -0.3605 -0.2863
  171DOPC  H12R20831   2.690   3.828   4.279  1.7151 -2.5477  2.4255
  171DOPC  H12S20832   2.677   3.645   4.271  0.5712 -1.3375 -1.9742
  171DOPC  C21320833   2.512   3.754   4.177  0.0999 -0.8380  0.4138
  171DOPC  H13R20834   2.465   3.658   4.147 -1.2782  0.0446 -0.4080
  171DOPC  H13S20835   2.505   3.827   4.093  0.9408 -0.9034  0.2864
  171DOPC  C21420836   2.427   3.817   4.288  0.5854  0.7842  0.2101
  171DOPC  H14R20837   2.461   3.922   4.298  1.4926  0.3014  3.0479
  171DOPC  H14S20838   2.446   3.773   4.388 -1.7091 -0.9781 -0.0540
  171DOPC  C21520839   2.273   3.823   4.265 -0.1017  0.4369  0.3702
  171DOPC  H15R20840   2.225   3.739   4.210 -1.7598  0.1451  2.1585
  171DOPC  H15S20841   2.254   3.919   4.214 -0.1389 -0.1126 -0.6853
  171DOPC  C21620842   2.206   3.818   4.407  0.3069 -0.6107  0.1137
  171DOPC  H16R20843   2.105   3.848   4.373  0.7142 -1.1100 -1.6519
  171DOPC  H16S20844   2.240   3.900   4.474  2.0634 -1.4149  0.2571
  171DOPC  C21720845   2.215   3.679   4.465 -0.2247  0.3334  0.0349
  171DOPC  H17R20846   2.319   3.665   4.500  0.5608  1.2109 -1.8011
  171DOPC  H17S20847   2.196   3.600   4.389  0.8561  1.7141 -1.7662
  171DOPC  C21820848   2.119   3.669   4.579  0.1509 -0.3376 -0.5269
  171DOPC  H18R20849   2.016   3.683   4.542  0.0562  0.1495 -0.1018
  171DOPC  H18S20850   2.146   3.737   4.663  1.7970 -1.3684 -0.1601
  171DOPC  H18T20851   2.126   3.564   4.614  1.5152 -0.1770 -0.2643
  171DOPC   C3320852   3.665   3.749   3.727 -0.3287 -0.4169 -0.4737
  171DOPC   H3X20853   3.658   3.841   3.666  0.3333  2.1520  3.0026
  171DOPC   H3Y20854   3.768   3.725   3.762 -0.4266 -0.2587 -0.0664
  171DOPC   C3420855   3.592   3.775   3.858 -0.8002  0.3654 -0.5714
  171DOPC   H4X20856   3.489   3.811   3.839 -1.1025 -0.9858 -1.6602
  171DOPC   H4Y20857   3.647   3.857   3.909  2.4917 -0.8235 -1.8774
  171DOPC   C3520858   3.593   3.653   3.951  0.0810 -0.2738  0.4309
  171DOPC   H5X20859   3.681   3.588   3.932  0.0321  0.0061 -0.8969
  171DOPC   H5Y20860   3.504   3.587   3.937  0.7713 -1.4822  1.5451
  171DOPC   C3620861   3.588   3.695   4.099 -0.0622 -0.0266 -0.8726
  171DOPC   H6X20862   3.696   3.715   4.110 -0.5465  1.7503  1.2208
  171DOPC   H6Y20863   3.526   3.786   4.110 -0.5611 -0.6268  1.8958
  171DOPC   C3720864   3.530   3.590   4.196 -0.4902 -0.4061  0.2446
  171DOPC   H7X20865   3.420   3.591   4.182 -0.6704  1.1804  1.4503
  171DOPC   H7Y20866   3.576   3.490   4.180  1.6436  0.4297  0.8351
  171DOPC   C3820867   3.543   3.632   4.343  0.1358  0.3320 -0.6236
  171DOPC   H8X20868   3.445   3.659   4.389 -0.0489 -0.3665 -0.6002
  171DOPC   H8Y20869   3.593   3.731   4.338 -2.2270  1.5204 -2.5765
  171DOPC   C3920870   3.613   3.529   4.437 -0.6342 -0.2484 -0.4500
  171DOPC   H9X20871   3.722   3.525   4.425 -0.5757 -1.8773  0.3382
  171DOPC  C31020872   3.560   3.440   4.524 -0.1497 -0.1818  0.4336
  171DOPC  H10X20873   3.627   3.366   4.570  1.7142  0.6232 -0.8454
  171DOPC  C31120874   3.413   3.444   4.560  0.9877  0.3328 -0.1070
  171DOPC  H11X20875   3.346   3.400   4.483  1.4256  2.0470 -1.5298
  171DOPC  H11Y20876   3.396   3.553   4.568  0.1464  0.1187  1.3369
  171DOPC  C31220877   3.392   3.379   4.696 -0.1992 -0.2764  0.4922
  171DOPC  H12X20878   3.294   3.417   4.731 -0.5544  1.1214 -1.8037
  171DOPC  H12Y20879   3.473   3.403   4.768 -0.2288 -0.7386  0.6893
  171DOPC  C31320880   3.376   3.229   4.688 -0.8265 -0.1007  0.7666
  171DOPC  H13X20881   3.304   3.196   4.610 -0.4054  0.9304 -0.0792
  171DOPC  H13Y20882   3.472   3.178   4.667 -1.4929 -1.8399  1.7844
  171DOPC  C31420883   3.311   3.168   4.813  0.8748 -0.2842  0.3463
  171DOPC  H14X20884   3.356   3.224   4.898  1.1674  3.1830 -1.9206
  171DOPC  H14Y20885   3.202   3.188   4.817  0.5051 -2.0662  0.3040
  171DOPC  C31520886   3.328   3.018   4.845 -0.1026  0.6100  0.5366
  171DOPC  H15X20887   3.306   2.998   4.952 -1.0674  3.9551  1.1100
  171DOPC  H15Y20888   3.436   2.993   4.841 -0.8196 -3.0014  0.5048
  171DOPC  C31620889   3.257   2.934   4.740  0.0287 -0.6707 -0.3729
  171DOPC  H16X20890   3.150   2.966   4.738  0.2462  0.3170  1.5324
  171DOPC  H16Y20891   3.289   2.959   4.636  1.8188  1.1716  0.5553
  171DOPC  C31720892   3.277   2.783   4.744 -0.4969 -0.2546 -0.8595
  171DOPC  H17X20893   3.383   2.753   4.731  0.4014  0.9459  2.4647
  171DOPC  H17Y20894   3.241   2.765   4.848 -0.2698 -0.9870 -0.8973
  171DOPC  C31820895   3.197   2.708   4.639 -0.5493 -0.1592  0.2450
  171DOPC  H18X20896   3.224   2.736   4.535 -3.6115  3.0641  0.1076
  171DOPC  H18Y20897   3.220   2.600   4.647  2.8227  0.2152 -2.4997
  171DOPC  H18Z20898   3.088   2.724   4.657 -1.0841 -1.9246 -1.1389
  172DOPC     N20899   2.075   5.247   3.058 -0.5156  0.5891  0.1919
  172DOPC   C1220900   2.005   5.117   3.096 -0.1028  0.4491  0.4404
  172DOPC  H12A20901   2.076   5.050   3.141 -0.4913 -1.3313 -1.4357
  172DOPC  H12B20902   1.984   5.063   3.005  0.0212  0.6158  0.3126
  172DOPC   C1320903   2.127   5.311   3.182  0.8383 -0.0533  0.4115
  172DOPC  H13A20904   2.218   5.262   3.214  0.8115  0.6764  1.6759
  172DOPC  H13B20905   2.155   5.413   3.158  1.3674 -0.5690 -1.3235
  172DOPC  H13C20906   2.055   5.321   3.261  1.9560 -0.5515  1.5184
  172DOPC   C1420907   1.987   5.336   2.985  0.1591 -0.8687  0.4269
  172DOPC  H14A20908   2.030   5.434   2.971 -1.7532 -0.1557 -0.8823
  172DOPC  H14B20909   1.967   5.297   2.886 -0.7748 -0.3125  0.3793
  172DOPC  H14C20910   1.887   5.339   3.027 -0.4076 -0.7981 -0.8499
  172DOPC   C1520911   2.202   5.223   2.973  0.1982 -0.2803  0.9271
  172DOPC  H15A20912   2.175   5.182   2.876 -1.4528  0.5994  0.9808
  172DOPC  H15B20913   2.257   5.137   3.009  1.5669 -0.5150 -1.4897
  172DOPC  H15C20914   2.258   5.315   2.970 -1.9541  1.0569 -0.2438
  172DOPC   C1120915   1.887   5.131   3.191 -0.1549  0.7108  0.0028
  172DOPC  H11A20916   1.860   5.031   3.231 -4.1296  1.3220 -0.7257
  172DOPC  H11B20917   1.921   5.173   3.288  1.2764 -1.8488  0.7148
  172DOPC     P20918   1.663   5.122   3.063 -0.0769  0.2709  0.3320
  172DOPC   O1320919   1.729   5.047   2.949  0.5337  0.1455  0.1947
  172DOPC   O1420920   1.555   5.216   3.016 -0.0545  0.5470  0.6386
  172DOPC   O1220921   1.778   5.205   3.135  0.1662 -0.3902 -0.2329
  172DOPC   O1120922   1.601   5.020   3.165  0.3443  0.9136  0.3866
  172DOPC    C120923   1.496   5.066   3.252 -0.0915  0.1381  0.0399
  172DOPC    HA20924   1.437   4.977   3.282  0.4499 -0.2867 -0.1489
  172DOPC    HB20925   1.417   5.126   3.200 -0.3685  0.1364  0.4533
  172DOPC    C220926   1.552   5.152   3.372  0.1939 -0.3272  0.6519
  172DOPC    HS20927   1.609   5.238   3.330 -1.3037 -0.3001 -1.5038
  172DOPC   O2120928   1.632   5.073   3.460 -0.7123 -0.8141  0.0640
  172DOPC   C2120929   1.728   5.136   3.525  0.4125  1.0167 -0.0106
  172DOPC   O2220930   1.755   5.252   3.512  0.1571  0.2489  0.6644
  172DOPC   C2220931   1.785   5.042   3.634 -0.1809  0.2510 -0.5694
  172DOPC   H2R20932   1.808   4.944   3.587 -3.1483 -1.1284  0.5717
  172DOPC   H2S20933   1.703   5.020   3.706 -1.3403 -4.4535 -2.9260
  172DOPC    C320934   1.433   5.213   3.452 -0.5836 -0.4332 -0.0929
  172DOPC    HX20935   1.385   5.132   3.511 -0.9940 -0.3610 -0.3215
  172DOPC    HY20936   1.357   5.242   3.376 -2.3008 -2.3538  0.7940
  172DOPC   O3120937   1.464   5.319   3.538 -0.2408  0.7875 -0.4266
  172DOPC   C3120938   1.491   5.439   3.483  0.6375 -0.1623 -0.1603
  172DOPC   O3220939   1.496   5.463   3.363 -0.3587  0.5930  0.0577
  172DOPC   C3220940   1.524   5.539   3.594  0.8415  0.7629 -1.2294
  172DOPC   H2X20941   1.631   5.521   3.616  0.1112  0.8037  3.5000
  172DOPC   H2Y20942   1.513   5.640   3.550  0.4299  1.1000 -0.3758
  172DOPC   C2320943   1.904   5.098   3.710 -0.1354  0.2024 -0.3238
  172DOPC   H3R20944   1.901   5.205   3.739 -2.2925  0.3114 -0.7758
  172DOPC   H3S20945   1.988   5.093   3.637  1.0880 -0.7127  1.0729
  172DOPC   C2420946   1.941   5.004   3.829  0.1671  0.6966 -0.6401
  172DOPC   H4R20947   1.853   4.983   3.893  1.8634 -2.2597  0.9186
  172DOPC   H4S20948   2.010   5.059   3.896  0.9274  1.0775 -1.7072
  172DOPC   C2520949   1.992   4.860   3.792 -0.1005 -0.0201  0.2022
  172DOPC   H5R20950   2.100   4.869   3.769  0.1332 -2.2641  0.2232
  172DOPC   H5S20951   1.944   4.824   3.698  0.4874  0.0577 -0.1307
  172DOPC   C2620952   1.964   4.761   3.902  0.4325 -0.0868  0.0633
  172DOPC   H6R20953   1.995   4.665   3.857 -0.7647 -0.2102 -0.5459
  172DOPC   H6S20954   1.857   4.748   3.931  0.1291  1.6553 -0.1548
  172DOPC   C2720955   2.048   4.790   4.027  0.1854 -0.3438  0.0981
  172DOPC   H7R20956   2.002   4.879   4.075  1.2095 -0.4534  1.3265
  172DOPC   H7S20957   2.154   4.811   3.999 -0.0474  0.0840 -0.4923
  172DOPC   C2820958   2.061   4.679   4.124  0.1894 -0.0427  0.4104
  172DOPC   H8R20959   2.110   4.714   4.217 -1.4942  1.9758  0.6088
  172DOPC   H8S20960   2.137   4.607   4.086 -0.7488 -0.6564 -0.3417
  172DOPC   C2920961   1.933   4.611   4.163 -0.1488 -0.0911  0.1319
  172DOPC   H9R20962   1.924   4.509   4.125  1.5027 -0.1712 -0.1454
  172DOPC  C21020963   1.845   4.662   4.251  0.3127 -0.5319 -0.3232
  172DOPC  H10R20964   1.755   4.603   4.275 -0.0086  1.2131  3.6357
  172DOPC  C21120965   1.851   4.796   4.324 -1.1413 -0.6698  0.1309
  172DOPC  H11R20966   1.938   4.865   4.316 -2.8291  1.8215  1.7900
  172DOPC  H11S20967   1.852   4.764   4.431 -0.2831 -1.9106 -0.2213
  172DOPC  C21220968   1.734   4.893   4.309  0.1973  0.1970 -0.4689
  172DOPC  H12R20969   1.643   4.837   4.340  0.8037  1.0710  3.4905
  172DOPC  H12S20970   1.712   4.909   4.202 -3.4464 -0.1904  0.0886
  172DOPC  C21320971   1.727   5.020   4.396  0.0822  0.4531  0.6242
  172DOPC  H13R20972   1.703   4.972   4.493  0.0789  0.2189  0.5108
  172DOPC  H13S20973   1.644   5.086   4.362  1.9700  1.5097 -2.3374
  172DOPC  C21420974   1.857   5.095   4.415 -0.0537 -0.3827  0.3814
  172DOPC  H14R20975   1.895   5.136   4.318 -0.0574  0.7494  0.8448
  172DOPC  H14S20976   1.937   5.031   4.457  2.0869  2.5228  1.0194
  172DOPC  C21520977   1.857   5.215   4.513 -0.2473 -0.2253  0.0998
  172DOPC  H15R20978   1.955   5.266   4.519  0.6083 -1.8139  0.1173
  172DOPC  H15S20979   1.859   5.179   4.619  1.7849  2.7137  1.1922
  172DOPC  C21620980   1.741   5.311   4.494  0.2090  0.4284  0.8182
  172DOPC  H16R20981   1.740   5.381   4.581  1.2332  1.1518  0.2799
  172DOPC  H16S20982   1.650   5.248   4.485  1.1260 -0.7929 -0.2245
  172DOPC  C21720983   1.766   5.403   4.375  0.7127 -0.3339  0.0435
  172DOPC  H17R20984   1.828   5.348   4.302  1.0644  0.1451 -0.0289
  172DOPC  H17S20985   1.838   5.483   4.406  2.8189 -2.2220  0.2594
  172DOPC  C21820986   1.638   5.471   4.322  0.4139  0.6295  0.0184
  172DOPC  H18R20987   1.595   5.542   4.395  0.9232  0.7114  0.2424
  172DOPC  H18S20988   1.570   5.385   4.304  0.4288  0.9120 -1.5634
  172DOPC  H18T20989   1.647   5.527   4.226  0.8880  0.2915 -0.1405
  172DOPC   C3320990   1.448   5.528   3.730  0.0740  0.0730  0.0898
  172DOPC   H3X20991   1.489   5.446   3.793  2.9784  1.9342  0.8256
  172DOPC   H3Y20992   1.341   5.508   3.709  0.3709 -1.2106 -0.3072
  172DOPC   C3420993   1.450   5.657   3.812 -0.7204  0.9442 -0.6097
  172DOPC   H4X20994   1.427   5.745   3.748 -0.9576  1.0371 -0.4009
  172DOPC   H4Y20995   1.553   5.670   3.852 -0.9408 -0.2360  0.4024
  172DOPC   C3520996   1.342   5.658   3.927 -1.1013 -1.1461  0.2185
  172DOPC   H5X20997   1.242   5.667   3.878 -0.0217 -1.5232 -2.1862
  172DOPC   H5Y20998   1.346   5.756   3.980  1.9279 -0.7966 -0.4978
  172DOPC   C3620999   1.348   5.540   4.023  0.4193 -0.3595 -0.5490
  172DOPC   H6X21000   1.346   5.449   3.959  2.2698 -0.5895 -0.3152
  172DOPC   H6Y21001   1.439   5.545   4.087  1.1477  2.6747 -1.6457
  172DOPC   C3721002   1.227   5.530   4.116 -0.6239  0.1641 -0.2268
  172DOPC   H7X21003   1.205   5.624   4.170 -0.8082 -1.5129  2.8657
  172DOPC   H7Y21004   1.141   5.512   4.049 -0.0682  2.1544 -1.5656
  172DOPC   C3821005   1.248   5.416   4.213 -0.4087  0.1748  0.0026
  172DOPC   H8X21006   1.340   5.427   4.275 -0.1888 -1.4689  0.0098
  172DOPC   H8Y21007   1.273   5.319   4.165  1.9615  0.3501  0.7560
  172DOPC   C3921008   1.128   5.400   4.298 -0.2421 -0.7153 -0.0383
  172DOPC   H9X21009   1.046   5.342   4.253 -1.6890 -0.8400  2.5525
  172DOPC  C31021010   1.105   5.459   4.421 -0.4089  0.1975  0.3095
  172DOPC  H10X21011   1.001   5.450   4.455 -0.3538 -1.3709  0.1176
  172DOPC  C31121012   1.203   5.546   4.499 -0.1478 -0.2837  0.2324
  172DOPC  H11X21013   1.181   5.649   4.461  0.2545  0.2796  1.4610
  172DOPC  H11Y21014   1.311   5.530   4.479  0.1620 -2.2378  2.9566
  172DOPC  C31221015   1.169   5.562   4.650  0.1170  0.9810  0.0417
  172DOPC  H12X21016   1.234   5.640   4.696 -0.3533  1.3052  0.1552
  172DOPC  H12Y21017   1.198   5.466   4.699  2.5248  1.6753  0.1324
  172DOPC  C31321018   1.028   5.597   4.677  1.1576  1.0666  0.0925
  172DOPC  H13X21019   0.973   5.664   4.608 -0.6322  0.9917  1.3628
  172DOPC  H13Y21020   0.972   5.501   4.680  0.1838  1.5943 -0.7152
  172DOPC  C31421021   1.005   5.662   4.820 -0.1651  0.5753  0.4992
  172DOPC  H14X21022   1.010   5.573   4.886 -2.3627  0.1589  0.1733
  172DOPC  H14Y21023   1.073   5.748   4.841  2.1767 -0.9565 -0.3427
  172DOPC  C31521024   0.856   5.710   4.829  0.1374  0.3988  0.2827
  172DOPC  H15X21025   0.798   5.629   4.780 -0.7964  0.8063  0.6942
  172DOPC  H15Y21026   0.849   5.810   4.782  0.1238 -0.7883 -2.4172
  172DOPC  C31621027   0.807   5.715   4.975  0.2525 -0.1091  0.9149
  172DOPC  H16X21028   0.823   5.618   5.028 -1.1184 -0.8804 -0.0382
  172DOPC  H16Y21029   0.850   5.801   5.032 -1.4750  0.9756  0.6474
  172DOPC  C31721030   0.656   5.752   4.996  0.5609 -0.0653  0.3435
  172DOPC  H17X21031   0.618   5.832   4.929 -0.1365  0.3404  1.2039
  172DOPC  H17Y21032   0.592   5.663   4.981  0.4948  0.1477 -0.7101
  172DOPC  C31821033   0.637   5.804   5.133  0.7176  0.7944  0.0864
  172DOPC  H18X21034   0.678   5.730   5.205  0.7931 -0.8849 -1.6281
  172DOPC  H18Y21035   0.688   5.901   5.155  5.0247 -0.8463 -1.5799
  172DOPC  H18Z21036   0.532   5.835   5.150  0.6264  0.9513 -0.7472
  173DOPC     N21037   3.371   1.636   2.654  0.3730  0.7712 -0.4564
  173DOPC   C1221038   3.216   1.614   2.688 -0.7753 -0.4505 -0.0726
  173DOPC  H12A21039   3.157   1.656   2.607 -0.0305  0.9874  0.0989
  173DOPC  H12B21040   3.181   1.685   2.761  0.9255  0.0257  0.3113
  173DOPC   C1321041   3.398   1.568   2.523  0.5456 -0.3205 -0.5935
  173DOPC  H13A21042   3.504   1.553   2.513  1.0755 -0.1452  3.2616
  173DOPC  H13B21043   3.359   1.468   2.529  3.1763 -1.5667 -2.6932
  173DOPC  H13C21044   3.352   1.621   2.441  0.5177 -1.4068 -1.2841
  173DOPC   C1421045   3.459   1.587   2.762  0.1136 -0.3558  0.1841
  173DOPC  H14A21046   3.563   1.580   2.735  0.3185  2.7250 -0.1214
  173DOPC  H14B21047   3.444   1.647   2.850  0.6123  0.1566 -0.0737
  173DOPC  H14C21048   3.426   1.486   2.785  0.3957 -0.6286 -0.5518
  173DOPC   C1521049   3.391   1.779   2.639  0.2378 -0.2599  0.4328
  173DOPC  H15A21050   3.362   1.839   2.724  1.6549  2.7888 -1.0898
  173DOPC  H15B21051   3.340   1.823   2.555  2.2876 -2.5594 -2.2158
  173DOPC  H15C21052   3.492   1.812   2.621  0.3632 -1.4514 -1.3529
  173DOPC   C1121053   3.176   1.482   2.749 -0.2550 -0.1223  0.3411
  173DOPC  H11A21054   3.067   1.465   2.743 -0.2799  0.3471 -0.7611
  173DOPC  H11B21055   3.222   1.404   2.684 -1.0544 -1.1224  0.9586
  173DOPC     P21056   3.174   1.542   3.006  0.2459  0.3342  0.0226
  173DOPC   O1321057   3.071   1.454   3.073  0.5860 -0.4297  0.8692
  173DOPC   O1421058   3.117   1.675   2.970  0.0889 -0.2280  0.2439
  173DOPC   O1221059   3.232   1.466   2.878 -0.1997  0.3668  0.3510
  173DOPC   O1121060   3.299   1.550   3.099 -0.1896  0.4152 -0.1623
  173DOPC    C121061   3.380   1.440   3.127  0.3539  0.6167 -0.0861
  173DOPC    HA21062   3.480   1.439   3.077  0.7124 -3.6446  0.2956
  173DOPC    HB21063   3.350   1.341   3.086 -0.7286  1.0983 -0.4769
  173DOPC    C221064   3.404   1.402   3.276 -0.2141  0.1440  1.1195
  173DOPC    HS21065   3.299   1.399   3.314 -1.3927 -0.5809 -1.8675
  173DOPC   O2121066   3.491   1.500   3.334 -0.4615  0.1212  0.3657
  173DOPC   C2121067   3.453   1.544   3.447  0.4573  0.2902 -0.1171
  173DOPC   O2221068   3.342   1.534   3.498  0.3044 -0.7191 -0.0320
  173DOPC   C2221069   3.581   1.588   3.523  0.4789  0.5055  0.3594
  173DOPC   H2R21070   3.664   1.621   3.457  0.3510 -0.3181 -0.2295
  173DOPC   H2S21071   3.609   1.491   3.569 -2.3813  0.1890  1.6324
  173DOPC    C321072   3.472   1.259   3.298  0.3159 -0.1245  0.6753
  173DOPC    HX21073   3.569   1.264   3.244 -0.8222  1.1710 -1.3666
  173DOPC    HY21074   3.410   1.192   3.235 -0.3132  2.9117 -2.1971
  173DOPC   O3121075   3.464   1.208   3.436  0.1906 -0.1298  0.8266
  173DOPC   C3121076   3.583   1.223   3.502 -0.3939  0.1387  0.6116
  173DOPC   O3221077   3.689   1.245   3.451 -0.7579  0.1472  0.4411
  173DOPC   C3221078   3.561   1.180   3.641 -0.8500 -1.0973 -0.1889
  173DOPC   H2X21079   3.511   1.257   3.704  1.9238 -0.2557  1.1107
  173DOPC   H2Y21080   3.517   1.078   3.643 -0.1507 -1.4753 -1.9737
  173DOPC   C2321081   3.547   1.693   3.622 -0.0222 -0.6349  0.1903
  173DOPC   H3R21082   3.463   1.665   3.689 -0.0133 -2.5629 -0.5374
  173DOPC   H3S21083   3.514   1.793   3.588  0.2161 -0.2954  0.9340
  173DOPC   C2421084   3.668   1.727   3.714  0.2602 -0.2347 -0.2547
  173DOPC   H4R21085   3.628   1.811   3.775  0.9540 -0.0145 -0.0907
  173DOPC   H4S21086   3.752   1.772   3.657 -0.7983  2.2785  0.0275
  173DOPC   C2521087   3.721   1.606   3.802 -0.4824 -0.7836  1.1937
  173DOPC   H5R21088   3.800   1.646   3.868  0.6276  2.7905 -1.9501
  173DOPC   H5S21089   3.760   1.519   3.744 -1.2655 -1.4104  1.5772
  173DOPC   C2621090   3.613   1.541   3.898  0.5161 -0.6101  0.1216
  173DOPC   H6R21091   3.539   1.491   3.833  0.6066 -1.0497  0.3545
  173DOPC   H6S21092   3.558   1.615   3.959 -1.1092 -0.1105 -1.8656
  173DOPC   C2721093   3.657   1.442   4.002  0.0184 -0.5716  0.4702
  173DOPC   H7R21094   3.736   1.493   4.062 -0.4190  1.4370 -0.5875
  173DOPC   H7S21095   3.703   1.349   3.962 -0.0019 -0.5169  0.3196
  173DOPC   C2821096   3.539   1.399   4.093  0.3897 -0.5876 -0.5958
  173DOPC   H8R21097   3.449   1.369   4.035  0.7619 -0.2154 -1.3744
  173DOPC   H8S21098   3.512   1.492   4.148 -0.0763 -2.4029  2.4890
  173DOPC   C2921099   3.583   1.290   4.190  0.0275 -0.2803 -0.2707
  173DOPC   H9R21100   3.546   1.187   4.177  1.6965 -1.1154  1.0938
  173DOPC  C21021101   3.641   1.323   4.303  0.2328  0.5093  0.4023
  173DOPC  H10R21102   3.665   1.239   4.371 -1.7721  0.9602  1.7604
  173DOPC  C21121103   3.688   1.457   4.342 -0.3363  0.3531 -0.1140
  173DOPC  H11R21104   3.612   1.511   4.403  1.0371  2.7711 -0.4342
  173DOPC  H11S21105   3.709   1.516   4.251 -1.0610  0.8031  0.0015
  173DOPC  C21221106   3.823   1.445   4.428 -0.4588  0.0787  0.6021
  173DOPC  H12R21107   3.852   1.549   4.454  1.6514  0.2281 -1.9240
  173DOPC  H12S21108   3.898   1.384   4.373 -0.5176  0.0545  0.5493
  173DOPC  C21321109   3.783   1.367   4.554 -0.1991  0.3630  0.2487
  173DOPC  H13R21110   3.776   1.258   4.540  2.2551 -0.1024  1.9330
  173DOPC  H13S21111   3.689   1.416   4.588 -0.5745  2.7107 -3.5421
  173DOPC  C21421112   3.896   1.392   4.659  0.1397  0.0434  0.4859
  173DOPC  H14R21113   3.904   1.503   4.670 -1.4759  0.2906 -0.5515
  173DOPC  H14S21114   3.992   1.348   4.626 -0.7645 -1.8006  0.2312
  173DOPC  C21521115   3.877   1.321   4.790  0.1561 -0.6017 -0.3507
  173DOPC  H15R21116   3.893   1.212   4.785  0.8389 -0.6549  1.8003
  173DOPC  H15S21117   3.772   1.334   4.822  0.1804 -1.6574  0.2058
  173DOPC  C21621118   3.972   1.349   4.909 -0.6514 -0.1827  0.0616
  173DOPC  H16R21119   4.068   1.301   4.879  0.5867  0.4200  2.7325
  173DOPC  H16S21120   3.929   1.302   5.000  1.0176 -0.2771  0.8421
  173DOPC  C21721121   3.980   1.499   4.944 -0.0984  0.5916 -0.0932
  173DOPC  H17R21122   3.879   1.533   4.975 -1.4322 -2.4811 -0.6400
  173DOPC  H17S21123   3.997   1.549   4.846  0.2424  0.3448 -0.1619
  173DOPC  C21821124   4.093   1.527   5.042 -0.3706 -0.2684  0.1599
  173DOPC  H18R21125   4.118   1.633   5.020  1.0424 -0.4674  0.7016
  173DOPC  H18S21126   4.179   1.459   5.020  0.2147  0.3758  0.4061
  173DOPC  H18T21127   4.065   1.521   5.149 -0.9443 -1.0540 -0.0294
  173DOPC   C3321128   3.701   1.154   3.706  0.4093 -0.3676  0.0784
  173DOPC   H3X21129   3.753   1.246   3.741  1.9648 -1.1523 -0.0921
  173DOPC   H3Y21130   3.773   1.097   3.644  0.2333 -1.8995  1.2484
  173DOPC   C3421131   3.683   1.072   3.838 -0.6311  0.1723 -0.6007
  173DOPC   H4X21132   3.594   1.110   3.894 -0.0215 -1.0104  1.2594
  173DOPC   H4Y21133   3.767   1.091   3.908 -1.6785  0.6475  0.5581
  173DOPC   C3521134   3.670   0.920   3.814 -0.5543 -0.4822  0.2250
  173DOPC   H5X21135   3.730   0.898   3.724  1.9501 -0.5363  1.7988
  173DOPC   H5Y21136   3.571   0.894   3.773 -1.8018  1.2051  1.9885
  173DOPC   C3621137   3.702   0.826   3.931 -0.2766  0.4159  0.0993
  173DOPC   H6X21138   3.715   0.722   3.893  0.6702  0.6336 -0.2159
  173DOPC   H6Y21139   3.806   0.846   3.966  0.3676 -1.7056 -0.4464
  173DOPC   C3721140   3.604   0.841   4.051 -0.8205 -0.3968 -0.0878
  173DOPC   H7X21141   3.619   0.945   4.086 -0.4748 -0.0419 -1.2405
  173DOPC   H7Y21142   3.502   0.818   4.013 -1.4120 -2.0368  2.2494
  173DOPC   C3821143   3.637   0.756   4.178  0.6050 -0.6665  0.1789
  173DOPC   H8X21144   3.736   0.783   4.221 -0.2236  1.1539  1.0717
  173DOPC   H8Y21145   3.641   0.650   4.146  0.9766 -1.3908  2.4833
  173DOPC   C3921146   3.523   0.786   4.268  0.3010  0.1871 -0.4922
  173DOPC   H9X21147   3.431   0.743   4.226  0.2488  0.0336 -0.2207
  173DOPC  C31021148   3.525   0.856   4.388  0.7485  0.0110  0.4686
  173DOPC  H10X21149   3.431   0.861   4.445  0.6873 -0.4235  0.4088
  173DOPC  C31121150   3.640   0.923   4.454  0.3803  0.0077 -0.3552
  173DOPC  H11X21151   3.632   1.032   4.435 -1.0356 -0.0387 -0.1835
  173DOPC  H11Y21152   3.733   0.888   4.404  0.6132  1.2622 -0.8127
  173DOPC  C31221153   3.645   0.885   4.607  0.0298 -0.0836 -0.4701
  173DOPC  H12X21154   3.631   0.776   4.628 -0.3964 -0.1247 -0.9442
  173DOPC  H12Y21155   3.555   0.931   4.652  0.6194  0.4822  0.1515
  173DOPC  C31321156   3.777   0.931   4.679  0.2200 -0.0268 -0.0686
  173DOPC  H13X21157   3.864   0.891   4.623  0.8802  1.5419 -0.2202
  173DOPC  H13Y21158   3.788   1.041   4.686 -0.1792 -0.0916  2.1680
  173DOPC  C31421159   3.801   0.874   4.819 -0.8362  0.4829  0.1781
  173DOPC  H14X21160   3.734   0.920   4.895  1.3331  2.1303  1.2039
  173DOPC  H14Y21161   3.782   0.765   4.823  0.9068  0.1796  1.3685
  173DOPC  C31521162   3.945   0.891   4.887  0.0388  0.0373  0.4740
  173DOPC  H15X21163   3.988   0.990   4.861  1.0471  0.0517  2.0769
  173DOPC  H15Y21164   4.024   0.832   4.835  0.7540 -0.4042  2.0236
  173DOPC  C31621165   3.943   0.866   5.034  0.1291 -0.2787 -0.0997
  173DOPC  H16X21166   3.866   0.930   5.083 -0.1045  0.4994 -1.4305
  173DOPC  H16Y21167   3.924   0.759   5.059  1.9458 -0.8846 -1.1468
  173DOPC  C31721168   4.085   0.898   5.083 -0.2306 -0.1314  0.2514
  173DOPC  H17X21169   4.151   0.854   5.006  2.5765  2.3366  1.0608
  173DOPC  H17Y21170   4.098   1.008   5.095 -1.8310  0.7568 -4.0386
  173DOPC  C31821171   4.115   0.823   5.213 -0.0479  0.6356 -0.2102
  173DOPC  H18X21172   4.048   0.852   5.296 -0.4001 -1.9664  0.4973
  173DOPC  H18Y21173   4.096   0.717   5.186  1.7180  1.1633 -4.3423
  173DOPC  H18Z21174   4.220   0.849   5.239 -0.1966  0.8784  0.1451
  174DOPC     N21175   5.186   2.849   2.855  0.0514  0.0185 -0.0754
  174DOPC   C1221176   5.223   2.918   2.989  0.6177  0.0337  0.0573
  174DOPC  H12A21177   5.137   2.974   3.024  0.2626  0.8137 -1.9692
  174DOPC  H12B21178   5.304   2.986   2.968  0.2655 -0.3696 -3.0364
  174DOPC   C1321179   5.194   2.960   2.751 -0.1938 -0.2831 -0.2213
  174DOPC  H13A21180   5.196   2.913   2.653  0.7981 -0.9041  0.0832
  174DOPC  H13B21181   5.112   3.030   2.759  1.0820  1.5150 -1.7550
  174DOPC  H13C21182   5.284   3.019   2.753 -0.7430  0.5897 -0.4471
  174DOPC   C1421183   5.056   2.778   2.869  0.1643  1.3291 -0.2601
  174DOPC  H14A21184   4.969   2.841   2.885 -0.8482  0.7217 -2.8980
  174DOPC  H14B21185   5.026   2.723   2.781  0.1753  2.8920 -1.2995
  174DOPC  H14C21186   5.068   2.712   2.953  0.4226 -1.7771 -2.5547
  174DOPC   C1521187   5.291   2.743   2.815  0.3379 -0.3925  0.9039
  174DOPC  H15A21188   5.290   2.662   2.886 -2.5689  0.0981  1.5316
  174DOPC  H15B21189   5.390   2.782   2.834 -0.0007  0.1580  1.6208
  174DOPC  H15C21190   5.269   2.713   2.714 -1.4658  0.9530  0.8430
  174DOPC   C1121191   5.282   2.825   3.094  0.3910  0.0627 -0.5187
  174DOPC  H11A21192   5.265   2.883   3.187  0.0240  1.9071 -1.6834
  174DOPC  H11B21193   5.210   2.742   3.111  1.6472 -1.1374 -0.9314
  174DOPC     P21194   5.541   2.895   3.100  0.2195  0.5368 -0.3357
  174DOPC   O1321195   5.502   3.031   3.046  0.3589  0.1196 -0.2558
  174DOPC   O1421196   5.664   2.843   3.042  0.7417  0.4118 -0.1161
  174DOPC   O1221197   5.419   2.792   3.073  0.2848 -0.2488  0.2390
  174DOPC   O1121198   5.538   2.893   3.263 -0.1015  0.3631 -0.0281
  174DOPC    C121199   5.528   2.766   3.326  0.6040  0.7778  0.4677
  174DOPC    HA21200   5.559   2.678   3.266  2.7351  1.9258 -0.2434
  174DOPC    HB21201   5.424   2.752   3.360  0.0401  1.0670 -1.0725
  174DOPC    C221202   5.636   2.752   3.438  0.6226  0.0834 -0.0358
  174DOPC    HS21203   5.644   2.650   3.481 -0.5279  0.4492  1.1264
  174DOPC   O2121204   5.613   2.848   3.538  0.1246  0.1968 -0.2155
  174DOPC   C2121205   5.531   2.812   3.636  0.2045  0.0303  0.8671
  174DOPC   O2221206   5.474   2.704   3.643 -0.2628 -0.1844  0.0267
  174DOPC   C2221207   5.505   2.929   3.727  0.3127 -0.2107 -0.6984
  174DOPC   H2R21208   5.425   2.997   3.691  1.2091  0.7820 -0.8594
  174DOPC   H2S21209   5.591   2.999   3.737 -0.3805  0.7753 -1.4240
  174DOPC    C321210   5.778   2.779   3.371  0.0602  0.4394  0.2892
  174DOPC    HX21211   5.768   2.874   3.314  0.2882  0.5410  0.4186
  174DOPC    HY21212   5.782   2.692   3.301  1.2386  0.1653  0.6804
  174DOPC   O3121213   5.884   2.774   3.478 -0.1419 -0.4043 -0.4831
  174DOPC   C3121214   5.979   2.859   3.463  0.1560  0.2135  0.1289
  174DOPC   O3221215   5.989   2.940   3.375  0.1979  0.0424 -0.1311
  174DOPC   C3221216   6.072   2.842   3.580  0.0850  0.3842 -0.0104
  174DOPC   H2X21217   6.150   2.767   3.554 -0.6823 -1.0642  1.7147
  174DOPC   H2Y21218   6.123   2.940   3.593  0.5024  0.2271 -0.3976
  174DOPC   C2321219   5.459   2.884   3.864 -0.0041  0.4481 -0.0749
  174DOPC   H3R21220   5.380   2.805   3.860  0.4706 -0.0215 -0.3621
  174DOPC   H3S21221   5.417   2.965   3.927 -0.6820 -0.4083  0.6038
  174DOPC   C2421222   5.569   2.822   3.944 -0.1765  0.1059  0.1657
  174DOPC   H4R21223   5.648   2.900   3.944  0.7728 -0.7896 -1.3856
  174DOPC   H4S21224   5.605   2.731   3.890  0.6472  1.0932 -0.9972
  174DOPC   C2521225   5.528   2.796   4.091  0.1428  0.7686  0.0746
  174DOPC   H5R21226   5.612   2.738   4.135 -0.0632 -0.2825 -0.8729
  174DOPC   H5S21227   5.433   2.738   4.097  0.7063 -0.2609 -0.5776
  174DOPC   C2621228   5.506   2.925   4.176 -0.0760  0.7469  0.6261
  174DOPC   H6R21229   5.420   2.978   4.130  0.0427  2.2375  2.0417
  174DOPC   H6S21230   5.594   2.990   4.158 -0.7893  1.7167  0.5638
  174DOPC   C2721231   5.477   2.898   4.326 -0.3206 -0.2311 -0.4139
  174DOPC   H7R21232   5.562   2.844   4.374  0.8779  1.1733 -0.8693
  174DOPC   H7S21233   5.391   2.829   4.339  1.0325 -1.8316  0.5839
  174DOPC   C2821234   5.444   3.027   4.411 -0.4038  0.2971 -0.0511
  174DOPC   H8R21235   5.358   3.062   4.350  0.5824 -0.2177 -1.7957
  174DOPC   H8S21236   5.520   3.107   4.399 -0.9114  0.7594 -0.2402
  174DOPC   C2921237   5.386   3.025   4.557 -0.2637  1.2051  0.4540
  174DOPC   H9R21238   5.280   3.051   4.563 -0.6813  0.3346 -1.9701
  174DOPC  C21021239   5.450   3.009   4.674 -0.5031  1.6819 -0.3827
  174DOPC  H10R21240   5.399   2.998   4.771  0.1181 -0.1679 -0.2216
  174DOPC  C21121241   5.598   2.998   4.694 -0.6102 -0.4394  0.4531
  174DOPC  H11R21242   5.632   3.095   4.735  0.4837 -0.5221 -0.2115
  174DOPC  H11S21243   5.657   2.987   4.600  0.6857 -0.1685  1.2173
  174DOPC  C21221244   5.628   2.872   4.790  0.7225 -0.2656 -0.9793
  174DOPC  H12R21245   5.591   2.789   4.726 -1.9697  1.1733 -1.4473
  174DOPC  H12S21246   5.559   2.881   4.877  1.2632  2.4507 -0.7437
  174DOPC  C21321247   5.772   2.845   4.834 -0.0503 -0.3723 -0.5106
  174DOPC  H13R21248   5.801   2.929   4.900 -0.3066 -2.0186  1.8129
  174DOPC  H13S21249   5.842   2.838   4.747  1.3264 -0.6901  0.5945
  174DOPC  C21421250   5.784   2.727   4.929  0.3941 -0.1073 -0.0347
  174DOPC  H14R21251   5.890   2.698   4.945  0.4393  0.2364  0.2922
  174DOPC  H14S21252   5.723   2.644   4.888  0.8155 -0.7430  0.6106
  174DOPC  C21521253   5.739   2.764   5.078 -0.8539 -0.5911  0.5567
  174DOPC  H15R21254   5.642   2.816   5.067  0.0981  0.8500 -1.9974
  174DOPC  H15S21255   5.813   2.826   5.133  1.4081 -1.9536 -0.7471
  174DOPC  C21621256   5.736   2.633   5.162  0.2879 -0.2062  0.4729
  174DOPC  H16R21257   5.841   2.596   5.163 -0.0757 -1.2830 -0.2378
  174DOPC  H16S21258   5.674   2.553   5.117  1.9473 -1.2933  0.0306
  174DOPC  C21721259   5.707   2.659   5.309  0.3475  0.3125 -0.2724
  174DOPC  H17R21260   5.783   2.725   5.357 -0.6140  1.0516  0.2863
  174DOPC  H17S21261   5.710   2.563   5.365 -0.0339  0.8240  0.6446
  174DOPC  C21821262   5.573   2.729   5.347  0.5113 -0.1454 -0.6558
  174DOPC  H18R21263   5.568   2.739   5.457  1.7005 -1.4840 -0.4506
  174DOPC  H18S21264   5.483   2.669   5.319  0.1345  1.3380 -2.9314
  174DOPC  H18T21265   5.566   2.830   5.301  0.1813  0.3719  0.4999
  174DOPC   C3321266   6.013   2.795   3.720  0.1064  0.1535  0.7036
  174DOPC   H3X21267   6.104   2.768   3.778  0.1853  1.3292  1.1503
  174DOPC   H3Y21268   5.952   2.705   3.696  0.4651  0.2959 -0.8968
  174DOPC   C3421269   5.947   2.908   3.801 -0.1931 -0.4404  0.2167
  174DOPC   H4X21270   5.861   2.951   3.745  0.2084  2.0254  1.3545
  174DOPC   H4Y21271   6.020   2.992   3.798  0.8154 -1.3009 -2.5975
  174DOPC   C3521272   5.917   2.872   3.942 -0.7690  0.2440  0.4944
  174DOPC   H5X21273   5.877   2.768   3.941 -0.9431  0.3105 -0.3268
  174DOPC   H5Y21274   5.844   2.943   3.987 -1.5504 -0.7281  0.7891
  174DOPC   C3621275   6.042   2.877   4.031  0.7271  0.1158  0.1915
  174DOPC   H6X21276   6.128   2.817   3.993  0.9029  0.8772 -0.6245
  174DOPC   H6Y21277   6.069   2.984   4.042 -2.5025  1.3308 -2.2537
  174DOPC   C3721278   6.014   2.837   4.179 -0.0100  0.2755  0.6131
  174DOPC   H7X21279   5.954   2.744   4.174 -0.1987  0.4785 -1.8065
  174DOPC   H7Y21280   6.115   2.821   4.221  1.4641  1.0221 -2.3705
  174DOPC   C3821281   5.940   2.943   4.260  0.3536 -0.1298 -0.4303
  174DOPC   H8X21282   5.954   2.906   4.364  1.3318 -1.9013 -1.1468
  174DOPC   H8Y21283   5.838   2.929   4.218  1.2462 -1.3902 -2.3141
  174DOPC   C3921284   5.988   3.091   4.258 -0.0376  0.3453 -0.0536
  174DOPC   H9X21285   5.962   3.150   4.169  0.3508  0.7598  0.1042
  174DOPC  C31021286   6.063   3.150   4.354  0.4315 -0.1092  0.7786
  174DOPC  H10X21287   6.076   3.259   4.347 -2.5862  0.3626  1.0260
  174DOPC  C31121288   6.108   3.088   4.483  0.0214 -0.2980 -0.3275
  174DOPC  H11X21289   6.204   3.124   4.524  0.0846 -0.7902 -0.0263
  174DOPC  H11Y21290   6.108   2.977   4.477  0.4082 -0.2885 -0.4775
  174DOPC  C31221291   6.014   3.115   4.606  0.9691  0.2475  0.0052
  174DOPC  H12X21292   6.070   3.073   4.692 -0.1529 -0.2363  0.5186
  174DOPC  H12Y21293   5.922   3.053   4.604  1.8416 -1.1834  1.6847
  174DOPC  C31321294   5.987   3.266   4.618 -0.0919 -0.2955 -0.0497
  174DOPC  H13X21295   6.083   3.321   4.606  0.4841 -1.4227 -0.7442
  174DOPC  H13Y21296   5.927   3.296   4.530  1.1083 -2.2943 -1.6284
  174DOPC  C31421297   5.917   3.305   4.748  0.2681 -0.9839 -0.0514
  174DOPC  H14X21298   5.827   3.243   4.768 -0.3042 -0.9499 -2.1972
  174DOPC  H14Y21299   5.996   3.293   4.824  0.7150 -0.6672 -0.4605
  174DOPC  C31521300   5.882   3.457   4.767  1.3209  1.0597  0.4347
  174DOPC  H15X21301   5.974   3.512   4.735  1.2255 -0.4486 -2.8421
  174DOPC  H15Y21302   5.844   3.472   4.871  1.5751 -1.0107  0.8591
  174DOPC  C31621303   5.768   3.503   4.670 -0.4177  0.1272 -0.3524
  174DOPC  H16X21304   5.773   3.614   4.668  1.2400  0.0811  0.0952
  174DOPC  H16Y21305   5.796   3.469   4.568  0.0023 -0.4260 -0.0573
  174DOPC  C31721306   5.626   3.445   4.719 -0.8719  0.2356  0.3117
  174DOPC  H17X21307   5.552   3.470   4.640 -1.0939 -0.7970  0.1903
  174DOPC  H17Y21308   5.635   3.335   4.723  0.1102  0.2664 -0.5372
  174DOPC  C31821309   5.574   3.501   4.851 -0.2437 -0.3612 -0.1754
  174DOPC  H18X21310   5.557   3.609   4.830  1.3390  0.3046  1.6799
  174DOPC  H18Y21311   5.475   3.450   4.861 -0.2842 -0.4909 -1.1086
  174DOPC  H18Z21312   5.641   3.481   4.937 -0.8591 -1.1818  0.1253
  175DOPC     N21313   3.228   5.865   2.806  0.9017 -0.2871  0.1635
  175DOPC   C1221314   3.358   5.785   2.830  0.2857 -0.7420 -0.2030
  175DOPC  H12A21315   3.438   5.855   2.853  0.3527 -1.6127  2.6389
  175DOPC  H12B21316   3.390   5.732   2.742 -0.1808 -0.0321 -0.8132
  175DOPC   C1321317   3.121   5.769   2.769 -0.6758 -0.8235 -0.1534
  175DOPC  H13A21318   3.119   5.744   2.664 -2.4230 -2.5913  0.2549
  175DOPC  H13B21319   3.124   5.676   2.824 -1.5137 -0.4876  0.4898
  175DOPC  H13C21320   3.026   5.807   2.803  1.0949  1.5482  2.6035
  175DOPC   C1421321   3.231   5.951   2.688 -1.0858 -0.3034 -0.1460
  175DOPC  H14A21322   3.261   5.901   2.597  1.8039 -1.1793  1.1660
  175DOPC  H14B21323   3.140   6.002   2.661 -0.8775 -0.7287 -1.7261
  175DOPC  H14C21324   3.307   6.028   2.696 -0.3427 -0.8570 -1.5986
  175DOPC   C1521325   3.180   5.924   2.931 -0.3885 -0.4408  0.4540
  175DOPC  H15A21326   3.076   5.947   2.917 -0.4545 -0.6252  0.6407
  175DOPC  H15B21327   3.237   6.013   2.954  0.6886 -0.2364 -2.5201
  175DOPC  H15C21328   3.189   5.852   3.010 -2.7624 -1.8889 -0.4931
  175DOPC   C1121329   3.353   5.680   2.948  0.1654  0.6246  0.4600
  175DOPC  H11A21330   3.455   5.645   2.977 -0.1511 -0.0564  0.7747
  175DOPC  H11B21331   3.320   5.731   3.040  1.3634  0.2878  1.1085
  175DOPC     P21332   3.321   5.437   2.865 -0.0401  0.2312  0.3772
  175DOPC   O1321333   3.394   5.465   2.743  0.3090  0.3787 -0.4696
  175DOPC   O1421334   3.210   5.335   2.858 -0.2274  0.2237 -0.4928
  175DOPC   O1221335   3.267   5.576   2.920  0.5351  0.5855 -0.3120
  175DOPC   O1121336   3.415   5.376   2.973  0.1334 -0.9851  0.2165
  175DOPC    C121337   3.368   5.326   3.100  0.3584  0.3339  0.0018
  175DOPC    HA21338   3.410   5.229   3.132 -1.4592 -1.3334 -2.2883
  175DOPC    HB21339   3.261   5.296   3.093  1.1137 -2.1352 -2.2121
  175DOPC    C221340   3.392   5.436   3.215  0.0182 -0.3872 -0.2900
  175DOPC    HS21341   3.340   5.531   3.191 -1.0138 -0.5179  1.2824
  175DOPC   O2121342   3.531   5.462   3.234 -0.6020 -0.0724 -0.2111
  175DOPC   C2121343   3.571   5.579   3.273 -0.7164 -0.0594  0.2983
  175DOPC   O2221344   3.505   5.681   3.278  0.0123  0.1958 -0.8401
  175DOPC   C2221345   3.725   5.577   3.291  0.0686  0.3869  0.5390
  175DOPC   H2R21346   3.766   5.625   3.199  0.8747  2.0249  1.7065
  175DOPC   H2S21347   3.746   5.469   3.300 -2.4965 -0.1275  1.2406
  175DOPC    C321348   3.324   5.387   3.345  0.3962  0.6657  0.0030
  175DOPC    HX21349   3.362   5.287   3.373  0.8077  0.7161 -0.3676
  175DOPC    HY21350   3.216   5.381   3.321  0.6297 -0.0273 -0.9307
  175DOPC   O3121351   3.345   5.479   3.449  1.0089 -0.2680  0.0543
  175DOPC   C3121352   3.257   5.580   3.466 -0.1574 -0.5359  1.3020
  175DOPC   O3221353   3.154   5.589   3.398  0.3494  0.5522 -0.1915
  175DOPC   C3221354   3.301   5.666   3.580 -0.1745  0.1800 -0.4862
  175DOPC   H2X21355   3.380   5.612   3.636 -0.8632  1.3926  1.7903
  175DOPC   H2Y21356   3.347   5.760   3.543  0.4103 -0.2093 -0.7584
  175DOPC   C2321357   3.782   5.647   3.412 -0.3083 -0.5204 -0.1104
  175DOPC   H3R21358   3.743   5.751   3.416 -0.5166 -0.5745 -0.5708
  175DOPC   H3S21359   3.893   5.657   3.408 -0.2397 -0.7765  1.0092
  175DOPC   C2421360   3.762   5.582   3.549 -0.1891 -0.2394 -0.5598
  175DOPC   H4R21361   3.833   5.498   3.564 -0.6216 -0.3087  1.4395
  175DOPC   H4S21362   3.658   5.549   3.569 -0.0605  0.0321  0.6702
  175DOPC   C2521363   3.787   5.694   3.665  0.5785  0.1065  0.7463
  175DOPC   H5R21364   3.731   5.785   3.635  0.0425 -0.8411 -1.3068
  175DOPC   H5S21365   3.892   5.730   3.660  1.4324 -2.2728 -4.2534
  175DOPC   C2621366   3.743   5.639   3.800 -0.4484  0.1005 -0.1204
  175DOPC   H6R21367   3.824   5.565   3.820  1.2614  2.4029  2.0475
  175DOPC   H6S21368   3.643   5.590   3.799 -1.0157  1.1420  1.3658
  175DOPC   C2721369   3.738   5.758   3.901  0.7507  0.5755  0.6525
  175DOPC   H7R21370   3.672   5.838   3.860 -2.5135 -2.6449 -0.8631
  175DOPC   H7S21371   3.839   5.806   3.902  0.3859  1.3912 -0.0359
  175DOPC   C2821372   3.674   5.714   4.033  0.2441  0.3107 -0.0685
  175DOPC   H8R21373   3.585   5.654   4.005  0.5463 -0.3483  0.3510
  175DOPC   H8S21374   3.638   5.797   4.097 -2.2537 -0.0360 -0.9216
  175DOPC   C2921375   3.776   5.637   4.111 -0.3436  0.5532 -0.3959
  175DOPC   H9R21376   3.814   5.552   4.052 -2.5778  0.0355 -1.1911
  175DOPC  C21021377   3.818   5.644   4.239 -0.4377 -0.1694 -0.1543
  175DOPC  H10R21378   3.906   5.588   4.276 -0.0452  0.3825 -0.2423
  175DOPC  C21121379   3.766   5.732   4.344  0.4725 -0.4172  0.2589
  175DOPC  H11R21380   3.677   5.792   4.314  0.4574  2.3299  4.7999
  175DOPC  H11S21381   3.834   5.818   4.365  0.8983 -0.3098 -1.3799
  175DOPC  C21221382   3.758   5.656   4.474  0.1730  0.4740 -0.3263
  175DOPC  H12R21383   3.857   5.639   4.521  0.3638 -1.0864 -1.2554
  175DOPC  H12S21384   3.715   5.553   4.474 -0.9317  0.8341  2.5514
  175DOPC  C21321385   3.684   5.738   4.582 -0.2134 -0.4395 -0.5011
  175DOPC  H13R21386   3.573   5.736   4.571 -0.1881 -0.0461 -0.8698
  175DOPC  H13S21387   3.712   5.845   4.569  0.4718 -0.8624 -3.2035
  175DOPC  C21421388   3.713   5.696   4.725 -0.1042  0.1258 -0.1234
  175DOPC  H14R21389   3.823   5.708   4.734  0.0407 -1.5701  1.0163
  175DOPC  H14S21390   3.682   5.591   4.745  0.3432  0.5289  3.2956
  175DOPC  C21521391   3.634   5.782   4.833 -0.5245  0.0160  1.0904
  175DOPC  H15R21392   3.653   5.881   4.786  0.0254 -1.0605 -1.0978
  175DOPC  H15S21393   3.681   5.778   4.933  2.3830  0.7688 -0.1655
  175DOPC  C21621394   3.486   5.735   4.840  0.0120 -0.2474  0.1293
  175DOPC  H16R21395   3.486   5.624   4.847  1.3336 -0.1917  1.4146
  175DOPC  H16S21396   3.439   5.758   4.742  1.2365  0.2217 -0.3680
  175DOPC  C21721397   3.412   5.802   4.948  0.0418  0.4218 -0.9050
  175DOPC  H17R21398   3.425   5.912   4.935 -1.6456  0.7330 -0.1848
  175DOPC  H17S21399   3.454   5.772   5.046 -0.5238  1.3739 -0.3499
  175DOPC  C21821400   3.262   5.766   4.955 -0.2577 -0.7428  0.4976
  175DOPC  H18R21401   3.248   5.659   4.981 -1.2892 -0.1084  2.7972
  175DOPC  H18S21402   3.216   5.791   4.857  4.7364  0.8811 -1.7855
  175DOPC  H18T21403   3.209   5.810   5.043  0.9810  1.5631  0.1599
  175DOPC   C3321404   3.182   5.708   3.665 -0.3435  0.1438 -0.3572
  175DOPC   H3X21405   3.124   5.622   3.704  1.6786 -0.0032  2.6201
  175DOPC   H3Y21406   3.108   5.767   3.606 -1.7058  1.8748  2.8462
  175DOPC   C3421407   3.226   5.794   3.782  0.1416 -0.0637  0.1275
  175DOPC   H4X21408   3.139   5.820   3.845 -0.7162 -1.1243 -0.5905
  175DOPC   H4Y21409   3.269   5.891   3.747  1.3368 -0.6182  0.0120
  175DOPC   C3521410   3.342   5.736   3.862  0.4156  0.8421 -0.4672
  175DOPC   H5X21411   3.434   5.760   3.806 -0.5900 -0.5093 -2.8727
  175DOPC   H5Y21412   3.314   5.628   3.868 -0.2718  1.0265 -0.2296
  175DOPC   C3621413   3.343   5.806   4.002 -0.5310 -0.2838 -0.4044
  175DOPC   H6X21414   3.252   5.790   4.064 -1.3902  2.0405 -0.9212
  175DOPC   H6Y21415   3.431   5.773   4.060 -0.7784 -0.2449 -0.0041
  175DOPC   C3721416   3.357   5.960   3.997 -0.6704  0.3981  0.0445
  175DOPC   H7X21417   3.465   5.979   3.984 -0.5266  0.9543  1.7724
  175DOPC   H7Y21418   3.298   6.006   3.915 -1.9911 -2.4461 -0.7447
  175DOPC   C3821419   3.315   6.032   4.125  0.0682 -0.0744 -0.2907
  175DOPC   H8X21420   3.353   5.970   4.208  0.2130  0.7965  0.3042
  175DOPC   H8Y21421   3.204   6.034   4.129 -0.0021  1.1698 -1.8544
  175DOPC   C3921422   3.377   6.173   4.127  0.0332 -0.1766  0.3396
  175DOPC   H9X21423   3.316   6.250   4.076 -0.1114 -0.8434 -0.5303
  175DOPC  C31021424   3.500   6.200   4.158  0.4504  0.2001 -0.4342
  175DOPC  H10X21425   3.543   6.301   4.152  0.2611  0.4680  1.6862
  175DOPC  C31121426   3.602   6.097   4.218 -0.0404 -0.3816 -0.0985
  175DOPC  H11X21427   3.667   6.061   4.136 -1.6332  0.3087 -1.7403
  175DOPC  H11Y21428   3.558   6.000   4.249 -0.0759  0.0655  1.2956
  175DOPC  C31221429   3.691   6.153   4.341  0.6987  0.8489  0.7391
  175DOPC  H12X21430   3.763   6.230   4.307 -0.4539  0.5686 -2.7058
  175DOPC  H12Y21431   3.765   6.074   4.367  0.9418  0.7952 -0.0986
  175DOPC  C31321432   3.602   6.194   4.461  0.0929  0.1070 -0.2360
  175DOPC  H13X21433   3.675   6.200   4.546 -1.3254  1.3515  0.9468
  175DOPC  H13Y21434   3.548   6.289   4.446  0.6024  1.6734  5.3764
  175DOPC  C31421435   3.504   6.080   4.493  0.7956  0.7486  0.6046
  175DOPC  H14X21436   3.424   6.095   4.418  1.8096 -0.7164 -0.8391
  175DOPC  H14Y21437   3.555   5.984   4.472 -3.0793 -0.8260 -2.7765
  175DOPC  C31521438   3.447   6.070   4.638  0.0739  0.1985  0.3192
  175DOPC  H15X21439   3.531   6.037   4.703 -0.1875  0.2522  0.6879
  175DOPC  H15Y21440   3.363   5.998   4.640 -0.0956  0.3797 -0.2145
  175DOPC  C31621441   3.383   6.200   4.689 -0.1205  0.5454 -0.5823
  175DOPC  H16X21442   3.465   6.270   4.713 -1.3908  2.2221 -0.9387
  175DOPC  H16Y21443   3.307   6.239   4.617 -1.1024 -0.4986 -0.1490
  175DOPC  C31721444   3.309   6.167   4.814  0.0993 -0.7711 -0.3268
  175DOPC  H17X21445   3.237   6.082   4.806 -1.1853  0.1026  1.2373
  175DOPC  H17Y21446   3.388   6.149   4.890  0.5232 -0.3080 -0.6479
  175DOPC  C31821447   3.230   6.288   4.860 -0.1057  0.0709 -0.4970
  175DOPC  H18X21448   3.143   6.298   4.791 -0.5960  1.1170  0.2517
  175DOPC  H18Y21449   3.200   6.268   4.965  4.2365 -0.7071  0.7744
  175DOPC  H18Z21450   3.288   6.381   4.844 -0.0145  0.3205  1.1461
  176DOPC     N21451   4.101   1.629   2.989  0.3760  0.5479  0.0684
  176DOPC   C1221452   4.180   1.758   2.988  0.2129 -0.8121  0.2356
  176DOPC  H12A21453   4.164   1.806   2.892 -1.9317 -2.5917 -0.3897
  176DOPC  H12B21454   4.283   1.734   3.006  1.2950  1.1834 -2.5346
  176DOPC   C1321455   3.962   1.648   2.943 -0.2950 -0.8003 -0.4239
  176DOPC  H13A21456   3.954   1.702   2.850 -3.1098 -0.5568 -0.1325
  176DOPC  H13B21457   3.909   1.554   2.935 -1.8355 -0.2049  1.6997
  176DOPC  H13C21458   3.904   1.706   3.013  1.2969  1.5068 -0.9031
  176DOPC   C1421459   4.110   1.559   3.121 -0.0358  0.3698 -0.3907
  176DOPC  H14A21460   4.212   1.560   3.154 -0.1895 -0.4740  0.1305
  176DOPC  H14B21461   4.042   1.604   3.192 -2.1274  0.3080 -2.2378
  176DOPC  H14C21462   4.077   1.457   3.108  1.3363 -0.4760  2.1597
  176DOPC   C1521463   4.172   1.537   2.896 -0.0768 -0.1857 -0.5722
  176DOPC  H15A21464   4.136   1.435   2.902 -1.3747  0.1949 -1.3226
  176DOPC  H15B21465   4.272   1.535   2.935 -0.6761  2.5065  1.4220
  176DOPC  H15C21466   4.171   1.581   2.797 -1.8235  0.8015 -0.1661
  176DOPC   C1121467   4.134   1.861   3.092  0.3011 -0.1196 -0.7180
  176DOPC  H11A21468   4.141   1.819   3.195  1.9510  1.3803 -0.1748
  176DOPC  H11B21469   4.206   1.945   3.095 -0.2624  0.3832  2.0958
  176DOPC     P21470   3.936   2.052   3.103  0.4480  0.3547 -0.2176
  176DOPC   O1321471   3.797   2.026   3.156 -0.6076 -0.0711  0.2673
  176DOPC   O1421472   3.949   2.140   2.982 -0.7172  0.5853  0.4157
  176DOPC   O1221473   3.997   1.905   3.071 -0.3205  0.0518  0.0163
  176DOPC   O1121474   4.025   2.110   3.212 -0.1161  0.3132 -0.0311
  176DOPC    C121475   4.005   2.241   3.267  0.2048  0.0487 -0.7435
  176DOPC    HA21476   3.902   2.282   3.258 -1.3235 -3.4873 -1.0725
  176DOPC    HB21477   4.069   2.320   3.222 -0.1091 -0.0384 -1.3547
  176DOPC    C221478   4.038   2.225   3.422  0.5835 -0.3153  0.1676
  176DOPC    HS21479   4.043   2.325   3.470 -1.2255 -0.5718  0.9620
  176DOPC   O2121480   4.164   2.155   3.447 -0.0119  0.3675 -0.1087
  176DOPC   C2121481   4.263   2.183   3.371 -0.0623 -0.1420  0.2745
  176DOPC   O2221482   4.281   2.288   3.308 -0.3166  0.1868  0.0301
  176DOPC   C2221483   4.365   2.069   3.406  0.2060 -0.1658  0.3699
  176DOPC   H2R21484   4.399   2.050   3.302  0.2993  0.0149  0.3670
  176DOPC   H2S21485   4.322   1.972   3.439  2.8508 -1.7798 -0.6673
  176DOPC    C321486   3.911   2.155   3.482  0.0488 -0.1151  0.0439
  176DOPC    HX21487   3.887   2.068   3.416 -0.3898  0.6902 -0.8856
  176DOPC    HY21488   3.820   2.218   3.480  1.2613  1.7254  0.6210
  176DOPC   O3121489   3.949   2.123   3.618  0.2992 -0.0357  0.2857
  176DOPC   C3121490   3.975   1.995   3.638 -0.5274  0.5292  0.1442
  176DOPC   O3221491   3.939   1.899   3.572  0.0638  0.5379 -0.1817
  176DOPC   C3221492   4.058   1.979   3.762  0.6406 -0.4186  0.0038
  176DOPC   H2X21493   4.168   1.977   3.749  0.6896  1.5167 -0.0734
  176DOPC   H2Y21494   4.041   2.070   3.823 -1.5904 -0.3694 -0.6008
  176DOPC   C2321495   4.484   2.103   3.493  0.1128 -0.9084 -0.2897
  176DOPC   H3R21496   4.529   2.204   3.484 -1.6184  0.2806  2.8534
  176DOPC   H3S21497   4.562   2.032   3.458 -0.4932 -0.4329 -2.8841
  176DOPC   C2421498   4.466   2.065   3.642  0.0201 -0.3714  0.2945
  176DOPC   H4R21499   4.569   2.058   3.685  0.7673 -2.0545 -1.6278
  176DOPC   H4S21500   4.409   1.972   3.658 -0.8660  0.2725  0.9860
  176DOPC   C2521501   4.403   2.181   3.725  0.0347  0.1455 -0.4254
  176DOPC   H5R21502   4.299   2.190   3.688 -0.1945 -0.7489 -0.0289
  176DOPC   H5S21503   4.457   2.278   3.727  0.2048  0.0425  0.6094
  176DOPC   C2621504   4.404   2.132   3.867  0.4985 -1.6256 -1.0372
  176DOPC   H6R21505   4.508   2.118   3.904  0.1911  2.1699  1.8630
  176DOPC   H6S21506   4.353   2.033   3.867  0.0065 -1.3755 -0.5359
  176DOPC   C2721507   4.330   2.218   3.971  0.1750  0.0749  0.4461
  176DOPC   H7R21508   4.221   2.199   3.980  0.4956 -2.2058  0.1697
  176DOPC   H7S21509   4.342   2.320   3.929  2.1006 -0.7140 -1.0634
  176DOPC   C2821510   4.382   2.208   4.112  0.0928 -0.0342 -0.8754
  176DOPC   H8R21511   4.321   2.265   4.185  2.0942  0.9335  0.1189
  176DOPC   H8S21512   4.485   2.248   4.111 -0.2886  1.1003  1.0851
  176DOPC   C2921513   4.390   2.067   4.169  0.8368 -0.6374  0.5538
  176DOPC   H9R21514   4.354   1.995   4.094 -0.8695  1.4691 -0.7696
  176DOPC  C21021515   4.453   2.027   4.278  0.0753 -0.6134 -0.3977
  176DOPC  H10R21516   4.452   1.918   4.293 -1.9577 -0.9416 -2.4335
  176DOPC  C21121517   4.506   2.111   4.390 -0.2827 -0.7925  0.4020
  176DOPC  H11R21518   4.445   2.081   4.478 -0.3670 -0.4932  0.4464
  176DOPC  H11S21519   4.477   2.218   4.377  1.2436 -0.2892  0.8835
  176DOPC  C21221520   4.654   2.101   4.430  0.7236 -0.2893 -0.0410
  176DOPC  H12R21521   4.684   2.197   4.476 -0.4932 -0.0861  0.3523
  176DOPC  H12S21522   4.716   2.091   4.338 -0.2706  1.9489 -1.0258
  176DOPC  C21321523   4.686   1.975   4.510  0.1360  0.3683 -0.3362
  176DOPC  H13R21524   4.793   1.973   4.541 -0.4678  3.5524  2.5707
  176DOPC  H13S21525   4.653   1.891   4.445  1.1414  1.1978 -1.9896
  176DOPC  C21421526   4.612   1.968   4.649  0.4187 -0.0329 -0.3460
  176DOPC  H14R21527   4.643   1.873   4.699 -0.8902 -1.1020 -1.4734
  176DOPC  H14S21528   4.506   1.948   4.622  0.0993  0.4895  0.4868
  176DOPC  C21521529   4.631   2.094   4.735 -0.1169 -0.0629  0.4622
  176DOPC  H15R21530   4.575   2.174   4.683 -1.3259 -1.4107 -0.3661
  176DOPC  H15S21531   4.735   2.132   4.747 -0.4486  0.0798  4.4290
  176DOPC  C21621532   4.582   2.088   4.882  0.9196 -0.2240  0.3914
  176DOPC  H16R21533   4.475   2.059   4.873  0.8696 -0.4457  1.4605
  176DOPC  H16S21534   4.595   2.190   4.925 -1.0656 -0.5907  2.0222
  176DOPC  C21721535   4.669   2.001   4.973  0.1736  0.4602 -0.2572
  176DOPC  H17R21536   4.768   2.051   4.975 -0.1795  1.1547  1.8969
  176DOPC  H17S21537   4.678   1.895   4.940  1.4790 -0.1033  1.7428
  176DOPC  C21821538   4.618   2.008   5.122  0.0198 -0.6506  0.2049
  176DOPC  H18R21539   4.522   1.953   5.134 -1.3675  1.6115  0.1101
  176DOPC  H18S21540   4.620   2.114   5.153 -0.0894 -0.0756 -1.6394
  176DOPC  H18T21541   4.691   1.952   5.183  1.0500 -0.5199 -0.8629
  176DOPC   C3321542   4.015   1.858   3.849  0.1709 -0.8120 -0.0835
  176DOPC   H3X21543   4.033   1.765   3.791  1.2140 -0.9727  0.4713
  176DOPC   H3Y21544   3.910   1.866   3.884 -0.5892  0.6746 -2.4656
  176DOPC   C3421545   4.091   1.856   3.985  0.3578 -0.1584 -0.5047
  176DOPC   H4X21546   4.111   1.959   4.021 -0.9507 -0.3984  0.9808
  176DOPC   H4Y21547   4.194   1.817   3.967  1.6021  2.4046  0.4845
  176DOPC   C3521548   4.025   1.785   4.103 -0.0102 -0.1381  1.1519
  176DOPC   H5X21549   4.021   1.679   4.071  0.3476  0.5979 -1.5404
  176DOPC   H5Y21550   3.919   1.817   4.111 -0.0579 -0.1806  0.6938
  176DOPC   C3621551   4.091   1.811   4.238 -0.3042 -0.1270  0.1087
  176DOPC   H6X21552   4.196   1.777   4.247  0.7232  3.2539  4.8434
  176DOPC   H6Y21553   4.107   1.921   4.250  0.2763 -0.2047  0.0460
  176DOPC   C3721554   4.009   1.760   4.358  0.4396  0.7594 -0.5781
  176DOPC   H7X21555   3.903   1.793   4.344 -0.0121  0.1680  1.1556
  176DOPC   H7Y21556   4.006   1.650   4.343 -0.2267  0.8962 -1.5084
  176DOPC   C3821557   4.071   1.785   4.495 -0.8717 -0.1029  0.0636
  176DOPC   H8X21558   4.180   1.761   4.503 -0.5386  1.6682  1.7872
  176DOPC   H8Y21559   4.026   1.702   4.553  1.0624 -0.8316  0.6049
  176DOPC   C3921560   4.026   1.914   4.562  0.4237  0.2205 -0.3599
  176DOPC   H9X21561   4.041   2.009   4.509  1.6902 -0.5437 -1.4366
  176DOPC  C31021562   3.978   1.937   4.689  0.4453  0.5885  0.4953
  176DOPC  H10X21563   3.947   2.041   4.712  0.0380  1.4587 -3.3270
  176DOPC  C31121564   3.924   1.824   4.770  0.3982  0.2727 -0.0230
  176DOPC  H11X21565   3.947   1.845   4.877  0.6577  1.0122 -0.2135
  176DOPC  H11Y21566   3.970   1.726   4.748 -0.5091 -0.2181  0.2334
  176DOPC  C31221567   3.774   1.812   4.743  0.0414  0.4302 -0.4243
  176DOPC  H12X21568   3.762   1.797   4.634  2.1758 -1.6282 -0.4702
  176DOPC  H12Y21569   3.716   1.902   4.770 -1.6238 -0.9716  0.9699
  176DOPC  C31321570   3.711   1.702   4.834 -0.3058  0.2288 -0.0555
  176DOPC  H13X21571   3.765   1.606   4.821 -0.0372  0.0874  1.9122
  176DOPC  H13Y21572   3.720   1.737   4.939 -0.9073  1.9832 -0.5452
  176DOPC  C31421573   3.557   1.669   4.805 -0.7485 -0.6226  0.5611
  176DOPC  H14X21574   3.517   1.772   4.793  0.7878 -0.2027 -1.5197
  176DOPC  H14Y21575   3.549   1.606   4.714  1.9526 -1.3466  0.7397
  176DOPC  C31521576   3.499   1.600   4.924  0.7241 -0.5145  0.6162
  176DOPC  H15X21577   3.573   1.528   4.964  1.1908  0.5930  1.8422
  176DOPC  H15Y21578   3.404   1.549   4.897 -0.0175  1.4283 -0.6487
  176DOPC  C31621579   3.460   1.701   5.041 -0.6767 -0.0730 -0.6203
  176DOPC  H16X21580   3.560   1.741   5.071  0.5355 -3.3251  0.2259
  176DOPC  H16Y21581   3.407   1.793   5.012 -1.1359  0.3065  1.2410
  176DOPC  C31721582   3.410   1.630   5.165  0.5738 -0.7460  0.0277
  176DOPC  H17X21583   3.316   1.587   5.126  0.4890 -1.1665  0.6939
  176DOPC  H17Y21584   3.469   1.542   5.198  0.3183 -1.2082 -0.7127
  176DOPC  C31821585   3.375   1.721   5.289  0.3033  0.3327 -0.6065
  176DOPC  H18X21586   3.320   1.670   5.371 -0.9494 -1.0916 -2.2611
  176DOPC  H18Y21587   3.473   1.766   5.317  1.2151 -0.2900 -2.6159
  176DOPC  H18Z21588   3.320   1.809   5.250  0.3421  1.1081  0.9793
  177DOPC     N21589   3.766   5.283   2.881 -0.1216  0.3766  0.1379
  177DOPC   C1221590   3.914   5.275   2.910 -0.2357 -0.2347 -0.2151
  177DOPC  H12A21591   3.963   5.354   2.855 -0.3778  0.0698  0.0908
  177DOPC  H12B21592   3.954   5.181   2.874 -1.4564 -0.7787 -0.1975
  177DOPC   C1321593   3.690   5.179   2.950 -0.0611  0.3167 -0.5022
  177DOPC  H13A21594   3.583   5.191   2.938  0.0491  0.9992 -0.8718
  177DOPC  H13B21595   3.709   5.081   2.908 -0.5707 -0.1111  0.2517
  177DOPC  H13C21596   3.704   5.175   3.057 -2.0944  2.0241 -0.1083
  177DOPC   C1421597   3.741   5.256   2.734  0.3434  0.3898 -0.6392
  177DOPC  H14A21598   3.804   5.308   2.663 -1.0739  0.4483 -1.9093
  177DOPC  H14B21599   3.759   5.150   2.719  5.4289  0.5698  1.9136
  177DOPC  H14C21600   3.641   5.287   2.708 -0.3513 -1.4582 -0.3243
  177DOPC   C1521601   3.720   5.422   2.913 -0.7132  0.3709  0.1666
  177DOPC  H15A21602   3.618   5.416   2.951 -0.6594  0.5488  0.3409
  177DOPC  H15B21603   3.727   5.504   2.844 -0.6248  0.9099  0.8105
  177DOPC  H15C21604   3.778   5.449   3.000  0.7313  2.4877 -1.3696
  177DOPC   C1121605   3.968   5.300   3.065 -0.3975 -0.1837  0.2714
  177DOPC  H11A21606   3.918   5.235   3.139  1.6651 -2.7552 -0.4512
  177DOPC  H11B21607   4.078   5.285   3.070  0.0148  1.1924 -2.4862
  177DOPC     P21608   4.036   5.562   3.049  0.3501  0.1632  0.3350
  177DOPC   O1321609   3.959   5.687   3.044 -0.4358 -0.4428 -0.0070
  177DOPC   O1421610   4.106   5.522   2.924  0.1983  0.5332 -0.0835
  177DOPC   O1221611   3.945   5.440   3.102  0.2693 -0.1870 -0.0500
  177DOPC   O1121612   4.138   5.574   3.159 -0.4840  0.1684 -0.6546
  177DOPC    C121613   4.117   5.578   3.301 -0.0992 -0.4511  0.5132
  177DOPC    HA21614   4.059   5.490   3.337  1.4375 -2.1121 -0.8868
  177DOPC    HB21615   4.063   5.674   3.311  0.2800 -0.3660  1.9951
  177DOPC    C221616   4.257   5.575   3.382 -0.2220  0.1277 -0.3678
  177DOPC    HS21617   4.252   5.511   3.472 -0.8101  0.8052  0.0959
  177DOPC   O2121618   4.287   5.709   3.416  0.1734  0.3742 -0.0007
  177DOPC   C2121619   4.214   5.762   3.507  0.4659  0.5668 -0.0491
  177DOPC   O2221620   4.129   5.706   3.575  0.3200 -0.5133  0.1315
  177DOPC   C2221621   4.235   5.914   3.504  0.1827 -0.0366 -0.2115
  177DOPC   H2R21622   4.205   5.944   3.401 -0.4517  0.7826  0.2082
  177DOPC   H2S21623   4.346   5.925   3.508  0.1797  0.0725 -0.4050
  177DOPC    C321624   4.371   5.510   3.297 -0.5251 -0.0548  0.3885
  177DOPC    HX21625   4.387   5.564   3.201  2.0537 -2.3862 -0.6236
  177DOPC    HY21626   4.342   5.410   3.259 -0.1805  0.7931 -2.3334
  177DOPC   O3121627   4.501   5.501   3.358  0.7844 -0.0480  0.1789
  177DOPC   C3121628   4.515   5.399   3.446  0.2315  0.2217 -0.1574
  177DOPC   O3221629   4.440   5.304   3.448 -0.4130  0.2019 -0.0996
  177DOPC   C3221630   4.644   5.418   3.520 -0.6534  0.5149  0.1237
  177DOPC   H2X21631   4.721   5.368   3.457 -1.8905 -0.0489 -1.0035
  177DOPC   H2Y21632   4.662   5.527   3.524 -1.0368  0.6551 -1.3484
  177DOPC   C2321633   4.177   6.002   3.614  0.4737 -0.3097 -0.5765
  177DOPC   H3R21634   4.218   6.105   3.607  2.1419 -1.0189 -1.8831
  177DOPC   H3S21635   4.208   5.966   3.715  3.9078  0.7767 -1.1128
  177DOPC   C2421636   4.024   6.016   3.607  0.4953 -0.1095  0.1659
  177DOPC   H4R21637   3.969   5.920   3.617 -1.6067  0.6985 -2.4011
  177DOPC   H4S21638   4.000   6.066   3.511 -1.2223  0.4666  0.8614
  177DOPC   C2521639   3.976   6.105   3.711  0.3002  0.4308  0.0826
  177DOPC   H5R21640   4.049   6.189   3.709 -2.0565  2.5884 -0.6936
  177DOPC   H5S21641   3.991   6.049   3.806 -0.9676 -0.8212 -0.4254
  177DOPC   C2621642   3.827   6.136   3.690 -0.2151  0.6695  0.3593
  177DOPC   H6R21643   3.765   6.044   3.677  0.6196  0.1702 -0.2143
  177DOPC   H6S21644   3.814   6.191   3.594 -3.0016 -1.4576 -0.6295
  177DOPC   C2721645   3.767   6.224   3.802  0.1862  0.5171  0.5833
  177DOPC   H7R21646   3.822   6.320   3.815  1.1408  0.0368  0.1431
  177DOPC   H7S21647   3.776   6.186   3.906  0.1694 -0.1776  0.3301
  177DOPC   C2821648   3.609   6.250   3.786 -0.7673 -0.6405 -0.3094
  177DOPC   H8R21649   3.580   6.331   3.857  1.2500  0.5544 -0.7588
  177DOPC   H8S21650   3.552   6.159   3.813 -1.1396 -0.3195  0.0048
  177DOPC   C2921651   3.573   6.299   3.650  0.4379  0.2362 -0.0354
  177DOPC   H9R21652   3.620   6.390   3.609 -0.5234 -0.4168 -2.7925
  177DOPC  C21021653   3.514   6.224   3.555  0.6419  0.7600  0.4262
  177DOPC  H10R21654   3.467   6.281   3.473  0.7474 -1.9460 -1.6354
  177DOPC  C21121655   3.448   6.089   3.570 -0.2052  0.2966  0.5610
  177DOPC  H11R21656   3.446   6.055   3.676  1.8662 -0.1428  0.4852
  177DOPC  H11S21657   3.504   6.016   3.509 -3.5617 -1.2974 -0.9144
  177DOPC  C21221658   3.299   6.075   3.514  0.2846  0.1348 -0.0677
  177DOPC  H12R21659   3.275   5.967   3.505 -0.0849 -0.0064  2.0383
  177DOPC  H12S21660   3.294   6.125   3.415  1.9662 -2.0332 -1.3322
  177DOPC  C21321661   3.190   6.133   3.611 -0.0951 -0.1933 -0.6241
  177DOPC  H13R21662   3.200   6.243   3.626 -1.4315  0.1902 -2.2624
  177DOPC  H13S21663   3.215   6.085   3.708  1.3166  3.6542  1.1488
  177DOPC  C21421664   3.047   6.091   3.571 -0.1482  0.7855  0.3931
  177DOPC  H14R21665   3.045   6.002   3.505  0.7257  0.6975  0.4829
  177DOPC  H14S21666   3.014   6.177   3.507 -0.1315  2.5627  2.6542
  177DOPC  C21521667   2.953   6.070   3.688  0.0220 -0.3526  0.3824
  177DOPC  H15R21668   2.986   5.983   3.748  1.5384 -1.3151 -1.6912
  177DOPC  H15S21669   2.857   6.038   3.641  0.7491 -2.0462 -0.0140
  177DOPC  C21621670   2.940   6.200   3.779 -0.0028  0.2061  0.7696
  177DOPC  H16R21671   2.933   6.290   3.715  1.5604 -0.0697  0.1767
  177DOPC  H16S21672   3.041   6.208   3.826  0.2372 -1.9392  0.7175
  177DOPC  C21721673   2.831   6.209   3.886 -0.2216  0.1734 -0.4169
  177DOPC  H17R21674   2.851   6.130   3.963 -2.4512  0.8679  0.9904
  177DOPC  H17S21675   2.738   6.179   3.833  0.4068 -1.2987 -0.7326
  177DOPC  C21821676   2.823   6.346   3.954  0.1712 -0.0771 -0.2807
  177DOPC  H18R21677   2.917   6.386   3.996  1.0114  0.1189 -2.2270
  177DOPC  H18S21678   2.750   6.344   4.038  0.9470  0.3876  0.4105
  177DOPC  H18T21679   2.787   6.420   3.878 -2.9306 -1.6187 -0.4859
  177DOPC   C3321680   4.633   5.362   3.654 -0.0273  0.2344 -0.3413
  177DOPC   H3X21681   4.731   5.362   3.707  1.1397 -4.7525 -1.9881
  177DOPC   H3Y21682   4.616   5.253   3.657  0.7304  0.1251  1.7059
  177DOPC   C3421683   4.526   5.419   3.752  0.1449 -0.9857  0.3822
  177DOPC   H4X21684   4.557   5.385   3.853  1.1964 -0.4943  0.2435
  177DOPC   H4Y21685   4.432   5.370   3.720 -0.6242  1.9032 -2.3201
  177DOPC   C3521686   4.511   5.576   3.756 -0.5698  0.4880 -0.0852
  177DOPC   H5X21687   4.475   5.607   3.656  0.0015 -0.1271 -0.4984
  177DOPC   H5Y21688   4.609   5.619   3.787  0.2447 -2.1680  1.3595
  177DOPC   C3621689   4.417   5.624   3.868  0.6460 -0.5627 -0.2887
  177DOPC   H6X21690   4.385   5.730   3.856  3.4774  0.5810  1.3388
  177DOPC   H6Y21691   4.323   5.567   3.857 -0.3844  0.9207  0.4298
  177DOPC   C3721692   4.468   5.626   4.015  1.2551  0.6108  0.3988
  177DOPC   H7X21693   4.475   5.524   4.060  1.7344 -0.1541 -1.3285
  177DOPC   H7Y21694   4.568   5.674   4.025  1.1516  0.5296  2.0123
  177DOPC   C3821695   4.388   5.713   4.111  0.0066 -0.1839 -0.4129
  177DOPC   H8X21696   4.421   5.809   4.067 -3.1813  0.0176 -2.7362
  177DOPC   H8Y21697   4.420   5.692   4.215 -2.7072  0.3338  0.6110
  177DOPC   C3921698   4.243   5.709   4.101  0.4951 -0.1106  0.7467
  177DOPC   H9X21699   4.201   5.613   4.135 -0.5080 -0.3696 -1.1236
  177DOPC  C31021700   4.153   5.802   4.058 -0.2053 -0.2201 -0.1669
  177DOPC  H10X21701   4.045   5.780   4.056 -0.5783  1.5232 -1.9981
  177DOPC  C31121702   4.192   5.942   4.019 -0.2038  0.0547 -0.5798
  177DOPC  H11X21703   4.110   5.991   3.963 -0.6314  0.0513  0.0380
  177DOPC  H11Y21704   4.270   5.941   3.940 -1.2354  0.7133 -1.6307
  177DOPC  C31221705   4.227   6.051   4.121 -0.7667  0.5614  0.0920
  177DOPC  H12X21706   4.281   6.132   4.068  1.9694 -1.4156 -0.4125
  177DOPC  H12Y21707   4.304   6.009   4.190 -0.7427  0.2799 -0.1046
  177DOPC  C31321708   4.110   6.101   4.203 -0.3601  0.5515 -0.2430
  177DOPC  H13X21709   4.028   6.127   4.133  0.1870  2.0866 -0.3673
  177DOPC  H13Y21710   4.069   6.013   4.257 -0.2088 -0.1220 -1.2102
  177DOPC  C31421711   4.152   6.201   4.312  0.4011  0.7667 -0.6039
  177DOPC  H14X21712   4.217   6.277   4.262  0.7582  1.1158  0.3561
  177DOPC  H14Y21713   4.062   6.246   4.358 -1.0029 -2.0318 -0.3987
  177DOPC  C31521714   4.231   6.144   4.429 -0.1438 -0.0904 -0.0202
  177DOPC  H15X21715   4.239   6.223   4.506 -0.7557 -2.1001  2.2382
  177DOPC  H15Y21716   4.333   6.117   4.394  0.4566  0.7388  1.0538
  177DOPC  C31621717   4.174   6.021   4.507  0.0676 -0.5996 -0.0632
  177DOPC  H16X21718   4.156   5.934   4.441  3.4590 -3.0906  1.9832
  177DOPC  H16Y21719   4.247   5.982   4.581  1.3009  0.0144 -0.9150
  177DOPC  C31721720   4.041   6.056   4.571 -0.6249 -0.0927 -0.6044
  177DOPC  H17X21721   4.063   6.146   4.632 -2.6337  1.4389 -1.9932
  177DOPC  H17Y21722   3.979   6.087   4.484  3.3241  0.0135 -3.6647
  177DOPC  C31821723   3.990   5.937   4.652 -0.2052 -0.8814 -1.2011
  177DOPC  H18X21724   3.895   5.962   4.703  0.0003 -0.8231 -0.8478
  177DOPC  H18Y21725   3.962   5.856   4.580 -2.8223  0.9680 -2.4139
  177DOPC  H18Z21726   4.065   5.904   4.728 -0.3496 -1.5120 -1.3229
  178DOPC     N21727   2.502   6.062   2.456 -0.3212 -0.5964  0.5095
  178DOPC   C1221728   2.570   6.194   2.482 -0.3309 -0.1843  0.0135
  178DOPC  H12A21729   2.527   6.271   2.420 -2.4508 -2.1239 -1.0794
  178DOPC  H12B21730   2.674   6.187   2.455 -0.9172 -0.0310 -2.5408
  178DOPC   C1321731   2.577   5.944   2.515 -0.4808 -0.7064  0.2667
  178DOPC  H13A21732   2.683   5.958   2.501 -0.6219  1.0439  0.7295
  178DOPC  H13B21733   2.555   5.949   2.620  0.7139  0.2294  0.4907
  178DOPC  H13C21734   2.545   5.858   2.457 -1.3052  1.1070 -2.1476
  178DOPC   C1421735   2.498   6.044   2.307 -0.0554  0.3312 -0.9538
  178DOPC  H14A21736   2.429   6.119   2.271  1.0259  1.7358 -0.1944
  178DOPC  H14B21737   2.593   6.066   2.260 -0.5289  2.1524 -1.1414
  178DOPC  H14C21738   2.467   5.945   2.277  0.9285 -0.2721 -0.0400
  178DOPC   C1521739   2.361   6.055   2.514 -0.1174  0.1157  0.3547
  178DOPC  H15A21740   2.306   5.971   2.475  1.8719 -1.7313  1.2919
  178DOPC  H15B21741   2.290   6.136   2.505  1.3206  1.3214 -0.6494
  178DOPC  H15C21742   2.376   6.029   2.618  1.3682  1.6316  0.5577
  178DOPC   C1121743   2.559   6.249   2.624  0.2010 -0.4884  0.4132
  178DOPC  H11A21744   2.608   6.348   2.630 -1.1446  0.1361  2.3268
  178DOPC  H11B21745   2.451   6.272   2.642 -0.1984  0.7580 -2.9390
  178DOPC     P21746   2.547   6.112   2.854  0.3619 -0.4127  0.0710
  178DOPC   O1321747   2.650   6.032   2.926 -0.0731  0.4778 -0.0888
  178DOPC   O1421748   2.430   6.033   2.807  0.1381 -1.0136 -0.1256
  178DOPC   O1221749   2.620   6.169   2.721 -0.8447 -0.6333  0.3228
  178DOPC   O1121750   2.500   6.230   2.937  0.5298 -0.0845 -0.2841
  178DOPC    C121751   2.585   6.345   2.956  0.3589  0.0829 -0.2414
  178DOPC    HA21752   2.525   6.438   2.963 -1.4584 -0.9683 -0.9790
  178DOPC    HB21753   2.658   6.353   2.873  1.3053 -1.0490  0.4346
  178DOPC    C221754   2.661   6.337   3.100  0.4530  0.3545  0.7693
  178DOPC    HS21755   2.713   6.239   3.094  1.4124  0.8962 -0.0799
  178DOPC   O2121756   2.564   6.340   3.212  0.3642 -0.3011  0.0580
  178DOPC   C2121757   2.595   6.262   3.321  0.0325  0.1145  0.6422
  178DOPC   O2221758   2.694   6.192   3.327 -0.3380  0.0591  0.5163
  178DOPC   C2221759   2.503   6.307   3.442 -0.2263 -0.7643 -0.1684
  178DOPC   H2R21760   2.397   6.291   3.412 -0.4504  0.1104  0.1229
  178DOPC   H2S21761   2.522   6.415   3.459 -0.1557 -0.6868 -0.7232
  178DOPC    C321762   2.755   6.455   3.111  0.1539 -0.0046  0.2072
  178DOPC    HX21763   2.698   6.550   3.103  1.6008  0.7276 -2.3197
  178DOPC    HY21764   2.815   6.450   3.018  0.1841  0.3533  0.2075
  178DOPC   O3121765   2.837   6.437   3.227 -0.4797 -0.3327  0.6513
  178DOPC   C3121766   2.935   6.531   3.244  0.1633  0.3178 -0.2055
  178DOPC   O3221767   2.961   6.624   3.176 -0.6759 -0.3006  1.0157
  178DOPC   C3221768   3.011   6.489   3.370 -0.1989 -0.2013 -0.2862
  178DOPC   H2X21769   2.941   6.495   3.455  0.3389 -0.6511  0.1974
  178DOPC   H2Y21770   3.038   6.382   3.360 -3.0162 -1.1213  1.2124
  178DOPC   C2321771   2.536   6.226   3.568  0.6792 -0.1172  0.0721
  178DOPC   H3R21772   2.633   6.258   3.612  0.2233  2.1129 -0.4524
  178DOPC   H3S21773   2.538   6.117   3.545 -0.8956  0.5668 -4.3315
  178DOPC   C2421774   2.444   6.256   3.685 -0.3962 -0.1623 -0.3758
  178DOPC   H4R21775   2.446   6.166   3.751 -0.8180  0.0766 -0.0338
  178DOPC   H4S21776   2.338   6.257   3.651 -1.0709  0.5635  1.6260
  178DOPC   C2521777   2.472   6.384   3.765  0.2520  0.5890 -0.2349
  178DOPC   H5R21778   2.468   6.468   3.693 -0.9157 -0.6730 -1.7127
  178DOPC   H5S21779   2.578   6.372   3.796  0.9266 -0.0052 -2.6143
  178DOPC   C2621780   2.385   6.416   3.884  0.8313  0.1548  0.0144
  178DOPC   H6R21781   2.281   6.399   3.849  1.2149 -1.3310 -0.4698
  178DOPC   H6S21782   2.387   6.524   3.910  0.8197 -0.0609  0.9407
  178DOPC   C2721783   2.407   6.340   4.016 -0.5711  0.0153  0.4692
  178DOPC   H7R21784   2.503   6.375   4.059 -0.2814 -0.6047  0.3323
  178DOPC   H7S21785   2.432   6.235   3.990 -3.5381 -0.4393 -0.9900
  178DOPC   C2821786   2.290   6.350   4.114 -0.0069 -0.0334  0.2037
  178DOPC   H8R21787   2.260   6.456   4.125 -3.2354 -0.9917  2.0434
  178DOPC   H8S21788   2.332   6.321   4.212  0.0206 -1.1448 -0.1254
  178DOPC   C2921789   2.164   6.278   4.089  0.3725  0.6462  0.0848
  178DOPC   H9R21790   2.136   6.270   3.983  4.1395  0.5981 -1.0707
  178DOPC  C21021791   2.082   6.226   4.183 -0.8889 -0.3841  0.4749
  178DOPC  H10R21792   2.000   6.163   4.146 -1.3939  0.5579 -0.0310
  178DOPC  C21121793   2.102   6.230   4.332 -0.0786 -0.3395  0.6520
  178DOPC  H11R21794   2.074   6.329   4.374 -3.8685 -1.9545  2.4167
  178DOPC  H11S21795   2.205   6.210   4.368  0.6260  0.2542 -0.9729
  178DOPC  C21221796   2.013   6.126   4.399 -0.6391 -0.1488 -0.1550
  178DOPC  H12R21797   2.028   6.020   4.369 -0.5842  0.2445 -1.6323
  178DOPC  H12S21798   1.906   6.143   4.378 -1.1447 -3.9918 -1.4252
  178DOPC  C21321799   2.022   6.124   4.554  0.0249 -0.7835  0.2498
  178DOPC  H13R21800   2.015   6.226   4.599 -1.3751  0.0178 -1.6453
  178DOPC  H13S21801   2.121   6.081   4.579  0.3481 -0.7017 -0.8472
  178DOPC  C21421802   1.915   6.034   4.616  0.0944 -0.5256  0.5566
  178DOPC  H14R21803   1.820   6.091   4.603 -0.3860 -1.6024 -0.8787
  178DOPC  H14S21804   1.942   6.025   4.723 -0.4479 -1.7925  0.6061
  178DOPC  C21521805   1.894   5.894   4.559 -0.3055 -0.7299 -0.1103
  178DOPC  H15R21806   1.990   5.844   4.533  0.7718  1.1638 -0.0118
  178DOPC  H15S21807   1.849   5.896   4.458  1.4790 -0.8685 -0.9454
  178DOPC  C21621808   1.816   5.797   4.651 -0.1544 -0.7234 -0.3659
  178DOPC  H16R21809   1.729   5.858   4.684 -0.1108 -0.4311 -0.7819
  178DOPC  H16S21810   1.873   5.770   4.742 -1.5713 -0.7858  0.5371
  178DOPC  C21721811   1.765   5.667   4.595 -0.1833 -0.1596  0.0196
  178DOPC  H17R21812   1.843   5.587   4.595 -0.2721 -0.2490  0.6416
  178DOPC  H17S21813   1.743   5.693   4.489 -0.2525 -0.3872 -0.0223
  178DOPC  C21821814   1.625   5.625   4.656 -0.4425  0.3903 -0.0777
  178DOPC  H18R21815   1.581   5.532   4.615  0.6434 -0.2815  0.2374
  178DOPC  H18S21816   1.562   5.712   4.627 -0.3457  0.7800  0.8486
  178DOPC  H18T21817   1.643   5.609   4.764  1.1261  0.0361 -0.3608
  178DOPC   C3321818   3.132   6.577   3.418 -1.0092  0.4522  0.2164
  178DOPC   H3X21819   3.209   6.585   3.338  0.3705 -2.3972  1.1589
  178DOPC   H3Y21820   3.199   6.515   3.480 -0.1539  2.3858  1.3278
  178DOPC   C3421821   3.092   6.706   3.485  0.0455  0.0122  0.1083
  178DOPC   H4X21822   3.016   6.767   3.432 -1.7032 -2.1528 -0.0249
  178DOPC   H4Y21823   3.183   6.765   3.509 -0.5039  1.0814 -0.3555
  178DOPC   C3521824   3.032   6.670   3.627 -0.4663 -0.1265  0.0950
  178DOPC   H5X21825   2.933   6.619   3.618 -0.3134 -0.8689  2.0644
  178DOPC   H5Y21826   3.021   6.767   3.680  0.1626  0.1739 -0.3281
  178DOPC   C3621827   3.130   6.586   3.710  0.0107  0.1165  0.2989
  178DOPC   H6X21828   3.127   6.477   3.685 -0.9617 -0.6666  3.3700
  178DOPC   H6Y21829   3.228   6.622   3.671  1.6071 -2.4039  1.6383
  178DOPC   C3721830   3.115   6.596   3.866 -0.0176 -0.1427 -0.2277
  178DOPC   H7X21831   3.095   6.702   3.895 -1.2721  0.2521 -2.3604
  178DOPC   H7Y21832   3.018   6.546   3.888  0.4654 -1.1628 -0.3771
  178DOPC   C3821833   3.220   6.519   3.946 -0.4576  0.6036  0.6490
  178DOPC   H8X21834   3.201   6.412   3.920 -3.5341  1.4179 -0.9095
  178DOPC   H8Y21835   3.196   6.526   4.054 -1.2509 -0.8977  0.6057
  178DOPC   C3921836   3.359   6.549   3.910  0.1032  0.2495 -0.1526
  178DOPC   H9X21837   3.390   6.513   3.812  3.7955 -0.4370  1.1196
  178DOPC  C31021838   3.456   6.600   3.981 -0.3736  0.6581  0.4452
  178DOPC  H10X21839   3.550   6.618   3.928  0.4640 -0.7941  1.3730
  178DOPC  C31121840   3.443   6.641   4.128 -0.0058  0.6502  0.4434
  178DOPC  H11X21841   3.523   6.588   4.185 -0.5279 -1.7509 -0.9151
  178DOPC  H11Y21842   3.346   6.600   4.164  0.3949 -0.1447  0.6392
  178DOPC  C31221843   3.444   6.793   4.146  0.7072 -0.6098 -0.8003
  178DOPC  H12X21844   3.346   6.822   4.104  0.4599  1.1636  0.8849
  178DOPC  H12Y21845   3.521   6.846   4.086  0.9113 -2.2582 -2.0877
  178DOPC  C31321846   3.450   6.838   4.296  0.3838  0.2818  0.7607
  178DOPC  H13X21847   3.525   6.768   4.336  0.8652  0.9716  1.0835
  178DOPC  H13Y21848   3.479   6.945   4.305  1.5560 -0.1201  2.0173
  178DOPC  C31421849   3.320   6.827   4.372  0.5900  0.4266  0.2299
  178DOPC  H14X21850   3.234   6.886   4.334  0.8776 -1.0187 -3.0043
  178DOPC  H14Y21851   3.282   6.724   4.356  1.6016  0.1655 -0.6691
  178DOPC  C31521852   3.319   6.846   4.523 -0.0600  0.5387 -0.3320
  178DOPC  H15X21853   3.217   6.857   4.565 -0.4505  0.4126 -1.2099
  178DOPC  H15Y21854   3.376   6.937   4.550  0.6142 -0.0483  0.2662
  178DOPC  C31621855   3.374   6.715   4.581 -0.0784 -0.5228  0.1229
  178DOPC  H16X21856   3.295   6.637   4.585 -0.6912  0.1215  2.4878
  178DOPC  H16Y21857   3.454   6.680   4.513 -1.0418 -0.1034 -1.2550
  178DOPC  C31721858   3.420   6.736   4.731  0.6909 -0.1908 -0.5881
  178DOPC  H17X21859   3.340   6.777   4.795  2.4735  0.2586  1.4838
  178DOPC  H17Y21860   3.447   6.636   4.771 -1.5446 -0.2437  0.9605
  178DOPC  C31821861   3.537   6.838   4.730 -0.4965 -0.0132  0.5972
  178DOPC  H18X21862   3.577   6.829   4.627 -0.8438 -0.4484  0.4906
  178DOPC  H18Y21863   3.498   6.939   4.756 -2.2512 -0.8152  1.3087
  178DOPC  H18Z21864   3.610   6.804   4.806  0.9677  0.5706 -0.5218
  179DOPC     N21865   6.018   5.835   2.746  0.6159  0.3840  0.2902
  179DOPC   C1221866   5.991   5.768   2.878  0.0705  0.7591 -0.2352
  179DOPC  H12A21867   5.886   5.783   2.901 -0.6350  1.0199 -3.1591
  179DOPC  H12B21868   6.047   5.813   2.958 -0.2464  2.3584 -0.8690
  179DOPC   C1321869   6.147   5.794   2.691 -0.7206  0.3010  0.5882
  179DOPC  H13A21870   6.157   5.688   2.669  2.0662  0.8968 -1.5799
  179DOPC  H13B21871   6.165   5.838   2.595  2.5202  0.3440  1.1066
  179DOPC  H13C21872   6.230   5.826   2.753  0.3878 -1.1611 -0.0747
  179DOPC   C1421873   6.010   5.977   2.740 -0.1727  0.3270  0.5452
  179DOPC  H14A21874   5.929   6.014   2.800  0.2673 -1.3213  2.2716
  179DOPC  H14B21875   6.104   6.013   2.779  0.4576  0.3033 -0.8756
  179DOPC  H14C21876   6.018   6.022   2.642 -0.5546 -0.0125  0.3531
  179DOPC   C1521877   5.920   5.795   2.639  0.8168 -0.0869 -0.1207
  179DOPC  H15A21878   5.948   5.830   2.542 -3.7652  0.4429 -1.5181
  179DOPC  H15B21879   5.819   5.828   2.662  0.4254 -0.9164 -0.5772
  179DOPC  H15C21880   5.906   5.687   2.639 -0.5151  0.0313  1.5489
  179DOPC   C1121881   6.018   5.616   2.887 -0.4351  0.3582 -0.4385
  179DOPC  H11A21882   6.128   5.598   2.878  0.0106  2.2733  0.7451
  179DOPC  H11B21883   5.978   5.581   2.984 -1.2603  1.2169 -0.4586
  179DOPC     P21884   5.997   5.444   2.681 -0.3019 -0.2042  0.2696
  179DOPC   O1321885   6.132   5.479   2.638  0.0088  0.5013  0.0781
  179DOPC   O1421886   5.889   5.434   2.577 -0.7405  0.0566 -0.7325
  179DOPC   O1221887   5.944   5.545   2.788  0.0787 -0.1067  0.1795
  179DOPC   O1121888   6.026   5.311   2.762  0.3742 -0.1189  0.0338
  179DOPC    C121889   5.907   5.228   2.780  0.1754  0.7142  0.1377
  179DOPC    HA21890   5.942   5.123   2.794 -0.1617  0.3649 -1.4714
  179DOPC    HB21891   5.836   5.221   2.695  0.1161  1.0211  0.1621
  179DOPC    C221892   5.816   5.259   2.905  0.2160  0.3734  0.0055
  179DOPC    HS21893   5.795   5.368   2.902 -0.0147  0.3425  0.4361
  179DOPC   O2121894   5.898   5.227   3.015 -0.2294  0.0268  0.2114
  179DOPC   C2121895   5.846   5.287   3.131 -0.5503 -0.4985  0.3468
  179DOPC   O2221896   5.750   5.363   3.128 -0.0002  0.9149  0.8411
  179DOPC   C2221897   5.939   5.259   3.239  0.2640  0.1754  0.8270
  179DOPC   H2R21898   5.914   5.320   3.329 -4.7834  1.5074 -1.1515
  179DOPC   H2S21899   6.038   5.287   3.197 -0.4588  2.4767  0.5176
  179DOPC    C321900   5.695   5.162   2.901  0.2285 -0.3101  0.2869
  179DOPC    HX21901   5.728   5.056   2.905 -0.2264 -0.4699 -0.0604
  179DOPC    HY21902   5.642   5.166   2.803 -0.0481  0.2013  0.4499
  179DOPC   O3121903   5.592   5.178   3.010 -0.0326  0.6633 -0.1388
  179DOPC   C3121904   5.504   5.275   2.990  0.2072 -0.6655 -0.3408
  179DOPC   O3221905   5.513   5.362   2.906 -0.2232  0.2667 -0.5867
  179DOPC   C3221906   5.395   5.268   3.096 -0.6418  0.3361  0.0999
  179DOPC   H2X21907   5.319   5.349   3.091 -0.3606  0.5655 -0.7223
  179DOPC   H2Y21908   5.349   5.172   3.066 -0.1258 -0.5126  1.9013
  179DOPC   C2321909   5.934   5.109   3.274 -0.6569 -0.0732  1.5497
  179DOPC   H3R21910   6.034   5.067   3.251 -0.2067  2.0237 -0.7350
  179DOPC   H3S21911   5.868   5.048   3.207  0.6540  1.2863 -1.1267
  179DOPC   C2421912   5.902   5.079   3.419  0.5067  0.2595  0.0787
  179DOPC   H4R21913   5.904   4.969   3.436  0.2546 -0.0901 -1.8862
  179DOPC   H4S21914   5.796   5.112   3.431 -0.2132 -1.2868 -1.5169
  179DOPC   C2521915   6.001   5.146   3.517 -0.0162  0.4931  0.5460
  179DOPC   H5R21916   5.992   5.257   3.518  0.9567  0.5793  0.6839
  179DOPC   H5S21917   6.103   5.116   3.487  0.3957  1.3317  1.0484
  179DOPC   C2621918   5.969   5.107   3.663 -0.5401 -0.0491  0.4423
  179DOPC   H6R21919   6.027   5.016   3.690 -0.0822 -0.0988 -0.6637
  179DOPC   H6S21920   5.863   5.082   3.683 -0.6217  0.9871  1.4423
  179DOPC   C2721921   6.023   5.217   3.760  0.1371 -0.4886 -0.2993
  179DOPC   H7R21922   5.964   5.311   3.757  2.1267  1.0088  2.5953
  179DOPC   H7S21923   6.125   5.241   3.724 -0.2628 -1.4177 -2.1968
  179DOPC   C2821924   6.035   5.177   3.905  0.0288 -0.3600  0.4181
  179DOPC   H8R21925   6.095   5.085   3.921 -2.5325 -1.8241  2.5562
  179DOPC   H8S21926   5.935   5.151   3.947 -0.5374  2.2207  0.8715
  179DOPC   C2921927   6.095   5.301   3.972  0.7174 -0.3509  0.4859
  179DOPC   H9R21928   6.061   5.402   3.945  1.3106 -0.1204  0.5895
  179DOPC  C21021929   6.194   5.299   4.061  0.0788 -0.0045 -0.4837
  179DOPC  H10R21930   6.239   5.391   4.100 -1.5618  0.1064  1.2912
  179DOPC  C21121931   6.277   5.180   4.123  0.7847 -0.3557 -0.0306
  179DOPC  H11R21932   6.348   5.221   4.198  0.4533  0.9009 -0.3792
  179DOPC  H11S21933   6.319   5.114   4.045  1.5016 -1.1129  0.9788
  179DOPC  C21221934   6.183   5.096   4.224 -0.2525 -1.5667  0.7915
  179DOPC  H12R21935   6.102   5.060   4.157  1.2723 -2.0015 -0.8926
  179DOPC  H12S21936   6.145   5.165   4.302 -0.3157  0.3041 -0.7962
  179DOPC  C21321937   6.253   4.975   4.281  0.1781  0.3828 -0.0424
  179DOPC  H13R21938   6.316   4.938   4.198  0.3773  4.7526 -2.1017
  179DOPC  H13S21939   6.173   4.898   4.292  1.3515 -0.8477  0.1905
  179DOPC  C21421940   6.336   4.991   4.414 -0.5967 -0.3984  0.0989
  179DOPC  H14R21941   6.384   5.090   4.407  2.6921 -1.7357  1.6103
  179DOPC  H14S21942   6.413   4.913   4.429  1.2600  1.6916  2.0347
  179DOPC  C21521943   6.251   4.976   4.538 -0.4947  0.4973  0.2333
  179DOPC  H15R21944   6.212   4.872   4.531 -1.1983  0.7633  0.0660
  179DOPC  H15S21945   6.166   5.047   4.525  0.0764  0.8837 -1.7563
  179DOPC  C21621946   6.341   4.985   4.663  0.7082  0.1770 -0.1985
  179DOPC  H16R21947   6.405   5.075   4.651  0.2734  0.4413 -0.5522
  179DOPC  H16S21948   6.406   4.895   4.663 -1.7377 -1.7055 -1.0733
  179DOPC  C21721949   6.262   4.999   4.792  0.2717  0.1978  0.0866
  179DOPC  H17R21950   6.173   4.933   4.794  0.7013 -0.3832  0.2782
  179DOPC  H17S21951   6.218   5.101   4.787 -1.4667 -0.4286  1.6433
  179DOPC  C21821952   6.340   4.971   4.924 -0.8082 -0.5281  0.0982
  179DOPC  H18R21953   6.277   5.009   5.007  2.9475  1.2479  2.4090
  179DOPC  H18S21954   6.436   5.027   4.918 -0.4787 -1.0053  0.7917
  179DOPC  H18T21955   6.369   4.865   4.941  0.3287 -0.1699  0.5223
  179DOPC   C3321956   5.446   5.244   3.239 -0.3259 -0.1606 -0.1944
  179DOPC   H3X21957   5.513   5.327   3.269  0.2231 -1.5649  2.8379
  179DOPC   H3Y21958   5.513   5.156   3.251  0.6813  0.4723 -1.0062
  179DOPC   C3421959   5.331   5.235   3.350 -0.1210  0.3339  0.4744
  179DOPC   H4X21960   5.260   5.153   3.326 -0.1407  0.4950 -0.0317
  179DOPC   H4Y21961   5.259   5.319   3.336 -0.5374  0.0008  0.6027
  179DOPC   C3521962   5.379   5.229   3.493 -0.5394 -0.5886 -0.2850
  179DOPC   H5X21963   5.290   5.240   3.559 -1.6266 -1.6290 -1.4931
  179DOPC   H5Y21964   5.464   5.297   3.514 -0.9366 -0.0072 -0.5274
  179DOPC   C3621965   5.433   5.086   3.525 -0.6773 -0.0995  0.2526
  179DOPC   H6X21966   5.362   5.002   3.510  1.8963 -2.2742 -0.6136
  179DOPC   H6Y21967   5.525   5.070   3.466 -2.3603  0.3913 -2.6835
  179DOPC   C3721968   5.495   5.080   3.666  0.5185  0.5537  0.3813
  179DOPC   H7X21969   5.407   5.077   3.734  0.7428  1.3440  0.7172
  179DOPC   H7Y21970   5.552   4.985   3.676  0.5799  0.1121 -3.0448
  179DOPC   C3821971   5.596   5.189   3.708 -0.0363 -0.2439 -0.1509
  179DOPC   H8X21972   5.665   5.220   3.627  2.2993  2.0586  2.4644
  179DOPC   H8Y21973   5.666   5.136   3.776 -0.3219  0.9307  1.1215
  179DOPC   C3921974   5.529   5.307   3.778 -0.5828 -0.3854  0.1805
  179DOPC   H9X21975   5.444   5.352   3.724 -0.0860  0.2375 -0.0978
  179DOPC  C31021976   5.559   5.351   3.899 -0.1001  0.0407 -0.4342
  179DOPC  H10X21977   5.499   5.434   3.938  0.5783 -0.6374  2.2212
  179DOPC  C31121978   5.666   5.294   3.993  0.0629 -0.4080 -0.5456
  179DOPC  H11X21979   5.744   5.240   3.935  1.9844  0.3564  1.2174
  179DOPC  H11Y21980   5.621   5.214   4.056  0.3180 -1.3597 -1.5173
  179DOPC  C31221981   5.720   5.405   4.078 -0.3171  0.0326 -0.8623
  179DOPC  H12X21982   5.644   5.455   4.143  1.1486  1.4754 -0.1902
  179DOPC  H12Y21983   5.771   5.482   4.017  1.2910  0.5013  0.9524
  179DOPC  C31321984   5.817   5.346   4.189  0.1018  0.1682  0.5190
  179DOPC  H13X21985   5.763   5.283   4.263  1.0294 -0.2256  0.8674
  179DOPC  H13Y21986   5.878   5.280   4.124 -0.9517  1.1344 -1.5801
  179DOPC  C31421987   5.895   5.453   4.266  0.0299 -0.2313 -0.2206
  179DOPC  H14X21988   5.980   5.484   4.201  1.0721  0.8488  1.5938
  179DOPC  H14Y21989   5.823   5.530   4.301  0.0642 -0.4714  0.3953
  179DOPC  C31521990   5.952   5.388   4.393 -0.4026  0.1680  0.3559
  179DOPC  H15X21991   6.002   5.297   4.352  0.8272 -0.1925  2.5349
  179DOPC  H15Y21992   5.876   5.339   4.457 -0.1722 -2.1372 -0.9849
  179DOPC  C31621993   6.060   5.468   4.470  0.5520 -0.1849  0.3339
  179DOPC  H16X21994   6.141   5.488   4.397  1.7341 -1.3343  1.2808
  179DOPC  H16Y21995   6.027   5.568   4.507 -4.6799 -0.9727 -1.3755
  179DOPC  C31721996   6.120   5.390   4.587 -0.2066  0.2682 -0.4244
  179DOPC  H17X21997   6.039   5.368   4.660 -0.9763  0.6901 -1.1325
  179DOPC  H17Y21998   6.163   5.295   4.550 -2.3465 -0.5094 -1.0119
  179DOPC  C31821999   6.219   5.478   4.668  0.5051 -0.2632 -0.4678
  179DOPC  H18X22000   6.322   5.474   4.628  0.7685 -3.7907  0.2356
  179DOPC  H18Y22001   6.176   5.580   4.675 -1.0083 -0.9520  0.8934
  179DOPC  H18Z22002   6.221   5.436   4.771  1.1158  0.6621 -0.0869
  180DOPC     N22003   6.899   3.223   2.623  0.1609  0.4849  0.2269
  180DOPC   C1222004   6.917   3.271   2.768 -0.2490 -0.4971 -0.1527
  180DOPC  H12A22005   7.021   3.289   2.788 -0.6209  2.7690 -0.6000
  180DOPC  H12B22006   6.890   3.186   2.829  1.5395 -0.3185  0.9695
  180DOPC   C1322007   6.952   3.084   2.623  0.3535  0.5360  0.3473
  180DOPC  H13A22008   6.901   3.022   2.694  0.9584  0.3632  0.6396
  180DOPC  H13B22009   6.929   3.028   2.533 -1.0839  0.3215  0.8310
  180DOPC  H13C22010   7.059   3.082   2.639  0.2115 -1.3492  1.3049
  180DOPC   C1422011   6.982   3.315   2.528 -0.2998  0.5318 -0.8848
  180DOPC  H14A22012   6.953   3.290   2.427 -0.5739  0.2027 -0.7271
  180DOPC  H14B22013   6.963   3.418   2.555  0.0820  0.6717 -1.1526
  180DOPC  H14C22014   7.088   3.303   2.544 -0.4579 -0.3515 -0.4324
  180DOPC   C1522015   6.755   3.231   2.585  0.0733  0.6426 -0.4701
  180DOPC  H15A22016   6.731   3.334   2.562  0.1507  0.7949  0.1350
  180DOPC  H15B22017   6.688   3.195   2.661  0.3063 -0.4294 -0.7629
  180DOPC  H15C22018   6.738   3.172   2.496 -2.9470 -0.4432  0.7052
  180DOPC   C1122019   6.831   3.394   2.818  0.0517 -0.4804  0.3983
  180DOPC  H11A22020   6.725   3.395   2.787  0.3816  1.5040 -0.8475
  180DOPC  H11B22021   6.842   3.405   2.928  2.4593 -0.5892  0.2378
  180DOPC     P22022   7.019   3.573   2.793 -0.6563  0.3575  0.2801
  180DOPC   O1322023   7.101   3.599   2.675  0.5561 -0.2415 -0.2664
  180DOPC   O1422024   7.086   3.481   2.886  0.2672  0.7937  0.0506
  180DOPC   O1222025   6.885   3.514   2.764  0.0508 -0.1473  0.0386
  180DOPC   O1122026   6.997   3.713   2.866  0.2477  0.1378 -0.0868
  180DOPC    C122027   6.881   3.719   2.945  0.1436 -0.2614 -0.1334
  180DOPC    HA22028   6.795   3.655   2.917  0.8603 -1.6006  0.5923
  180DOPC    HB22029   6.834   3.819   2.955 -1.3999 -1.0674  1.1533
  180DOPC    C222030   6.915   3.676   3.091 -0.2293  0.3059  0.3669
  180DOPC    HS22031   6.983   3.588   3.082 -0.3272  0.1578  1.0428
  180DOPC   O2122032   6.800   3.639   3.159  0.0640  0.2497  0.0452
  180DOPC   C2122033   6.818   3.570   3.273  0.4797  0.0660  0.8488
  180DOPC   O2222034   6.925   3.522   3.305  0.4553 -0.0604  0.1393
  180DOPC   C2222035   6.699   3.562   3.368 -0.0840  0.0745  0.3560
  180DOPC   H2R22036   6.617   3.507   3.316  0.0555 -1.1327  1.3443
  180DOPC   H2S22037   6.647   3.659   3.381 -1.1151 -0.0373 -2.1823
  180DOPC    C322038   6.993   3.787   3.170 -0.3996 -0.8807 -0.0780
  180DOPC    HX22039   6.914   3.854   3.210 -0.5544 -0.6266 -0.7916
  180DOPC    HY22040   7.051   3.846   3.096 -0.1391 -1.8406 -0.6549
  180DOPC   O3122041   7.083   3.733   3.269 -0.4290  0.6031 -0.8427
  180DOPC   C3122042   7.054   3.767   3.391 -0.5742  0.1054  0.2504
  180DOPC   O3222043   6.988   3.863   3.425 -0.6391  0.1923  0.1021
  180DOPC   C3222044   7.116   3.667   3.493  0.2740  0.1368  0.0367
  180DOPC   H2X22045   7.082   3.563   3.479  0.6042 -0.0498  0.5877
  180DOPC   H2Y22046   7.225   3.662   3.474 -0.2263 -3.4906 -2.9310
  180DOPC   C2322047   6.726   3.514   3.504 -0.6798  0.2640 -0.6841
  180DOPC   H3R22048   6.784   3.585   3.566 -1.9293  2.0223 -1.4351
  180DOPC   H3S22049   6.760   3.409   3.512  2.1178  1.1150 -0.5491
  180DOPC   C2422050   6.591   3.518   3.591  0.5082  0.3360 -0.1315
  180DOPC   H4R22051   6.526   3.437   3.550 -1.0392  1.2656  0.4179
  180DOPC   H4S22052   6.536   3.614   3.590 -1.3776 -0.6711  0.7626
  180DOPC   C2522053   6.620   3.476   3.739 -0.0734 -0.3837  0.2672
  180DOPC   H5R22054   6.690   3.390   3.730  1.6014  0.6240  2.5777
  180DOPC   H5S22055   6.524   3.446   3.786 -0.3840  2.7276  1.8318
  180DOPC   C2622056   6.686   3.596   3.809 -0.4442 -0.0286 -0.1497
  180DOPC   H6R22057   6.613   3.677   3.826  0.1393 -0.0614  3.3813
  180DOPC   H6S22058   6.780   3.646   3.776  0.1368  0.2904  1.8045
  180DOPC   C2722059   6.723   3.546   3.954 -0.6528 -0.1395 -0.3953
  180DOPC   H7R22060   6.814   3.484   3.940  0.1430  1.0804 -0.8824
  180DOPC   H7S22061   6.640   3.490   4.001  0.4952 -0.3532  1.4887
  180DOPC   C2822062   6.758   3.664   4.042  0.3012 -0.3075  0.0034
  180DOPC   H8R22063   6.751   3.630   4.148 -0.6236  0.7190  0.2941
  180DOPC   H8S22064   6.679   3.742   4.046 -0.6271 -1.1917 -0.5264
  180DOPC   C2922065   6.897   3.720   4.016  0.9809 -0.6357 -0.1656
  180DOPC   H9R22066   6.902   3.748   3.910  0.1367 -2.4513 -0.7325
  180DOPC  C21022067   7.005   3.723   4.092  0.1415  0.1650 -0.6023
  180DOPC  H10R22068   7.095   3.776   4.057  0.7814 -0.7902 -0.4582
  180DOPC  C21122069   7.031   3.663   4.230 -0.7879  0.3372  1.0266
  180DOPC  H11R22070   7.122   3.601   4.221  0.1984  1.7872  0.6097
  180DOPC  H11S22071   6.950   3.604   4.277  0.7617 -2.2567  0.6309
  180DOPC  C21222072   7.060   3.785   4.324  0.6620  0.5759 -0.1862
  180DOPC  H12R22073   6.973   3.854   4.324 -0.9839 -1.4060 -0.6494
  180DOPC  H12S22074   7.143   3.848   4.286  0.2476  1.1383 -0.1609
  180DOPC  C21322075   7.105   3.768   4.471 -0.0440 -0.4781 -0.4538
  180DOPC  H13R22076   7.133   3.869   4.506  2.7100 -1.4575  0.4400
  180DOPC  H13S22077   7.196   3.705   4.462  1.1421  1.4293 -3.6368
  180DOPC  C21422078   6.993   3.718   4.563 -0.0338  0.5962  0.0638
  180DOPC  H14R22079   6.939   3.630   4.523 -1.4727  1.1065  0.8102
  180DOPC  H14S22080   6.904   3.784   4.562 -1.9735 -1.8918 -0.4840
  180DOPC  C21522081   7.029   3.708   4.716  0.0212 -0.3413  0.6086
  180DOPC  H15R22082   6.935   3.672   4.762 -0.3717  1.7896  1.6223
  180DOPC  H15S22083   7.040   3.813   4.752  0.4705 -0.4484  0.7835
  180DOPC  C21622084   7.151   3.619   4.740 -0.5032  0.0292 -0.9992
  180DOPC  H16R22085   7.234   3.658   4.676 -0.2823  1.0842 -0.0983
  180DOPC  H16S22086   7.126   3.515   4.709  1.0839 -0.4796 -0.6917
  180DOPC  C21722087   7.198   3.615   4.885 -0.0463  0.2637  0.1284
  180DOPC  H17R22088   7.238   3.716   4.908  2.1934 -0.8153  1.2378
  180DOPC  H17S22089   7.284   3.545   4.892  1.2106  1.7967  0.5917
  180DOPC  C21822090   7.092   3.594   4.984  0.0406 -0.2536  0.1542
  180DOPC  H18R22091   7.117   3.615   5.090  0.5124  0.8137 -0.1533
  180DOPC  H18S22092   7.046   3.493   4.980 -0.3412 -0.0537 -2.7748
  180DOPC  H18T22093   7.004   3.659   4.964  0.5457  0.1806 -0.7437
  180DOPC   C3322094   7.103   3.710   3.645 -0.2662  1.0930  0.2806
  180DOPC   H3X22095   7.000   3.710   3.688  0.4228  0.5982  2.0353
  180DOPC   H3Y22096   7.140   3.815   3.649  0.7175  0.8357 -1.4491
  180DOPC   C3422097   7.187   3.624   3.741 -0.6660 -0.7387 -0.2567
  180DOPC   H4X22098   7.185   3.683   3.835  0.1232 -1.9893  0.5673
  180DOPC   H4Y22099   7.291   3.622   3.702 -0.4163  1.7496  0.1362
  180DOPC   C3522100   7.140   3.477   3.769  0.1596 -0.6786 -0.8238
  180DOPC   H5X22101   7.161   3.411   3.683 -0.8353 -1.1958 -0.6762
  180DOPC   H5Y22102   7.031   3.481   3.785  0.3222  1.4352  0.1870
  180DOPC   C3622103   7.227   3.415   3.877  0.9094 -0.0909 -0.3717
  180DOPC   H6X22104   7.333   3.427   3.849  1.1477  0.6887  0.8029
  180DOPC   H6Y22105   7.210   3.470   3.972  0.4601 -2.2398  0.8622
  180DOPC   C3722106   7.185   3.265   3.906 -0.2973 -0.0535  0.1453
  180DOPC   H7X22107   7.075   3.273   3.914 -0.3127  0.3109 -0.3673
  180DOPC   H7Y22108   7.201   3.199   3.818  0.7728 -0.6108  0.7254
  180DOPC   C3822109   7.258   3.206   4.026  0.3556  1.1640  0.1430
  180DOPC   H8X22110   7.234   3.255   4.122  0.5464  0.0115  0.8000
  180DOPC   H8Y22111   7.364   3.231   4.006 -0.3905  3.0430 -1.9291
  180DOPC   C3922112   7.227   3.061   4.043  0.1496 -0.0896 -0.7688
  180DOPC   H9X22113   7.121   3.034   4.054  0.2946  0.1084  1.6513
  180DOPC  C31022114   7.320   2.966   4.029 -1.0374 -0.3101 -0.5368
  180DOPC  H10X22115   7.294   2.865   4.064 -1.0455  0.8231  3.1791
  180DOPC  C31122116   7.471   2.976   4.016 -0.0759  0.0023 -0.0828
  180DOPC  H11X22117   7.497   3.059   3.947 -0.7680  0.0602 -0.2787
  180DOPC  H11Y22118   7.506   2.881   3.970  3.0886 -0.6006  3.0784
  180DOPC  C31222119   7.548   2.982   4.153 -0.4784 -0.3542 -0.6969
  180DOPC  H12X22120   7.502   3.058   4.220  4.3872  1.6756  0.7724
  180DOPC  H12Y22121   7.652   3.017   4.138 -0.4754 -0.9026 -2.0861
  180DOPC  C31322122   7.558   2.843   4.221  0.4438 -1.0547 -0.1644
  180DOPC  H13X22123   7.455   2.805   4.240 -0.7642  1.2621 -1.5948
  180DOPC  H13Y22124   7.613   2.771   4.157  0.9739  0.7014 -1.7708
  180DOPC  C31422125   7.624   2.831   4.357  0.2591  0.3070  0.1439
  180DOPC  H14X22126   7.566   2.886   4.434 -1.2171 -0.3772 -0.4551
  180DOPC  H14Y22127   7.626   2.724   4.385  0.9976  0.3194  0.1630
  180DOPC  C31522128   7.768   2.881   4.355  0.5770 -0.5647 -0.9023
  180DOPC  H15X22129   7.765   2.985   4.317 -1.7733 -0.5610 -0.8488
  180DOPC  H15Y22130   7.816   2.818   4.277  0.9987  0.2866 -1.3458
  180DOPC  C31622131   7.843   2.866   4.488  0.2624 -0.1512  0.0427
  180DOPC  H16X22132   7.814   2.942   4.564  0.5422 -0.3878  0.3933
  180DOPC  H16Y22133   7.802   2.776   4.540 -3.4907  2.7768  2.6501
  180DOPC  C31722134   7.997   2.864   4.481  0.2071  0.2058 -0.5732
  180DOPC  H17X22135   8.029   2.785   4.410  0.3687  0.4787 -0.8101
  180DOPC  H17Y22136   8.038   2.961   4.446 -0.8861  1.5385  1.6257
  180DOPC  C31822137   8.083   2.837   4.613  0.6064  0.5147  0.6340
  180DOPC  H18X22138   8.048   2.738   4.648  1.4741 -0.9650 -2.3085
  180DOPC  H18Y22139   8.190   2.824   4.586 -0.2178 -0.2349 -2.7469
  180DOPC  H18Z22140   8.070   2.920   4.685 -1.0513 -1.2919  2.5210
  181DOPC     N22141   1.111   2.776   2.990  0.2614  0.1920  0.2487
  181DOPC   C1222142   1.095   2.816   3.139 -0.3466  1.0802 -0.4076
  181DOPC  H12A22143   0.991   2.839   3.160 -0.3152  0.0157  1.1171
  181DOPC  H12B22144   1.149   2.910   3.144 -1.5723  1.8120 -0.5624
  181DOPC   C1322145   1.040   2.871   2.893  0.3055  0.6560  0.6313
  181DOPC  H13A22146   1.061   2.847   2.790 -2.1244 -0.5998  0.3524
  181DOPC  H13B22147   0.933   2.857   2.899  0.7186 -2.6642  2.5774
  181DOPC  H13C22148   1.075   2.971   2.915 -0.3702  1.2609 -0.9242
  181DOPC   C1422149   1.051   2.635   2.963  0.2193 -0.2997  0.0677
  181DOPC  H14A22150   0.944   2.632   2.976  0.1224  1.1829 -0.1684
  181DOPC  H14B22151   1.062   2.598   2.862 -0.8916 -0.4558 -0.0039
  181DOPC  H14C22152   1.094   2.564   3.032 -1.4804  0.4967  2.0374
  181DOPC   C1522153   1.252   2.770   2.966  0.1343 -0.8053 -0.8696
  181DOPC  H15A22154   1.289   2.678   3.008 -1.9816 -2.7352 -2.9461
  181DOPC  H15B22155   1.311   2.857   2.993 -1.0613 -0.1965 -0.1523
  181DOPC  H15C22156   1.261   2.748   2.861 -1.5178 -1.5100 -0.8861
  181DOPC   C1122157   1.143   2.730   3.258 -0.3182 -0.6788 -0.2538
  181DOPC  H11A22158   1.112   2.782   3.352  2.2771 -1.2676  1.0212
  181DOPC  H11B22159   1.084   2.636   3.260 -0.2542 -0.7729 -1.9075
  181DOPC     P22160   1.383   2.826   3.289 -0.1141  0.1533 -0.3286
  181DOPC   O1322161   1.330   2.959   3.238 -0.1528  0.2957  0.1088
  181DOPC   O1422162   1.512   2.790   3.233 -0.2891 -0.5842  0.4401
  181DOPC   O1222163   1.285   2.707   3.258 -1.0818 -0.3979 -0.4098
  181DOPC   O1122164   1.391   2.839   3.444 -0.1151 -0.7373 -0.3586
  181DOPC    C122165   1.466   2.743   3.513  0.6013  0.1431  0.5496
  181DOPC    HA22166   1.563   2.722   3.463  0.7666 -1.5450  1.4765
  181DOPC    HB22167   1.417   2.643   3.501  1.2108 -0.1684  0.6185
  181DOPC    C222168   1.478   2.773   3.668 -0.1957  0.7294 -0.7542
  181DOPC    HS22169   1.517   2.685   3.723  2.7885  2.4342  0.1165
  181DOPC   O2122170   1.358   2.833   3.726  0.0883  0.3015 -0.4938
  181DOPC   C2122171   1.249   2.756   3.736 -0.3660  0.7453  0.9684
  181DOPC   O2222172   1.244   2.639   3.713 -0.1945  0.6261  0.3985
  181DOPC   C2222173   1.138   2.845   3.766 -0.0086  0.1132  0.4841
  181DOPC   H2R22174   1.080   2.859   3.673 -0.2598  0.8084  0.7359
  181DOPC   H2S22175   1.178   2.944   3.796  0.3208 -0.1788  1.0304
  181DOPC    C322176   1.588   2.876   3.687  0.1184 -0.5444  0.2988
  181DOPC    HX22177   1.568   2.969   3.630  3.1164  0.9770  1.4804
  181DOPC    HY22178   1.681   2.830   3.646 -0.7051 -0.4977 -1.7150
  181DOPC   O3122179   1.614   2.909   3.826  0.6051 -0.1142  0.1940
  181DOPC   C3122180   1.555   3.016   3.865 -0.1086 -0.6736 -0.1084
  181DOPC   O3222181   1.467   3.075   3.804 -0.2247 -0.0293  0.2774
  181DOPC   C3222182   1.623   3.068   3.992 -0.4494 -0.0437 -0.3842
  181DOPC   H2X22183   1.632   2.984   4.066  0.5744  1.0770  0.8214
  181DOPC   H2Y22184   1.726   3.101   3.967 -0.3101  0.0450  0.2754
  181DOPC   C2322185   1.053   2.785   3.879  0.4184 -0.2618 -0.3530
  181DOPC   H3R22186   1.014   2.690   3.838  1.5959 -1.4765  1.2323
  181DOPC   H3S22187   0.975   2.857   3.912  1.1459 -0.6030  2.3959
  181DOPC   C2422188   1.125   2.742   4.015 -0.4023 -0.8544  0.1145
  181DOPC   H4R22189   1.188   2.654   3.987 -1.1543 -0.5579 -2.8752
  181DOPC   H4S22190   1.048   2.707   4.087 -0.6080  2.7888  1.8926
  181DOPC   C2522191   1.217   2.850   4.081 -0.5170  0.0515  0.5381
  181DOPC   H5R22192   1.148   2.934   4.103 -3.2019 -2.0954  0.9528
  181DOPC   H5S22193   1.301   2.873   4.011  0.2733  0.4603  1.5991
  181DOPC   C2622194   1.269   2.805   4.220 -0.6130 -0.4236 -0.4535
  181DOPC   H6R22195   1.323   2.708   4.221 -0.7048 -0.4979  1.7387
  181DOPC   H6S22196   1.175   2.793   4.277 -0.6153 -0.8659 -0.5441
  181DOPC   C2722197   1.356   2.910   4.288 -0.0113 -0.3358 -0.0667
  181DOPC   H7R22198   1.295   3.002   4.290 -1.9710 -1.5753  1.9018
  181DOPC   H7S22199   1.450   2.919   4.229  0.0135  2.6230  0.2866
  181DOPC   C2822200   1.396   2.878   4.435  0.0752 -0.2422 -0.0502
  181DOPC   H8R22201   1.415   2.769   4.439  1.4680 -0.0350 -0.5912
  181DOPC   H8S22202   1.306   2.898   4.498 -0.7095 -1.4995 -0.7411
  181DOPC   C2922203   1.514   2.965   4.485  0.3188  0.6978  0.0067
  181DOPC   H9R22204   1.617   2.927   4.476  0.1520  0.3983 -0.7115
  181DOPC  C21022205   1.497   3.082   4.549  0.6771 -0.3220  0.1295
  181DOPC  H10R22206   1.587   3.138   4.581  0.6964 -1.0588  1.4383
  181DOPC  C21122207   1.369   3.153   4.587 -0.0925  0.2034  0.8099
  181DOPC  H11R22208   1.280   3.120   4.529 -0.1938 -0.4519  1.3172
  181DOPC  H11S22209   1.370   3.259   4.556 -0.8046  1.3499  4.2593
  181DOPC  C21222210   1.347   3.148   4.732 -0.0744  0.3173 -0.2125
  181DOPC  H12R22211   1.264   3.213   4.767 -2.5968 -3.8635  2.5115
  181DOPC  H12S22212   1.444   3.174   4.780  0.0429 -1.6463  0.7277
  181DOPC  C21322213   1.298   3.004   4.783  0.2720 -0.3041  0.2180
  181DOPC  H13R22214   1.392   2.945   4.769 -0.3879 -1.0840 -1.1572
  181DOPC  H13S22215   1.221   2.977   4.707 -0.2867 -0.7580  0.9374
  181DOPC  C21422216   1.242   2.980   4.921 -0.5411 -0.0217  0.5502
  181DOPC  H14R22217   1.214   2.874   4.940  0.2729 -0.1171  1.2608
  181DOPC  H14S22218   1.146   3.036   4.926 -1.0751 -0.9806  1.5383
  181DOPC  C21522219   1.322   3.023   5.046 -0.6627 -0.4873 -0.6553
  181DOPC  H15R22220   1.279   2.977   5.138  0.2585  0.8114  0.4588
  181DOPC  H15S22221   1.315   3.133   5.058 -1.2595 -0.4330 -1.4264
  181DOPC  C21622222   1.474   2.988   5.038  0.2725  0.2365  0.2255
  181DOPC  H16R22223   1.513   3.018   4.938  2.9869 -1.0857  0.8089
  181DOPC  H16S22224   1.481   2.878   5.048  2.0469  0.2607 -0.3655
  181DOPC  C21722225   1.564   3.048   5.142 -0.7252 -0.2964  0.6225
  181DOPC  H17R22226   1.668   3.015   5.122 -0.7717  0.1527 -0.4185
  181DOPC  H17S22227   1.537   3.015   5.245  2.3504  0.0275  1.6377
  181DOPC  C21822228   1.565   3.199   5.135  0.7767  0.9133 -0.2395
  181DOPC  H18R22229   1.652   3.234   5.195 -0.5309  3.4214  0.3604
  181DOPC  H18S22230   1.470   3.245   5.169  1.2417  2.2582 -0.6970
  181DOPC  H18T22231   1.581   3.234   5.031 -0.9150  0.6086 -0.6219
  181DOPC   C3322232   1.558   3.194   4.053 -0.5044 -0.4975 -0.3256
  181DOPC   H3X22233   1.449   3.189   4.074 -0.4669 -0.5706 -0.1500
  181DOPC   H3Y22234   1.558   3.269   3.971  2.3109  1.3299  1.1890
  181DOPC   C3422235   1.647   3.255   4.162 -0.0691  0.0559  0.2833
  181DOPC   H4X22236   1.755   3.236   4.151 -0.2739 -2.0213  1.3640
  181DOPC   H4Y22237   1.616   3.205   4.256 -1.8655  1.1075  0.3099
  181DOPC   C3522238   1.620   3.408   4.173  1.0270 -0.4312 -0.5315
  181DOPC   H5X22239   1.511   3.428   4.176  1.2796  1.1727  2.9797
  181DOPC   H5Y22240   1.678   3.461   4.095  0.0852 -1.3211 -1.8862
  181DOPC   C3622241   1.667   3.460   4.309  0.9029 -1.1631 -0.5123
  181DOPC   H6X22242   1.605   3.412   4.388  1.9899  0.9775  1.7673
  181DOPC   H6Y22243   1.772   3.438   4.339  1.0971  2.2169  1.7746
  181DOPC   C3722244   1.639   3.613   4.335 -0.1032 -0.0290  0.6229
  181DOPC   H7X22245   1.701   3.668   4.260 -1.3634  1.2861  0.4970
  181DOPC   H7Y22246   1.532   3.631   4.313 -0.1771  0.4221  1.3173
  181DOPC   C3822247   1.661   3.666   4.481 -0.4583  0.0295 -0.0914
  181DOPC   H8X22248   1.754   3.628   4.528 -1.2043 -1.5106  0.1749
  181DOPC   H8Y22249   1.579   3.625   4.543  1.0139 -0.3001  1.7011
  181DOPC   C3922250   1.651   3.820   4.476  0.1624 -0.3309 -0.1203
  181DOPC   H9X22251   1.702   3.867   4.391  1.0237  0.7974  0.9753
  181DOPC  C31022252   1.579   3.899   4.558  0.6119  1.5093 -0.2956
  181DOPC  H10X22253   1.587   4.006   4.535  0.5376  1.8445  1.1052
  181DOPC  C31122254   1.496   3.862   4.678 -0.0543  0.0085  0.5215
  181DOPC  H11X22255   1.418   3.788   4.650  0.8704 -0.7627 -0.0841
  181DOPC  H11Y22256   1.427   3.941   4.716 -2.6640 -2.4655  1.3091
  181DOPC  C31222257   1.585   3.805   4.796  0.3694 -0.1182  0.0100
  181DOPC  H12X22258   1.613   3.891   4.860 -0.3685 -0.2652  0.5457
  181DOPC  H12Y22259   1.666   3.742   4.756 -2.5281 -4.7763  0.7484
  181DOPC  C31322260   1.500   3.716   4.889 -0.3264  0.3517  0.0569
  181DOPC  H13X22261   1.555   3.693   4.984  1.6116 -0.3744 -1.1667
  181DOPC  H13Y22262   1.410   3.775   4.913 -0.7878 -0.0115 -0.7718
  181DOPC  C31422263   1.464   3.581   4.823  0.1556 -0.3598 -0.3575
  181DOPC  H14X22264   1.379   3.604   4.754 -0.4263 -0.5997  0.2675
  181DOPC  H14Y22265   1.551   3.558   4.759 -0.3174  0.4854 -1.3393
  181DOPC  C31522266   1.414   3.473   4.926 -0.5577 -0.8673  0.8311
  181DOPC  H15X22267   1.493   3.440   4.997  0.3023 -1.9607 -0.5865
  181DOPC  H15Y22268   1.396   3.378   4.870  1.1057  0.1636 -1.6221
  181DOPC  C31622269   1.275   3.524   4.989 -0.6072  0.4409 -0.9377
  181DOPC  H16X22270   1.298   3.628   5.022  0.1811  0.1087 -0.4095
  181DOPC  H16Y22271   1.192   3.521   4.915 -2.0504  1.5200  0.5734
  181DOPC  C31722272   1.226   3.439   5.105  0.0232  0.2956 -0.5524
  181DOPC  H17X22273   1.217   3.332   5.077 -1.5403 -0.5091  2.5872
  181DOPC  H17Y22274   1.295   3.452   5.191  0.4473 -0.9576 -0.6891
  181DOPC  C31822275   1.088   3.497   5.149 -0.0206  0.5785  0.0759
  181DOPC  H18X22276   1.093   3.599   5.193  3.3118  0.4439  0.2818
  181DOPC  H18Y22277   1.020   3.487   5.061 -2.5764  2.8867  1.6268
  181DOPC  H18Z22278   1.052   3.434   5.233  1.2269  0.1053  0.2672
  182DOPC     N22279   3.951   0.906   2.961 -0.2589 -0.5043  1.0958
  182DOPC   C1222280   3.814   0.954   3.011  0.6834  0.0054 -0.4119
  182DOPC  H12A22281   3.734   0.919   2.948  0.2371 -0.3279  0.3231
  182DOPC  H12B22282   3.817   1.060   2.989 -1.4975 -0.5975 -4.5279
  182DOPC   C1322283   3.943   0.759   2.965 -0.1515 -0.6747  0.5050
  182DOPC  H13A22284   3.918   0.725   3.065 -1.2496 -1.8960 -0.1426
  182DOPC  H13B22285   3.854   0.724   2.914  0.9729 -4.4475  0.8393
  182DOPC  H13C22286   4.029   0.705   2.930  0.1825 -0.2899  0.7226
  182DOPC   C1422287   4.060   0.956   3.048 -0.7566 -0.2050  0.0293
  182DOPC  H14A22288   4.065   1.063   3.065 -0.7370 -0.5044  2.2625
  182DOPC  H14B22289   4.044   0.922   3.150  1.0904  1.4073  0.9190
  182DOPC  H14C22290   4.160   0.924   3.021 -0.4970  1.5157 -1.1746
  182DOPC   C1522291   3.968   0.957   2.817  0.1779  0.4927 -0.4873
  182DOPC  H15A22292   3.992   1.062   2.809 -0.9274  0.6154 -3.4900
  182DOPC  H15B22293   3.880   0.931   2.759 -1.1013  1.0748  1.1069
  182DOPC  H15C22294   4.055   0.917   2.769  2.0800  2.9221  0.7238
  182DOPC   C1122295   3.769   0.922   3.158  0.5837 -0.2409 -0.4261
  182DOPC  H11A22296   3.861   0.925   3.220  1.0532 -2.0706 -0.9694
  182DOPC  H11B22297   3.702   0.999   3.202  0.2030 -2.3090  2.9605
  182DOPC     P22298   3.559   0.766   3.112  0.2360 -0.0092  0.2372
  182DOPC   O1322299   3.534   0.635   3.052 -0.0470 -0.1230 -0.0527
  182DOPC   O1422300   3.525   0.879   3.019  0.1294 -0.0717 -0.2379
  182DOPC   O1222301   3.714   0.787   3.157  0.1247  0.2992  0.2207
  182DOPC   O1122302   3.468   0.784   3.246 -0.6909  0.2771  0.6129
  182DOPC    C122303   3.533   0.708   3.348 -0.6934  0.4212  0.3750
  182DOPC    HA22304   3.624   0.763   3.379 -1.0627  0.8542  0.7149
  182DOPC    HB22305   3.547   0.600   3.329  0.2469  0.0632  2.7534
  182DOPC    C222306   3.445   0.697   3.475  0.2882 -0.2734 -0.3912
  182DOPC    HS22307   3.374   0.614   3.450  0.4642 -0.8434  0.9277
  182DOPC   O2122308   3.391   0.823   3.494  0.2797 -0.5001 -0.1432
  182DOPC   C2122309   3.258   0.836   3.511 -0.6797 -0.0933  0.5022
  182DOPC   O2222310   3.172   0.751   3.505  0.1776 -0.2555 -0.9464
  182DOPC   C2222311   3.230   0.982   3.549  0.4781 -0.6014 -0.1627
  182DOPC   H2R22312   3.146   1.004   3.480  1.5318  0.8293 -1.0324
  182DOPC   H2S22313   3.308   1.046   3.504 -1.4239  2.5483  0.7158
  182DOPC    C322314   3.519   0.641   3.602  0.0919 -0.1399 -0.1771
  182DOPC    HX22315   3.587   0.714   3.650 -0.3209 -0.2356  0.5728
  182DOPC    HY22316   3.580   0.552   3.574 -0.5931  0.2246 -3.1439
  182DOPC   O3122317   3.422   0.611   3.697  0.0150 -0.2301 -0.7056
  182DOPC   C3122318   3.353   0.497   3.696  0.1819 -0.2568 -0.0937
  182DOPC   O3222319   3.354   0.409   3.613  0.0171  0.7331 -0.0556
  182DOPC   C3222320   3.273   0.506   3.816  0.1405 -0.4271 -1.1602
  182DOPC   H2X22321   3.217   0.412   3.836  0.0100  0.0509  0.9480
  182DOPC   H2Y22322   3.342   0.528   3.900  0.2713 -0.4226 -1.2686
  182DOPC   C2322323   3.196   1.011   3.694 -0.4764  0.2671 -0.1506
  182DOPC   H3R22324   3.286   0.982   3.752 -0.1137  1.8541  0.1382
  182DOPC   H3S22325   3.109   0.956   3.737 -0.2657  0.5686  0.6945
  182DOPC   C2422326   3.168   1.161   3.726 -0.0662  0.1015 -0.1413
  182DOPC   H4R22327   3.248   1.222   3.679  0.4065  0.7983  1.4656
  182DOPC   H4S22328   3.191   1.170   3.835 -1.1465 -0.4010  0.1402
  182DOPC   C2522329   3.022   1.202   3.703  0.1547 -0.2224 -0.6605
  182DOPC   H5R22330   2.955   1.144   3.771  0.7212  1.1166  1.1141
  182DOPC   H5S22331   2.998   1.183   3.597 -0.3262 -1.6671 -0.3232
  182DOPC   C2622332   3.022   1.359   3.713 -0.2477 -0.0325  1.1527
  182DOPC   H6R22333   2.921   1.388   3.678 -0.0498  0.3240  0.8661
  182DOPC   H6S22334   3.091   1.411   3.643 -0.7576 -0.9539 -0.0674
  182DOPC   C2722335   3.055   1.409   3.856  0.0152 -0.1212 -0.4364
  182DOPC   H7R22336   3.157   1.388   3.894 -0.7563 -0.7082  1.4079
  182DOPC   H7S22337   2.991   1.349   3.923 -0.5394  1.5524  0.5938
  182DOPC   C2822338   3.019   1.550   3.882 -0.3719 -0.0592 -0.4140
  182DOPC   H8R22339   3.029   1.578   3.989 -1.5181 -1.1846  0.0030
  182DOPC   H8S22340   2.911   1.567   3.862 -0.5449  0.5910  0.9541
  182DOPC   C2922341   3.100   1.649   3.800 -0.0200 -0.0588  0.2122
  182DOPC   H9R22342   3.062   1.655   3.697 -2.7309  1.5943  1.2025
  182DOPC  C21022343   3.223   1.712   3.824 -0.5390 -0.3103 -0.4217
  182DOPC  H10R22344   3.264   1.774   3.744  2.1292 -2.3537 -0.7551
  182DOPC  C21122345   3.300   1.714   3.952 -0.2827 -0.6902  0.3818
  182DOPC  H11R22346   3.405   1.739   3.927 -0.6632  0.8166  0.1808
  182DOPC  H11S22347   3.305   1.613   3.998  2.2872 -0.1459  1.4711
  182DOPC  C21222348   3.259   1.823   4.049  0.0374  0.3552  0.6642
  182DOPC  H12R22349   3.165   1.790   4.098  1.3276 -1.3914  2.1216
  182DOPC  H12S22350   3.252   1.920   3.996 -3.9568  0.4032  0.9790
  182DOPC  C21322351   3.363   1.833   4.158  0.7204  0.5377 -0.1238
  182DOPC  H13R22352   3.464   1.821   4.115  0.5986 -2.0093  0.1000
  182DOPC  H13S22353   3.353   1.764   4.245  0.5369  0.9955  0.2222
  182DOPC  C21422354   3.357   1.979   4.223  0.0567 -0.7476 -0.1462
  182DOPC  H14R22355   3.376   2.061   4.151  1.0212 -0.5125  0.3672
  182DOPC  H14S22356   3.446   1.987   4.289  0.8773  1.6187 -1.4476
  182DOPC  C21522357   3.231   1.995   4.303  0.2863 -0.3358 -0.0664
  182DOPC  H15R22358   3.142   1.980   4.237 -1.5779  2.0698  1.7310
  182DOPC  H15S22359   3.226   2.103   4.331  1.2949 -0.1875 -0.4481
  182DOPC  C21622360   3.225   1.911   4.433 -0.3446 -0.2029 -0.4252
  182DOPC  H16R22361   3.330   1.903   4.468 -0.7961 -0.9106  0.8285
  182DOPC  H16S22362   3.195   1.808   4.405  0.7649 -0.7065  0.1977
  182DOPC  C21722363   3.129   1.980   4.526  0.0857 -0.0544 -0.2030
  182DOPC  H17R22364   3.028   1.984   4.481  0.2851  0.8806 -0.5960
  182DOPC  H17S22365   3.158   2.086   4.543 -0.4331 -0.0528  0.7161
  182DOPC  C21822366   3.112   1.914   4.669 -0.3848  0.4607  0.5504
  182DOPC  H18R22367   3.072   1.813   4.649 -0.1015  0.6672 -1.2102
  182DOPC  H18S22368   3.040   1.980   4.721 -0.7013  0.6507 -0.1142
  182DOPC  H18T22369   3.207   1.908   4.727 -1.2578  0.0285  1.9773
  182DOPC   C3322370   3.158   0.610   3.814  0.5288  0.0246 -0.5230
  182DOPC   H3X22371   3.088   0.579   3.733  1.4522 -0.3180 -1.2175
  182DOPC   H3Y22372   3.188   0.714   3.789 -0.0965  0.6207  1.1277
  182DOPC   C3422373   3.082   0.601   3.947  0.0231 -0.5946  0.1354
  182DOPC   H4X22374   3.147   0.569   4.032 -0.3421  2.4133  1.6751
  182DOPC   H4Y22375   2.998   0.531   3.926  0.1499 -0.6741 -0.1089
  182DOPC   C3522376   3.021   0.726   4.005  0.2887 -0.4107  0.2872
  182DOPC   H5X22377   2.950   0.699   4.087  0.0653 -0.0583  0.2105
  182DOPC   H5Y22378   2.969   0.779   3.922 -0.7125 -5.6361 -2.9142
  182DOPC   C3622379   3.127   0.824   4.060  0.6315 -0.3237 -0.3951
  182DOPC   H6X22380   3.172   0.801   4.159  0.1169  3.4430  0.9102
  182DOPC   H6Y22381   3.224   0.823   4.005  0.3007  1.7788 -1.1089
  182DOPC   C3722382   3.079   0.968   4.085 -0.2453 -0.4070 -0.1414
  182DOPC   H7X22383   3.164   1.023   4.129 -0.8017  0.0737  0.3486
  182DOPC   H7Y22384   3.051   1.030   3.997  1.2632 -0.7133 -0.8727
  182DOPC   C3822385   2.953   0.975   4.175  0.4004  0.6401 -0.2100
  182DOPC   H8X22386   2.989   0.930   4.270 -1.7096  0.5716  0.6047
  182DOPC   H8Y22387   2.881   0.905   4.125 -0.0072  1.2979 -0.5576
  182DOPC   C3922388   2.889   1.108   4.211  0.1629  0.2422  0.0724
  182DOPC   H9X22389   2.849   1.164   4.125 -1.9015 -1.2412 -0.0028
  182DOPC  C31022390   2.873   1.159   4.335 -0.0344 -0.2865 -0.4664
  182DOPC  H10X22391   2.817   1.253   4.343 -0.8294 -0.6582 -1.4516
  182DOPC  C31122392   2.901   1.083   4.461  0.0047 -0.4242  0.4201
  182DOPC  H11X22393   2.997   1.118   4.506 -0.7660 -0.3952  2.1131
  182DOPC  H11Y22394   2.909   0.975   4.437 -0.8782  0.2399 -3.3634
  182DOPC  C31222395   2.793   1.108   4.568 -0.2513 -0.2487 -0.3090
  182DOPC  H12X22396   2.807   1.029   4.645  1.0769 -1.7007 -1.9225
  182DOPC  H12Y22397   2.694   1.091   4.521 -0.4481 -0.4832  0.1823
  182DOPC  C31322398   2.789   1.250   4.628 -0.1173  0.2827  0.1679
  182DOPC  H13X22399   2.780   1.326   4.547  1.1231  1.7174  1.3093
  182DOPC  H13Y22400   2.693   1.264   4.681  0.0778  1.5276  0.2317
  182DOPC  C31422401   2.906   1.291   4.715 -0.3033  0.3387 -0.2617
  182DOPC  H14X22402   2.901   1.224   4.803  0.4332  0.3375 -0.2120
  182DOPC  H14Y22403   3.005   1.282   4.664 -1.2470 -2.6202 -1.7837
  182DOPC  C31522404   2.901   1.427   4.780 -0.0042  0.1122  0.2403
  182DOPC  H15X22405   2.831   1.430   4.866 -0.2573 -1.1108  0.0850
  182DOPC  H15Y22406   2.884   1.507   4.704  0.2822  0.5822  0.6602
  182DOPC  C31622407   3.050   1.464   4.829  0.5076  0.0877 -0.4593
  182DOPC  H16X22408   3.076   1.382   4.899 -2.5947 -1.4184 -0.8982
  182DOPC  H16Y22409   3.105   1.452   4.733  0.5704  0.3807 -0.4601
  182DOPC  C31722410   3.058   1.610   4.888 -0.3158 -0.2989 -0.6757
  182DOPC  H17X22411   3.163   1.632   4.920  0.6725 -2.3412 -2.2842
  182DOPC  H17Y22412   3.033   1.682   4.808 -0.2327 -0.0566 -0.4854
  182DOPC  C31822413   2.959   1.646   5.001 -0.5495 -0.3658 -0.0202
  182DOPC  H18X22414   2.858   1.651   4.954 -0.5873 -1.9348 -0.1354
  182DOPC  H18Y22415   2.953   1.572   5.083  0.5500  0.2369  0.6268
  182DOPC  H18Z22416   2.989   1.743   5.048  0.6225 -0.6577 -0.1397
  183DOPC     N22417   6.941   5.130   2.513 -0.6445  0.4337  0.5542
  183DOPC   C1222418   7.030   5.135   2.638 -0.9603  0.5436  0.4144
  183DOPC  H12A22419   7.064   5.238   2.644 -2.0422  0.8719  1.4316
  183DOPC  H12B22420   7.119   5.076   2.623 -1.4288 -1.1461  3.5297
  183DOPC   C1322421   7.013   5.173   2.387  0.6542  0.2012 -0.4063
  183DOPC  H13A22422   6.951   5.152   2.302  0.7634  0.1424 -0.4717
  183DOPC  H13B22423   7.035   5.278   2.382  1.2230  0.0751 -0.5828
  183DOPC  H13C22424   7.101   5.115   2.365 -0.1776 -0.8185 -1.1267
  183DOPC   C1422425   6.808   5.205   2.528 -0.0132 -0.0204  0.1700
  183DOPC  H14A22426   6.821   5.311   2.511 -1.6036 -0.1610 -2.4733
  183DOPC  H14B22427   6.742   5.170   2.451  1.6737 -0.3442 -1.1900
  183DOPC  H14C22428   6.772   5.197   2.630 -0.8202  1.9318  0.0821
  183DOPC   C1522429   6.901   4.985   2.495  0.5486 -0.8933  0.2990
  183DOPC  H15A22430   6.830   4.978   2.414  2.0045 -1.4726 -0.9746
  183DOPC  H15B22431   6.855   4.939   2.581  0.8799 -1.1792  0.3250
  183DOPC  H15C22432   6.986   4.925   2.467  2.0190  1.0725  0.3229
  183DOPC   C1122433   6.982   5.085   2.773 -0.0471 -0.2006 -0.5930
  183DOPC  H11A22434   6.972   4.974   2.769 -3.8117 -0.0830  1.3757
  183DOPC  H11B22435   7.056   5.112   2.852 -1.5033 -1.4176  1.2733
  183DOPC     P22436   6.825   5.246   2.914 -0.5515 -0.0187 -0.0462
  183DOPC   O1322437   6.686   5.294   2.911 -0.0290 -0.1972 -0.3180
  183DOPC   O1422438   6.931   5.346   2.902 -0.0019  0.0833 -0.1279
  183DOPC   O1222439   6.851   5.133   2.804 -0.0431 -0.0175 -0.0320
  183DOPC   O1122440   6.855   5.169   3.039 -1.0082  0.2524 -0.1733
  183DOPC    C122441   6.754   5.073   3.084  0.0468 -0.1306  0.7494
  183DOPC    HA22442   6.694   5.032   3.000  0.4718 -0.9645  0.8414
  183DOPC    HB22443   6.678   5.120   3.150 -0.4679  2.3070 -1.4451
  183DOPC    C222444   6.807   4.950   3.165 -0.4256  0.3024 -0.7995
  183DOPC    HS22445   6.715   4.894   3.190 -0.0746 -0.2481 -0.7162
  183DOPC   O2122446   6.879   4.992   3.281 -0.4902 -0.4342 -0.4878
  183DOPC   C2122447   6.814   5.048   3.384 -0.2824  0.3987 -1.0393
  183DOPC   O2222448   6.695   5.055   3.394 -0.6951  0.0620  0.2273
  183DOPC   C2222449   6.907   5.115   3.481 -0.0308 -0.3219  0.7096
  183DOPC   H2R22450   6.846   5.174   3.553 -0.7491 -1.3800  1.0001
  183DOPC   H2S22451   6.982   5.176   3.426  0.0821 -0.6971  0.4386
  183DOPC    C322452   6.896   4.861   3.075 -0.3885 -0.7001  0.5031
  183DOPC    HX22453   6.990   4.915   3.049 -0.4746 -1.2714 -1.1460
  183DOPC    HY22454   6.837   4.846   2.982 -0.1891 -2.0530  0.5759
  183DOPC   O3122455   6.921   4.726   3.135  0.0006 -0.1701 -0.4225
  183DOPC   C3122456   7.020   4.731   3.227  0.2053 -1.1261  0.0946
  183DOPC   O3222457   7.094   4.824   3.247  0.2653  0.1635 -0.4612
  183DOPC   C3222458   7.039   4.588   3.288 -0.1928  0.1990  0.9109
  183DOPC   H2X22459   6.953   4.524   3.259  1.6905 -2.7367  1.3908
  183DOPC   H2Y22460   7.132   4.546   3.246 -0.3742  1.4765 -0.9272
  183DOPC   C2322461   6.983   5.013   3.573 -0.3266  0.1580 -0.0978
  183DOPC   H3R22462   7.039   4.945   3.505 -1.6122 -0.2443 -0.7960
  183DOPC   H3S22463   6.904   4.956   3.628 -0.5501  0.4929 -0.0714
  183DOPC   C2422464   7.058   5.085   3.680 -0.1904  0.4364 -0.2596
  183DOPC   H4R22465   6.985   5.135   3.748 -0.4655 -0.4269  0.1014
  183DOPC   H4S22466   7.129   5.150   3.625 -0.2960  0.4699 -0.3569
  183DOPC   C2522467   7.149   4.991   3.758 -0.6827 -0.4607 -0.2421
  183DOPC   H5R22468   7.237   4.964   3.696  1.5151  3.3265  0.9161
  183DOPC   H5S22469   7.102   4.896   3.792 -3.8088  0.8072 -0.6802
  183DOPC   C2622470   7.194   5.070   3.887 -0.4092 -0.1406 -0.0901
  183DOPC   H6R22471   7.264   5.005   3.943 -0.2813 -1.9880 -2.2866
  183DOPC   H6S22472   7.102   5.098   3.943  1.1798  0.4173  2.3992
  183DOPC   C2722473   7.259   5.209   3.867  1.0658 -0.1870  0.9612
  183DOPC   H7R22474   7.182   5.280   3.830  1.2213 -0.0611  0.8804
  183DOPC   H7S22475   7.338   5.202   3.789 -1.6888 -3.5108 -1.8987
  183DOPC   C2822476   7.299   5.273   4.001 -0.3459 -0.2289  0.1910
  183DOPC   H8R22477   7.362   5.363   3.980 -1.4269  0.8321  1.2931
  183DOPC   H8S22478   7.367   5.200   4.049 -1.6052 -1.6773 -0.1649
  183DOPC   C2922479   7.187   5.323   4.086  0.0636  0.0129 -0.8398
  183DOPC   H9R22480   7.135   5.405   4.035 -1.3391  0.7523  1.6119
  183DOPC  C21022481   7.140   5.276   4.203  0.5286 -0.1781 -0.0431
  183DOPC  H10R22482   7.047   5.316   4.246 -0.1254  0.1620 -1.6988
  183DOPC  C21122483   7.190   5.159   4.289  0.1046 -0.2869  0.7008
  183DOPC  H11R22484   7.272   5.112   4.231  0.5100 -1.7162  2.3447
  183DOPC  H11S22485   7.103   5.092   4.304  0.9630 -1.9729 -1.2620
  183DOPC  C21222486   7.240   5.206   4.428 -0.0050  0.8991 -0.4620
  183DOPC  H12R22487   7.167   5.274   4.476 -1.5825 -0.3340 -1.0284
  183DOPC  H12S22488   7.331   5.267   4.416  0.1216  0.9990  0.8402
  183DOPC  C21322489   7.299   5.083   4.505  0.2840  0.3294 -0.1202
  183DOPC  H13R22490   7.222   5.020   4.555  0.7989 -1.7437 -1.7738
  183DOPC  H13S22491   7.334   5.137   4.595 -3.4762  1.7823  0.6595
  183DOPC  C21422492   7.405   4.996   4.433  0.1547 -0.8146 -0.2571
  183DOPC  H14R22493   7.474   5.062   4.376 -0.9531  0.4388 -0.1889
  183DOPC  H14S22494   7.360   4.920   4.365  0.8028 -2.2306  0.8257
  183DOPC  C21522495   7.510   4.935   4.519 -0.0673  0.4214  0.2988
  183DOPC  H15R22496   7.513   5.009   4.601  2.2811 -1.0258  1.6404
  183DOPC  H15S22497   7.608   4.933   4.466 -0.5933 -1.6943 -0.7395
  183DOPC  C21622498   7.470   4.793   4.556 -0.0541 -0.0325 -0.3333
  183DOPC  H16R22499   7.545   4.714   4.531 -1.2896 -1.3221 -0.0979
  183DOPC  H16S22500   7.382   4.759   4.498  0.5428 -2.4274  0.0459
  183DOPC  C21722501   7.428   4.783   4.702 -0.2328  0.0236 -0.3818
  183DOPC  H17R22502   7.360   4.863   4.740  0.4234 -0.2518  1.4819
  183DOPC  H17S22503   7.520   4.800   4.761  0.6270 -0.9000 -1.4073
  183DOPC  C21822504   7.347   4.652   4.739  0.1205 -0.0745  0.3049
  183DOPC  H18R22505   7.295   4.621   4.646  0.7991  2.8401 -1.1565
  183DOPC  H18S22506   7.272   4.661   4.821  0.2370  1.0556  0.3059
  183DOPC  H18T22507   7.410   4.561   4.753 -1.3193 -1.3207 -0.9779
  183DOPC   C3322508   7.044   4.591   3.441 -0.2477 -0.3509 -0.2629
  183DOPC   H3X22509   7.109   4.670   3.485  0.7879 -1.0401 -0.5033
  183DOPC   H3Y22510   7.090   4.499   3.484  0.3741  0.1300  0.1287
  183DOPC   C3422511   6.908   4.601   3.513 -0.0367  0.0842 -0.3934
  183DOPC   H4X22512   6.849   4.510   3.491 -0.4840  0.4203 -0.5957
  183DOPC   H4Y22513   6.856   4.690   3.473 -2.1519 -0.8021  0.2620
  183DOPC   C3522514   6.934   4.603   3.665  0.1295 -0.6820 -0.3235
  183DOPC   H5X22515   6.996   4.693   3.686 -0.9989  0.6321 -2.3105
  183DOPC   H5Y22516   6.978   4.505   3.695 -0.5192 -1.3522 -1.4930
  183DOPC   C3622517   6.799   4.625   3.737 -0.7632  0.4011  0.4462
  183DOPC   H6X22518   6.768   4.731   3.727  0.3997  0.7057 -0.0671
  183DOPC   H6Y22519   6.726   4.555   3.691  1.5240 -1.8777  0.0961
  183DOPC   C3722520   6.806   4.600   3.888 -0.0040 -0.3140 -0.4091
  183DOPC   H7X22521   6.830   4.496   3.916  2.4115 -0.2760 -2.0261
  183DOPC   H7Y22522   6.891   4.663   3.922  2.0933 -2.7573 -0.8955
  183DOPC   C3822523   6.689   4.660   3.969 -0.2686 -0.0888  0.6477
  183DOPC   H8X22524   6.683   4.770   3.961 -0.0876 -0.1903 -1.3184
  183DOPC   H8Y22525   6.733   4.640   4.070  2.9355 -1.6511 -0.9048
  183DOPC   C3922526   6.558   4.589   3.934 -0.0529  0.7618 -0.0158
  183DOPC   H9X22527   6.538   4.575   3.826  1.2615 -0.4891 -0.1244
  183DOPC  C31022528   6.461   4.559   4.027  0.9672  0.6663  0.0789
  183DOPC  H10X22529   6.359   4.534   3.994  0.3904  2.3992  0.4410
  183DOPC  C31122530   6.467   4.598   4.175 -0.4561 -0.1286  0.0724
  183DOPC  H11X22531   6.365   4.621   4.211 -0.2036  0.5724  0.3531
  183DOPC  H11Y22532   6.526   4.690   4.193  0.2757 -0.5549 -0.1099
  183DOPC  C31222533   6.548   4.488   4.254  0.0003 -0.0196 -0.4999
  183DOPC  H12X22534   6.653   4.485   4.218 -0.2050 -2.1648 -1.0479
  183DOPC  H12Y22535   6.497   4.394   4.224  1.6445 -1.5406  1.1713
  183DOPC  C31322536   6.531   4.506   4.407 -1.3185  0.8927 -0.9791
  183DOPC  H13X22537   6.550   4.614   4.424  0.2621  0.8074 -2.0159
  183DOPC  H13Y22538   6.436   4.472   4.455 -1.2923  1.2661 -0.6632
  183DOPC  C31422539   6.633   4.428   4.490 -0.6663 -0.3216  0.7268
  183DOPC  H14X22540   6.636   4.320   4.463  0.2164  0.4529 -2.7572
  183DOPC  H14Y22541   6.731   4.466   4.456 -1.0933 -1.7332 -2.3647
  183DOPC  C31522542   6.619   4.457   4.640  0.1183 -0.5238  0.3421
  183DOPC  H15X22543   6.516   4.427   4.670 -0.3514  0.0574 -0.6671
  183DOPC  H15Y22544   6.627   4.565   4.665  1.0454 -0.1580 -1.4388
  183DOPC  C31622545   6.723   4.385   4.731  0.3781  0.3252  0.2569
  183DOPC  H16X22546   6.720   4.278   4.701  2.2566  0.7858 -1.8691
  183DOPC  H16Y22547   6.830   4.410   4.712  0.8752 -1.6058  0.2577
  183DOPC  C31722548   6.691   4.399   4.882 -0.0941 -0.5949  0.1815
  183DOPC  H17X22549   6.583   4.383   4.901  0.0982 -1.6216  0.4699
  183DOPC  H17Y22550   6.746   4.322   4.940  0.6040  0.3095  0.7375
  183DOPC  C31822551   6.712   4.538   4.939  0.1622 -0.1173 -0.5061
  183DOPC  H18X22552   6.720   4.535   5.050 -2.7650 -0.0377 -0.2021
  183DOPC  H18Y22553   6.804   4.580   4.893  1.6034 -1.9373  0.5770
  183DOPC  H18Z22554   6.629   4.609   4.918  0.3894  0.3292  0.0675
  184DOPC     N22555   5.824   0.388   2.852  0.3551 -0.2759  0.3393
  184DOPC   C1222556   5.795   0.352   2.997 -0.3113  0.1617 -0.7296
  184DOPC  H12A22557   5.830   0.252   3.021  1.7904  1.1586  0.7221
  184DOPC  H12B22558   5.688   0.347   3.000 -0.2564 -1.2051 -0.2505
  184DOPC   C1322559   5.958   0.337   2.812 -0.3578  0.7702  0.2850
  184DOPC  H13A22560   6.043   0.386   2.857  2.1272 -1.5052 -1.6773
  184DOPC  H13B22561   5.966   0.233   2.836 -1.0018  0.2842 -1.4554
  184DOPC  H13C22562   5.977   0.328   2.706 -0.1217 -0.2961  0.4098
  184DOPC   C1422563   5.805   0.530   2.835 -0.2549 -0.7550  0.3974
  184DOPC  H14A22564   5.708   0.568   2.865 -0.5261 -0.4814 -0.7806
  184DOPC  H14B22565   5.875   0.591   2.889 -0.4436 -0.0818 -0.1089
  184DOPC  H14C22566   5.825   0.562   2.734 -0.2841  0.0524  0.6437
  184DOPC   C1522567   5.727   0.326   2.762 -0.4748 -0.3821 -0.0518
  184DOPC  H15A22568   5.734   0.373   2.664  1.9376 -0.4994 -0.0082
  184DOPC  H15B22569   5.631   0.344   2.806 -0.2589  0.0548  0.2408
  184DOPC  H15C22570   5.753   0.222   2.749 -0.4890 -0.6327  1.6927
  184DOPC   C1122571   5.842   0.442   3.117 -0.4552 -0.4635 -0.4119
  184DOPC  H11A22572   5.827   0.376   3.204 -0.0695  2.5833  2.1471
  184DOPC  H11B22573   5.953   0.455   3.121 -0.6759  1.3768  2.3471
  184DOPC     P22574   5.870   0.698   3.146  0.6665  0.4205  0.2958
  184DOPC   O1322575   5.788   0.818   3.173 -0.2803 -0.6082  0.2636
  184DOPC   O1422576   5.954   0.698   3.020  0.0745 -0.3775  0.4101
  184DOPC   O1222577   5.775   0.570   3.128  0.5251  0.4195  0.1900
  184DOPC   O1122578   5.959   0.669   3.273  0.1354  0.1107 -0.0885
  184DOPC    C122579   5.900   0.686   3.394 -0.3027 -0.0459 -0.2629
  184DOPC    HA22580   5.789   0.690   3.398 -0.2733  2.8445 -0.6276
  184DOPC    HB22581   5.934   0.787   3.425  1.6065 -0.7858  0.1996
  184DOPC    C222582   5.952   0.571   3.492 -0.1206 -0.3247  0.0113
  184DOPC    HS22583   6.060   0.558   3.465 -0.1674  1.4682 -1.1908
  184DOPC   O2122584   5.870   0.454   3.468  0.3483 -0.3236 -0.9947
  184DOPC   C2122585   5.931   0.340   3.469 -0.3076  0.2068 -0.8258
  184DOPC   O2222586   6.055   0.322   3.465  0.2841  0.0685  0.1389
  184DOPC   C2222587   5.827   0.234   3.504  0.0739 -0.3353  0.0024
  184DOPC   H2R22588   5.738   0.264   3.444  2.7181  0.6043 -3.7961
  184DOPC   H2S22589   5.795   0.243   3.610 -1.2968 -0.9058 -0.3365
  184DOPC    C322590   5.953   0.606   3.637 -0.8423 -0.6498  0.7852
  184DOPC    HX22591   5.848   0.617   3.673 -1.1167  1.7618 -0.5601
  184DOPC    HY22592   5.999   0.706   3.649  0.6342 -1.1626 -0.2916
  184DOPC   O3122593   6.030   0.512   3.716  0.3735  0.4521  0.8544
  184DOPC   C3122594   6.052   0.534   3.838  0.0944 -0.6977 -0.3425
  184DOPC   O3222595   6.027   0.646   3.891  0.6296 -0.1329  0.3583
  184DOPC   C3222596   6.111   0.407   3.901 -0.1937 -0.0008 -0.6237
  184DOPC   H2X22597   6.165   0.344   3.828  0.4653  0.9202 -0.9516
  184DOPC   H2Y22598   6.185   0.445   3.974 -0.5204  1.8245 -1.1855
  184DOPC   C2322599   5.872   0.089   3.472 -0.5805  0.2375 -0.3124
  184DOPC   H3R22600   5.947   0.058   3.548 -0.8467  0.3286 -0.0106
  184DOPC   H3S22601   5.925   0.087   3.375 -0.3366 -2.6040 -0.2152
  184DOPC   C2422602   5.756  -0.010   3.453  0.4627 -0.2474  0.7018
  184DOPC   H4R22603   5.790  -0.115   3.435  1.8258  0.2040  0.5053
  184DOPC   H4S22604   5.695   0.018   3.364  1.0897  0.3620  0.4508
  184DOPC   C2522605   5.643  -0.001   3.562  0.5520  0.2114 -0.6580
  184DOPC   H5R22606   5.567   0.073   3.527 -0.1300 -0.3469 -0.3855
  184DOPC   H5S22607   5.696   0.018   3.657  0.1687  1.8157 -0.7357
  184DOPC   C2622608   5.574  -0.138   3.579  0.2217 -0.3087 -0.6114
  184DOPC   H6R22609   5.647  -0.217   3.609 -0.7903 -0.5612  1.3356
  184DOPC   H6S22610   5.538  -0.156   3.475 -0.9086 -0.5378 -0.1940
  184DOPC   C2722611   5.448  -0.151   3.666  0.8918  0.6761  0.1373
  184DOPC   H7R22612   5.367  -0.083   3.633 -1.3875 -0.5434  2.7461
  184DOPC   H7S22613   5.474  -0.131   3.772 -2.1669 -1.0699  1.3700
  184DOPC   C2822614   5.383  -0.291   3.677 -0.1108 -0.1222  0.4937
  184DOPC   H8R22615   5.312  -0.322   3.598  0.1522 -0.9706  0.5675
  184DOPC   H8S22616   5.314  -0.282   3.763 -0.4202 -2.1924  0.5310
  184DOPC   C2922617   5.481  -0.408   3.692 -0.0448 -0.3864 -0.1644
  184DOPC   H9R22618   5.541  -0.428   3.602  1.2779 -1.5324  0.9334
  184DOPC  C21022619   5.509  -0.473   3.808 -0.2120  0.7057  0.0651
  184DOPC  H10R22620   5.563  -0.568   3.795 -1.3277  0.2292 -1.5473
  184DOPC  C21122621   5.455  -0.442   3.939  0.1277  0.1028  0.1355
  184DOPC  H11R22622   5.428  -0.538   3.989  1.2601  0.3434  1.2671
  184DOPC  H11S22623   5.363  -0.380   3.941  0.2274  0.2389  1.0925
  184DOPC  C21222624   5.570  -0.380   4.020 -0.2471 -0.7580 -0.3849
  184DOPC  H12R22625   5.530  -0.350   4.119 -0.0554 -0.7582 -0.3060
  184DOPC  H12S22626   5.602  -0.284   3.974 -0.8369 -0.3523  0.0369
  184DOPC  C21322627   5.700  -0.473   4.041 -0.2795  0.0652 -0.0039
  184DOPC  H13R22628   5.733  -0.504   3.939  0.9089 -0.2667  0.4656
  184DOPC  H13S22629   5.658  -0.564   4.089  2.4283 -1.3902 -0.1620
  184DOPC  C21422630   5.813  -0.406   4.121 -0.0001  0.4516  0.6795
  184DOPC  H14R22631   5.893  -0.478   4.148  0.5206  0.6573 -0.2732
  184DOPC  H14S22632   5.779  -0.343   4.206 -0.4277 -1.4398  1.9705
  184DOPC  C21522633   5.890  -0.303   4.040  0.0291  0.0425 -0.2845
  184DOPC  H15R22634   5.936  -0.240   4.118 -0.6386 -0.1475  0.2639
  184DOPC  H15S22635   5.817  -0.246   3.979 -0.8810  0.6930  1.3760
  184DOPC  C21622636   6.008  -0.339   3.940  0.2878  0.9761 -0.5116
  184DOPC  H16R22637   5.979  -0.423   3.872  0.6383  0.2212  0.2514
  184DOPC  H16S22638   6.085  -0.378   4.009  0.0606 -1.6285 -1.6103
  184DOPC  C21722639   6.057  -0.227   3.856  0.7088  0.4708  0.5582
  184DOPC  H17R22640   6.136  -0.255   3.784  1.3409  1.0576  1.0112
  184DOPC  H17S22641   6.123  -0.165   3.920 -0.7682 -0.2420  2.9050
  184DOPC  C21822642   5.952  -0.150   3.777  0.2612 -0.7338 -1.0154
  184DOPC  H18R22643   5.874  -0.092   3.831  0.0384 -0.9425 -1.1127
  184DOPC  H18S22644   5.895  -0.220   3.712  1.9765 -3.0464 -0.1537
  184DOPC  H18T22645   6.002  -0.081   3.705 -1.6073  0.5364 -1.1624
  184DOPC   C3322646   5.996   0.332   3.973  0.0037 -0.6470 -0.2691
  184DOPC   H3X22647   5.936   0.400   4.036  1.1505  2.1493 -2.0181
  184DOPC   H3Y22648   6.039   0.260   4.045 -0.8038 -1.9693 -1.0611
  184DOPC   C3422649   5.910   0.249   3.875  0.6281  0.1723  0.3574
  184DOPC   H4X22650   5.971   0.158   3.854  0.5530 -0.5370  2.8595
  184DOPC   H4Y22651   5.899   0.293   3.773  0.8809 -0.5077  0.0286
  184DOPC   C3522652   5.782   0.201   3.941  0.4737 -0.3443  0.0268
  184DOPC   H5X22653   5.714   0.153   3.868  0.8131  0.7471 -1.0433
  184DOPC   H5Y22654   5.730   0.294   3.974  1.8068  0.2201  0.6341
  184DOPC   C3622655   5.799   0.114   4.063  0.1308  0.5289 -0.6310
  184DOPC   H6X22656   5.874   0.034   4.042  1.9175  1.4582  1.7634
  184DOPC   H6Y22657   5.820   0.179   4.150 -3.0962  0.6528  0.1811
  184DOPC   C3722658   5.667   0.035   4.092 -0.3021 -0.7333  0.5431
  184DOPC   H7X22659   5.629  -0.006   3.996 -0.0348  1.4911 -0.5867
  184DOPC   H7Y22660   5.694  -0.044   4.165 -1.4615  0.9111  2.8669
  184DOPC   C3822661   5.558   0.114   4.156  1.0727  0.3517  0.1211
  184DOPC   H8X22662   5.528   0.197   4.088  1.3614 -0.4165 -0.9703
  184DOPC   H8Y22663   5.609   0.148   4.249  3.1533 -2.1286 -0.0156
  184DOPC   C3922664   5.430   0.037   4.181  0.3157  0.3327  0.8695
  184DOPC   H9X22665   5.424  -0.049   4.112 -1.3744  0.3581  0.9250
  184DOPC  C31022666   5.336   0.049   4.275 -0.1542 -0.0316 -0.3661
  184DOPC  H10X22667   5.248  -0.017   4.280 -0.9632  1.0886  0.9867
  184DOPC  C31122668   5.336   0.160   4.378 -0.1868  0.2145  0.8330
  184DOPC  H11X22669   5.252   0.228   4.352 -0.1509 -0.0012  0.1524
  184DOPC  H11Y22670   5.427   0.223   4.369  0.9350 -1.0424  2.6902
  184DOPC  C31222671   5.307   0.116   4.521  0.1879 -0.0673 -0.4264
  184DOPC  H12X22672   5.298   0.210   4.579  0.2698  0.5272 -1.3673
  184DOPC  H12Y22673   5.397   0.073   4.571 -0.0233  1.2978  1.2079
  184DOPC  C31322674   5.189   0.019   4.542  0.5007 -0.0454 -0.4769
  184DOPC  H13X22675   5.208  -0.071   4.480  1.4447 -0.1890  0.0004
  184DOPC  H13Y22676   5.188  -0.015   4.648  1.3430 -0.9891 -0.7558
  184DOPC  C31422677   5.053   0.081   4.510 -0.1637 -0.0613  0.0953
  184DOPC  H14X22678   5.015   0.147   4.591 -2.4217 -0.2679 -0.7132
  184DOPC  H14Y22679   5.049   0.136   4.413  1.4448 -0.3244 -0.1451
  184DOPC  C31522680   4.959  -0.039   4.492 -0.2105  0.3788  0.5785
  184DOPC  H15X22681   4.983  -0.119   4.566  0.2579 -0.8240 -0.8281
  184DOPC  H15Y22682   4.983  -0.080   4.392 -0.8535  0.2747  0.4677
  184DOPC  C31622683   4.807  -0.011   4.482 -0.0325 -0.1936 -0.0000
  184DOPC  H16X22684   4.766   0.032   4.576  2.1703  1.2444  0.3694
  184DOPC  H16Y22685   4.795   0.070   4.407  0.8322  0.8960  0.9985
  184DOPC  C31722686   4.725  -0.125   4.424  0.4276 -0.8835  0.2051
  184DOPC  H17X22687   4.628  -0.078   4.398  1.0577  0.9058  0.9472
  184DOPC  H17Y22688   4.777  -0.155   4.330  1.3017 -0.0299  0.3989
  184DOPC  C31822689   4.699  -0.247   4.505 -0.2493  0.5047 -0.3647
  184DOPC  H18X22690   4.658  -0.330   4.444  2.5663 -1.3557  0.1176
  184DOPC  H18Y22691   4.805  -0.274   4.524  0.2229  2.2212 -0.4005
  184DOPC  H18Z22692   4.652  -0.239   4.606  1.1810  0.3415  0.3306
  185DOPC     N22693   0.209   6.696   2.714  0.0187 -0.4362  0.2735
  185DOPC   C1222694   0.213   6.756   2.858 -0.1669  0.4657  0.2968
  185DOPC  H12A22695   0.117   6.794   2.890  1.2871  5.0961  0.0038
  185DOPC  H12B22696   0.261   6.852   2.839 -0.9721  0.5449 -1.6142
  185DOPC   C1322697   0.117   6.784   2.631 -0.2714  0.7516 -0.2960
  185DOPC  H13A22698   0.025   6.789   2.687  0.4696  0.1018  1.0178
  185DOPC  H13B22699   0.155   6.881   2.606 -0.9472  0.7709 -1.3506
  185DOPC  H13C22700   0.096   6.737   2.536 -0.0213 -0.2238  0.1181
  185DOPC   C1422701   0.158   6.556   2.724  0.5037 -0.1792 -0.0861
  185DOPC  H14A22702   0.113   6.520   2.633 -0.6778 -0.0813  0.4426
  185DOPC  H14B22703   0.246   6.496   2.741  1.4831  0.9639 -0.9478
  185DOPC  H14C22704   0.092   6.535   2.807  1.1674  0.6469  0.6688
  185DOPC   C1522705   0.349   6.698   2.655 -0.4685 -0.0018  0.4162
  185DOPC  H15A22706   0.343   6.635   2.568 -1.3313 -0.0637  0.5104
  185DOPC  H15B22707   0.407   6.647   2.730 -1.6043  0.7415  1.8504
  185DOPC  H15C22708   0.390   6.794   2.626  1.8069 -0.6309  1.3204
  185DOPC   C1122709   0.295   6.700   2.972 -0.6827  1.0540  0.6588
  185DOPC  H11A22710   0.294   6.781   3.047 -0.1150  0.2456  1.5626
  185DOPC  H11B22711   0.252   6.604   3.009 -0.9482  0.5421 -0.9141
  185DOPC     P22712   0.521   6.560   3.004  0.2993  0.0413 -0.0835
  185DOPC   O1322713   0.579   6.621   3.123  0.0706 -0.2277  0.2332
  185DOPC   O1422714   0.610   6.502   2.899 -0.3635  0.6736 -0.0354
  185DOPC   O1222715   0.431   6.671   2.941 -0.1676  0.2222  0.4757
  185DOPC   O1122716   0.422   6.450   3.048  0.0281 -0.0776  0.0613
  185DOPC    C122717   0.488   6.332   3.111  0.0769  0.2085  0.1157
  185DOPC    HA22718   0.560   6.359   3.192  1.1429 -0.2523 -0.6660
  185DOPC    HB22719   0.544   6.279   3.032 -2.2198 -2.1689 -0.0441
  185DOPC    C222720   0.384   6.225   3.176 -0.2588 -0.5673  0.2186
  185DOPC    HS22721   0.316   6.200   3.092  0.4019 -1.9206  0.0652
  185DOPC   O2122722   0.312   6.282   3.286 -0.2714 -0.7056 -0.6153
  185DOPC   C2122723   0.211   6.362   3.242 -0.0309  0.5586 -0.8102
  185DOPC   O2222724   0.166   6.366   3.131  0.3288 -0.4074 -0.5159
  185DOPC   C2222725   0.163   6.445   3.363 -0.0242 -0.0259  1.2636
  185DOPC   H2R22726   0.083   6.517   3.337 -0.1503 -1.0570 -1.6303
  185DOPC   H2S22727   0.249   6.499   3.409  0.4910  0.8218 -0.5945
  185DOPC    C322728   0.455   6.100   3.210 -0.5104  0.3470 -0.1611
  185DOPC    HX22729   0.512   6.119   3.303 -0.2523 -1.2746  0.0482
  185DOPC    HY22730   0.518   6.068   3.125 -1.7633 -0.9721 -0.6249
  185DOPC   O3122731   0.350   5.994   3.228 -0.2290  0.7802 -0.5413
  185DOPC   C3122732   0.313   5.977   3.350 -0.2085 -0.0787 -0.1875
  185DOPC   O3222733   0.371   6.025   3.450 -0.6250 -0.3129  0.2068
  185DOPC   C3222734   0.195   5.883   3.356 -0.9365 -0.0193  0.0991
  185DOPC   H2X22735   0.116   5.931   3.295 -1.4229 -0.1463  0.6162
  185DOPC   H2Y22736   0.221   5.788   3.305  3.4767  0.8450  0.2987
  185DOPC   C2322737   0.112   6.346   3.473 -0.7906 -0.5634  0.3135
  185DOPC   H3R22738   0.202   6.309   3.525  0.7852  1.0324 -1.1614
  185DOPC   H3S22739   0.061   6.254   3.436 -0.5999 -0.2982 -0.6313
  185DOPC   C2422740   0.026   6.414   3.571 -0.0693  0.0962 -0.4340
  185DOPC   H4R22741  -0.057   6.468   3.520  0.6238  1.1350 -0.4782
  185DOPC   H4S22742   0.072   6.495   3.631 -0.8162  0.0206  0.2671
  185DOPC   C2522743  -0.020   6.311   3.671 -0.1691 -0.6373  0.1412
  185DOPC   H5R22744  -0.081   6.233   3.622 -2.1724 -1.6434  3.8992
  185DOPC   H5S22745  -0.090   6.357   3.743 -0.9346  0.2389 -1.1310
  185DOPC   C2622746   0.094   6.231   3.742 -0.8288 -0.1049 -0.5203
  185DOPC   H6R22747   0.174   6.304   3.769 -1.0361 -0.0993  0.0994
  185DOPC   H6S22748   0.136   6.174   3.656 -0.8587  1.1472 -1.3946
  185DOPC   C2722749   0.043   6.137   3.856 -0.5901  0.3232 -0.0731
  185DOPC   H7R22750  -0.048   6.091   3.812 -0.0170 -0.1289 -0.8320
  185DOPC   H7S22751   0.036   6.191   3.952 -2.3300 -1.7764  1.0856
  185DOPC   C2822752   0.140   6.019   3.894  0.0010 -0.0968 -0.1846
  185DOPC   H8R22753   0.160   5.975   3.794 -0.9395  2.1897 -1.4469
  185DOPC   H8S22754   0.094   5.948   3.966  1.0623 -0.7319 -0.0953
  185DOPC   C2922755   0.278   6.063   3.943 -0.4936 -0.2539 -0.2240
  185DOPC   H9R22756   0.344   6.112   3.870  1.9959  0.4713  2.3476
  185DOPC  C21022757   0.327   6.038   4.068  0.0353 -0.0266  0.2101
  185DOPC  H10R22758   0.422   6.081   4.104  0.1849  0.4816 -0.7475
  185DOPC  C21122759   0.259   5.974   4.187  0.6884 -0.2939 -0.7788
  185DOPC  H11R22760   0.303   5.881   4.229 -3.1494 -1.6311  0.6763
  185DOPC  H11S22761   0.155   5.944   4.160  1.0003 -0.4182 -1.8934
  185DOPC  C21222762   0.245   6.066   4.311 -0.6098  0.4392  0.1842
  185DOPC  H12R22763   0.208   6.166   4.282  2.1595  0.7835 -2.6010
  185DOPC  H12S22764   0.345   6.084   4.356 -0.8259  1.0004  0.4487
  185DOPC  C21322765   0.158   6.008   4.428  0.1314 -0.2089 -0.2210
  185DOPC  H13R22766   0.187   5.903   4.450  0.9100  0.3267  1.5312
  185DOPC  H13S22767   0.052   5.990   4.399  0.1384  1.0820 -1.1622
  185DOPC  C21422768   0.158   6.094   4.556 -0.0717 -0.4750  0.0641
  185DOPC  H14R22769   0.263   6.089   4.592 -1.0819 -1.6266  3.2231
  185DOPC  H14S22770   0.095   6.045   4.634 -0.7360 -0.3487 -0.3810
  185DOPC  C21522771   0.089   6.230   4.544  0.0953 -0.0746  0.4796
  185DOPC  H15R22772  -0.020   6.218   4.525 -0.0415 -1.4227  1.9134
  185DOPC  H15S22773   0.129   6.288   4.458 -1.7063  3.0123  1.5721
  185DOPC  C21622774   0.127   6.314   4.669 -0.0781 -0.3202  0.3727
  185DOPC  H16R22775   0.219   6.287   4.727 -0.3864 -0.1768  0.9362
  185DOPC  H16S22776   0.038   6.315   4.735  0.5101 -1.3793  1.2257
  185DOPC  C21722777   0.151   6.464   4.628 -0.0642  0.9219  0.7024
  185DOPC  H17R22778   0.124   6.530   4.713 -0.5253  0.2528  1.0822
  185DOPC  H17S22779   0.081   6.489   4.546 -1.5048 -1.6261  1.0571
  185DOPC  C21822780   0.289   6.501   4.582  0.2405  0.3847  0.1819
  185DOPC  H18R22781   0.338   6.424   4.519  1.3558  0.5940  0.7730
  185DOPC  H18S22782   0.349   6.521   4.673  2.1542 -0.9387 -0.7456
  185DOPC  H18T22783   0.292   6.589   4.514  1.6081  0.9226  0.9158
  185DOPC   C3322784   0.136   5.880   3.499  0.4656  0.1302 -0.5442
  185DOPC   H3X22785   0.085   5.975   3.525 -1.5160 -0.7522 -0.9482
  185DOPC   H3Y22786   0.227   5.875   3.562 -0.0509  0.2663  0.2191
  185DOPC   C3422787   0.036   5.765   3.526 -0.3762 -0.5865  0.1898
  185DOPC   H4X22788  -0.050   5.768   3.456 -0.7844 -0.0447  0.7057
  185DOPC   H4Y22789  -0.012   5.779   3.625  1.5877  3.8668  0.7850
  185DOPC   C3522790   0.101   5.628   3.527  0.2302  0.3380 -0.5769
  185DOPC   H5X22791   0.172   5.616   3.611 -1.3611  1.5792  1.0121
  185DOPC   H5Y22792   0.157   5.613   3.432 -0.5102  0.6643 -1.0736
  185DOPC   C3622793   0.000   5.518   3.561 -0.3429  0.6485 -0.1184
  185DOPC   H6X22794  -0.055   5.541   3.654 -0.5957 -0.8823  0.1417
  185DOPC   H6Y22795  -0.085   5.506   3.490 -0.4260  0.9114 -0.0656
  185DOPC   C3722796   0.069   5.378   3.566  0.5754 -0.4501 -0.0705
  185DOPC   H7X22797   0.126   5.357   3.473  0.1613  0.6907 -0.5962
  185DOPC   H7Y22798   0.159   5.390   3.631 -0.1649  3.5233  0.4538
  185DOPC   C3822799  -0.016   5.252   3.598 -0.5178 -0.2488 -0.6787
  185DOPC   H8X22800  -0.100   5.250   3.524  0.2718 -0.3734 -1.5949
  185DOPC   H8Y22801  -0.067   5.258   3.696  0.2136 -0.1129 -0.3048
  185DOPC   C3922802   0.059   5.121   3.583  0.1397 -0.1850 -0.2103
  185DOPC   H9X22803   0.108   5.098   3.487 -0.3711 -0.7394 -0.3453
  185DOPC  C31022804   0.051   5.023   3.674  0.5616 -0.2317 -0.1712
  185DOPC  H10X22805   0.104   4.929   3.650  0.3668 -0.6736  1.0549
  185DOPC  C31122806  -0.003   5.020   3.813  0.7543 -0.2220  0.0332
  185DOPC  H11X22807  -0.023   4.913   3.833 -0.0403 -0.1359 -0.2540
  185DOPC  H11Y22808  -0.103   5.069   3.813  0.2905 -1.1455  0.3341
  185DOPC  C31222809   0.087   5.081   3.922  0.8685  0.6178 -0.2693
  185DOPC  H12X22810   0.119   5.185   3.903  1.7195  1.1635  3.3332
  185DOPC  H12Y22811   0.180   5.021   3.937 -0.2226 -0.6939  1.7613
  185DOPC  C31322812   0.007   5.100   4.058  0.0383  0.0450 -0.2755
  185DOPC  H13X22813  -0.094   5.146   4.048 -0.4202 -0.1515  2.6629
  185DOPC  H13Y22814  -0.007   4.998   4.099  2.2657 -0.2435 -0.0894
  185DOPC  C31422815   0.086   5.187   4.156  0.2555  0.6919 -0.6617
  185DOPC  H14X22816   0.185   5.143   4.181  0.5605  1.4421 -0.5176
  185DOPC  H14Y22817   0.095   5.281   4.097 -3.5797  0.5790 -1.6991
  185DOPC  C31522818   0.011   5.206   4.292 -0.7356  0.0237  0.0771
  185DOPC  H15X22819   0.005   5.105   4.337  0.3511  0.2513  0.7835
  185DOPC  H15Y22820  -0.091   5.245   4.269  0.1809  1.5727 -1.6397
  185DOPC  C31622821   0.095   5.295   4.384 -0.5246  0.1772  0.6170
  185DOPC  H16X22822   0.197   5.251   4.394  0.5273  1.3534 -3.1642
  185DOPC  H16Y22823   0.104   5.395   4.336 -0.8162  0.4054  1.0300
  185DOPC  C31722824   0.040   5.300   4.526  0.0908  0.1664  0.6633
  185DOPC  H17X22825   0.013   5.198   4.561  1.9332 -0.6699 -0.2675
  185DOPC  H17Y22826   0.122   5.328   4.595  0.9874  2.1461 -1.1031
  185DOPC  C31822827  -0.072   5.399   4.537 -0.6672  0.2148  0.1163
  185DOPC  H18X22828  -0.091   5.443   4.637  2.6647 -0.7470  1.3079
  185DOPC  H18Y22829  -0.033   5.486   4.481 -0.2783 -0.6870 -1.0619
  185DOPC  H18Z22830  -0.161   5.365   4.482  0.1800 -0.0468 -1.1298
  186DOPC     N22831   0.833   1.588   3.418  0.0731 -0.0814  0.2351
  186DOPC   C1222832   0.855   1.741   3.391  0.3927  0.4847  0.4928
  186DOPC  H12A22833   0.953   1.769   3.425  1.0943  0.6537 -1.5584
  186DOPC  H12B22834   0.799   1.803   3.460  1.9641 -0.5632  2.8443
  186DOPC   C1322835   0.691   1.543   3.412 -0.6840  0.7770  0.5361
  186DOPC  H13A22836   0.634   1.591   3.490 -0.8420 -1.5809  1.9557
  186DOPC  H13B22837   0.649   1.562   3.314 -0.0643 -0.3903  0.0202
  186DOPC  H13C22838   0.681   1.436   3.425  1.4882  0.2436 -1.4645
  186DOPC   C1422839   0.868   1.559   3.567 -0.1952 -0.6602  0.2365
  186DOPC  H14A22840   0.969   1.595   3.587  0.2693 -2.1113  0.6048
  186DOPC  H14B22841   0.805   1.606   3.641 -1.3487 -0.3565 -0.9095
  186DOPC  H14C22842   0.866   1.453   3.584  1.5374 -0.7410  0.1572
  186DOPC   C1522843   0.936   1.514   3.325  0.1845  0.5682 -0.9446
  186DOPC  H15A22844   1.024   1.577   3.328 -0.6495  1.7612 -0.9091
  186DOPC  H15B22845   0.894   1.503   3.227 -0.2587 -1.2322 -0.5770
  186DOPC  H15C22846   0.960   1.416   3.364 -1.3147  1.1855  1.8557
  186DOPC   C1122847   0.837   1.790   3.239 -0.6335  0.5175  0.0822
  186DOPC  H11A22848   0.857   1.899   3.231  1.5756  0.3633  2.0906
  186DOPC  H11B22849   0.914   1.752   3.168 -0.4112  1.1341 -0.0064
  186DOPC     P22850   0.583   1.858   3.234 -0.4437  0.3026 -0.7423
  186DOPC   O1322851   0.465   1.807   3.159 -0.1736  0.5334 -0.2131
  186DOPC   O1422852   0.621   2.002   3.209  0.4812 -0.5242  0.6504
  186DOPC   O1222853   0.706   1.769   3.189 -0.2212  0.3672 -0.0789
  186DOPC   O1122854   0.571   1.833   3.390  0.0062 -0.0281  0.0194
  186DOPC    C122855   0.450   1.813   3.467 -0.2761  0.2473  0.6821
  186DOPC    HA22856   0.484   1.784   3.569 -1.9788  0.8659  1.4562
  186DOPC    HB22857   0.387   1.733   3.424  0.3677  0.2064 -0.2160
  186DOPC    C222858   0.359   1.934   3.485  0.0577 -0.2370  0.1258
  186DOPC    HS22859   0.308   1.969   3.393 -4.1967  0.6379  2.5156
  186DOPC   O2122860   0.433   2.043   3.542 -0.6062  0.0638  0.0963
  186DOPC   C2122861   0.372   2.162   3.526  0.4951  0.2666 -0.1995
  186DOPC   O2222862   0.266   2.182   3.479 -0.1429  0.0571 -0.2520
  186DOPC   C2222863   0.459   2.276   3.578 -1.1132 -0.0054 -0.0349
  186DOPC   H2R22864   0.457   2.359   3.504 -1.7590 -0.6855 -0.7967
  186DOPC   H2S22865   0.564   2.241   3.582 -0.5457  1.7175  0.8789
  186DOPC    C322866   0.248   1.907   3.584  0.1837 -0.1470 -0.5054
  186DOPC    HX22867   0.185   1.819   3.558 -0.8601  0.4458 -0.0258
  186DOPC    HY22868   0.169   1.985   3.578 -0.3226 -0.7129 -1.6558
  186DOPC   O3122869   0.298   1.874   3.718  0.3660 -0.3732 -0.1019
  186DOPC   C3122870   0.289   1.969   3.815  0.1265  0.2089  0.3357
  186DOPC   O3222871   0.220   2.067   3.823  0.3489  0.0640  0.3498
  186DOPC   C3222872   0.374   1.916   3.930  0.6115  0.6556  0.3842
  186DOPC   H2X22873   0.310   1.846   3.987 -0.9320  0.6600 -1.2846
  186DOPC   H2Y22874   0.462   1.868   3.882  0.6765  2.7699 -1.8080
  186DOPC   C2322875   0.437   2.330   3.725  0.0889  0.0106  0.2989
  186DOPC   H3R22876   0.457   2.255   3.805 -0.3591  0.3632  0.7494
  186DOPC   H3S22877   0.329   2.356   3.733 -0.1305 -0.7356 -0.0925
  186DOPC   C2422878   0.522   2.454   3.750 -0.1340 -0.1368  0.2845
  186DOPC   H4R22879   0.472   2.502   3.837 -2.1470  0.4367 -1.1102
  186DOPC   H4S22880   0.515   2.526   3.666  2.0440  1.3860  1.3110
  186DOPC   C2522881   0.674   2.428   3.769  0.2012 -1.2131 -0.0708
  186DOPC   H5R22882   0.713   2.523   3.810  2.1872 -1.2571 -1.7208
  186DOPC   H5S22883   0.723   2.428   3.670  1.2647 -0.0225  0.4381
  186DOPC   C2622884   0.716   2.308   3.850  0.0301  0.0930  0.1077
  186DOPC   H6R22885   0.666   2.221   3.802  0.2043  1.1107 -2.0377
  186DOPC   H6S22886   0.670   2.308   3.951  1.8131  0.8776  0.9639
  186DOPC   C2722887   0.856   2.263   3.880  0.8818 -0.1246  0.3092
  186DOPC   H7R22888   0.906   2.232   3.786 -0.8345 -1.2742 -0.2855
  186DOPC   H7S22889   0.859   2.178   3.952  1.5062  0.6216  1.1801
  186DOPC   C2822890   0.944   2.375   3.944  0.3759 -0.1933 -0.4243
  186DOPC   H8R22891   0.899   2.391   4.044 -0.9098  0.9248 -1.1464
  186DOPC   H8S22892   0.943   2.470   3.886 -0.7828 -0.7091 -1.2669
  186DOPC   C2922893   1.088   2.336   3.958  0.7019 -0.5193 -0.2659
  186DOPC   H9R22894   1.136   2.337   3.859 -1.3500  0.8060 -1.2937
  186DOPC  C21022895   1.154   2.295   4.072 -0.3747 -0.1538 -0.0532
  186DOPC  H10R22896   1.263   2.292   4.063 -0.4645 -1.1004 -1.0467
  186DOPC  C21122897   1.111   2.290   4.218  0.5548  0.4098  0.1504
  186DOPC  H11R22898   1.159   2.207   4.273  1.5404  0.9741  0.1770
  186DOPC  H11S22899   1.000   2.287   4.217  0.5197  1.2297 -0.9680
  186DOPC  C21222900   1.143   2.426   4.282  0.0768 -0.1707  0.3308
  186DOPC  H12R22901   1.086   2.503   4.225  0.6029 -0.7243 -0.9872
  186DOPC  H12S22902   1.250   2.446   4.256  0.4307 -1.9081  0.3403
  186DOPC  C21322903   1.109   2.430   4.430  0.6264  0.0200 -0.3643
  186DOPC  H13R22904   1.156   2.350   4.492  0.5485  0.8765  0.8521
  186DOPC  H13S22905   1.001   2.424   4.455  0.7873 -1.6170  0.0671
  186DOPC  C21422906   1.153   2.570   4.487  0.4569 -0.0709  0.0968
  186DOPC  H14R22907   1.119   2.648   4.416  1.0000  0.1263  0.0516
  186DOPC  H14S22908   1.263   2.577   4.481  0.4844  0.4655  1.0849
  186DOPC  C21522909   1.116   2.597   4.634  0.1201  0.0900  0.8213
  186DOPC  H15R22910   1.005   2.598   4.640  0.1385  0.2329  1.1726
  186DOPC  H15S22911   1.159   2.694   4.666  0.7375  0.4585 -1.0154
  186DOPC  C21622912   1.175   2.492   4.732  0.4684 -0.8052 -0.1046
  186DOPC  H16R22913   1.278   2.466   4.699  1.3305  0.1272  1.6706
  186DOPC  H16S22914   1.115   2.399   4.728  0.9021 -1.0906 -0.0111
  186DOPC  C21722915   1.181   2.531   4.890  0.7169 -0.0045  0.3401
  186DOPC  H17R22916   1.257   2.610   4.908  1.1253 -0.5627  1.1470
  186DOPC  H17S22917   1.207   2.441   4.950  0.8492 -0.7330 -0.7833
  186DOPC  C21822918   1.047   2.593   4.925 -0.7157  0.4297  0.4716
  186DOPC  H18R22919   1.039   2.689   4.869  3.0615  1.5182  1.4707
  186DOPC  H18S22920   1.051   2.607   5.035  0.1820  2.4311  0.2276
  186DOPC  H18T22921   0.959   2.536   4.890 -1.0858  0.5643  1.1505
  186DOPC   C3322922   0.430   2.041   4.015  0.3192 -0.3786 -0.6914
  186DOPC   H3X22923   0.349   2.115   4.028 -0.3275 -0.6201 -2.8487
  186DOPC   H3Y22924   0.509   2.097   3.960  0.8564 -1.3154 -0.9165
  186DOPC   C3422925   0.483   2.002   4.150 -0.0475  0.3088 -0.7503
  186DOPC   H4X22926   0.396   1.958   4.203 -0.4245  0.2526 -1.4022
  186DOPC   H4Y22927   0.503   2.088   4.217 -2.0621  0.0777  0.2192
  186DOPC   C3522928   0.601   1.901   4.151  0.8871 -0.3478  0.3687
  186DOPC   H5X22929   0.582   1.828   4.070  0.7505  1.4203 -1.2674
  186DOPC   H5Y22930   0.604   1.839   4.243  1.8535 -1.6121 -0.4800
  186DOPC   C3622931   0.735   1.973   4.126 -0.4367  1.0076 -0.4455
  186DOPC   H6X22932   0.802   1.886   4.109  0.0504  0.5427  3.1047
  186DOPC   H6Y22933   0.721   2.005   4.020 -3.8400 -0.3686 -0.5549
  186DOPC   C3722934   0.790   2.070   4.220 -0.4950  0.3773 -0.5044
  186DOPC   H7X22935   0.891   2.101   4.187 -0.1268 -1.5279 -1.2869
  186DOPC   H7Y22936   0.731   2.165   4.221 -3.2575 -1.1678 -1.9607
  186DOPC   C3822937   0.809   2.015   4.365 -0.1142 -0.0275 -0.1674
  186DOPC   H8X22938   0.876   1.927   4.354  1.1021  0.7264  0.8654
  186DOPC   H8Y22939   0.709   1.978   4.394 -0.1545 -1.5114 -1.9974
  186DOPC   C3922940   0.870   2.111   4.466  0.2536 -0.7254  0.0119
  186DOPC   H9X22941   0.975   2.138   4.448 -0.0188 -0.5536 -1.4622
  186DOPC  C31022942   0.813   2.159   4.583 -0.4942 -0.0825  0.5789
  186DOPC  H10X22943   0.881   2.224   4.640 -1.1221 -0.0272  1.2762
  186DOPC  C31122944   0.669   2.150   4.640 -0.0111 -0.1887  0.6679
  186DOPC  H11X22945   0.678   2.142   4.751  1.5934 -3.2876  0.4168
  186DOPC  H11Y22946   0.634   2.051   4.604  1.6992 -0.5998  0.0390
  186DOPC  C31222947   0.574   2.252   4.581  0.1312 -0.1716  0.1759
  186DOPC  H12X22948   0.472   2.239   4.623 -0.8733  0.3158 -1.9549
  186DOPC  H12Y22949   0.569   2.239   4.471  0.3447 -1.5296  0.3135
  186DOPC  C31322950   0.611   2.398   4.598 -0.3456 -0.7816  0.2831
  186DOPC  H13X22951   0.713   2.414   4.557  0.8021 -1.5903  2.6612
  186DOPC  H13Y22952   0.541   2.451   4.530  1.1727 -2.1895 -2.5698
  186DOPC  C31422953   0.615   2.446   4.743 -0.2282  0.0257 -0.1449
  186DOPC  H14X22954   0.510   2.462   4.774 -0.3763 -0.2427 -0.4996
  186DOPC  H14Y22955   0.669   2.373   4.808  3.7223  1.7112 -1.2135
  186DOPC  C31522956   0.684   2.583   4.749 -0.2500 -0.4599 -0.0108
  186DOPC  H15X22957   0.678   2.637   4.652 -1.8882 -0.5192  0.0199
  186DOPC  H15Y22958   0.790   2.560   4.771 -0.4460 -1.1726  0.2509
  186DOPC  C31622959   0.655   2.673   4.877  0.5711  0.0984 -0.1815
  186DOPC  H16X22960   0.546   2.695   4.874  0.5994  0.3333 -4.5000
  186DOPC  H16Y22961   0.677   2.614   4.970  4.6140 -0.3117 -1.2151
  186DOPC  C31722962   0.732   2.801   4.885 -0.8420 -0.4010  1.0440
  186DOPC  H17X22963   0.837   2.784   4.919 -0.1020  2.6369  0.5582
  186DOPC  H17Y22964   0.751   2.858   4.792 -3.3631 -0.7296  0.2701
  186DOPC  C31822965   0.675   2.891   4.988  0.2941 -0.8851 -0.3322
  186DOPC  H18X22966   0.745   2.977   4.997  0.5703 -1.0219 -1.1170
  186DOPC  H18Y22967   0.573   2.925   4.959  1.6445  3.3056 -0.9260
  186DOPC  H18Z22968   0.683   2.844   5.088  2.3205  1.1115  0.5273
  187DOPC     N22969   6.538   0.456   2.712  0.1425 -0.1048 -0.5185
  187DOPC   C1222970   6.440   0.427   2.818 -0.1046  0.4303 -0.1794
  187DOPC  H12A22971   6.402   0.328   2.796  0.8196  0.4051 -1.7761
  187DOPC  H12B22972   6.360   0.499   2.809 -1.1617 -0.7883 -0.8619
  187DOPC   C1322973   6.475   0.455   2.574 -0.0001 -0.3304 -0.4820
  187DOPC  H13A22974   6.549   0.450   2.495  0.8409 -0.7154  0.3051
  187DOPC  H13B22975   6.421   0.361   2.569  0.7265 -0.8097  0.3184
  187DOPC  H13C22976   6.406   0.537   2.561  2.5239  2.3336  1.5877
  187DOPC   C1422977   6.649   0.349   2.707  0.5232 -0.8471  0.4454
  187DOPC  H14A22978   6.725   0.380   2.638 -1.1725 -0.0000 -1.1360
  187DOPC  H14B22979   6.695   0.336   2.804  2.4534  1.0110 -0.1470
  187DOPC  H14C22980   6.615   0.253   2.672 -0.4889  0.2246 -1.6994
  187DOPC   C1522981   6.599   0.593   2.731  0.2159 -0.0161 -0.4019
  187DOPC  H15A22982   6.616   0.617   2.836  2.3335 -2.5624 -0.0601
  187DOPC  H15B22983   6.521   0.663   2.706 -0.4456  0.1864  1.9908
  187DOPC  H15C22984   6.689   0.606   2.673  0.0124  1.7741 -0.3885
  187DOPC   C1122985   6.504   0.427   2.963  0.1182  0.3258  0.2531
  187DOPC  H11A22986   6.417   0.401   3.028 -0.3233 -0.5960 -0.6890
  187DOPC  H11B22987   6.571   0.339   2.971 -0.2103 -0.2265 -2.2116
  187DOPC     P22988   6.507   0.655   3.099  0.2783 -0.1502  0.1190
  187DOPC   O1322989   6.362   0.634   3.093  0.0812  0.0554  1.1729
  187DOPC   O1422990   6.553   0.785   3.050  0.2665  0.3950  0.4248
  187DOPC   O1222991   6.571   0.541   3.020  0.1538  0.0467  0.1372
  187DOPC   O1122992   6.550   0.649   3.249 -0.2657  0.4294 -0.2515
  187DOPC    C122993   6.670   0.589   3.288 -0.8873  0.9486 -0.4600
  187DOPC    HA22994   6.753   0.583   3.214  0.8153 -1.9720  1.4594
  187DOPC    HB22995   6.668   0.480   3.310  2.2802  0.6875 -0.9497
  187DOPC    C222996   6.725   0.658   3.413  0.7070 -0.2302  0.3291
  187DOPC    HS22997   6.824   0.613   3.435  0.5265 -0.2351  1.1725
  187DOPC   O2122998   6.632   0.647   3.527  0.1113 -0.8629  0.1469
  187DOPC   C2122999   6.634   0.531   3.585  0.1888 -0.1045 -0.8105
  187DOPC   O2223000   6.714   0.443   3.555  0.1698 -0.2379 -0.0563
  187DOPC   C2223001   6.548   0.538   3.707 -0.3980  0.1168  0.1490
  187DOPC   H2R23002   6.453   0.488   3.681 -0.4272  0.7861 -1.0845
  187DOPC   H2S23003   6.520   0.643   3.729 -0.4917  0.7816 -2.7599
  187DOPC    C323004   6.762   0.810   3.378  0.0002 -0.5244 -0.0944
  187DOPC    HX23005   6.662   0.856   3.365 -0.4007 -1.1558  0.6361
  187DOPC    HY23006   6.819   0.815   3.283  0.6256 -0.5698  0.2728
  187DOPC   O3123007   6.839   0.873   3.477 -0.3058 -0.3035 -0.6969
  187DOPC   C3123008   6.798   1.000   3.499  0.1370 -0.7125 -0.3182
  187DOPC   O3223009   6.704   1.058   3.448  0.1226  0.2429  0.2576
  187DOPC   C3223010   6.890   1.065   3.610 -0.4638  0.5623 -0.6985
  187DOPC   H2X23011   6.865   1.000   3.696  0.4237  0.1584 -0.7255
  187DOPC   H2Y23012   6.999   1.051   3.594  0.4648  0.4402  4.1784
  187DOPC   C2323013   6.619   0.487   3.836  0.8340  0.0081 -0.3002
  187DOPC   H3R23014   6.696   0.562   3.864 -0.7418  1.0418  1.6142
  187DOPC   H3S23015   6.671   0.393   3.810  0.9749 -0.4127  1.3928
  187DOPC   C2423016   6.514   0.474   3.949 -0.2196 -0.1462  0.0677
  187DOPC   H4R23017   6.462   0.377   3.936 -0.5079 -0.1483  1.1451
  187DOPC   H4S23018   6.433   0.549   3.939  1.2277  1.2730 -2.2278
  187DOPC   C2523019   6.569   0.478   4.088  0.3774  0.1794  0.6389
  187DOPC   H5R23020   6.626   0.570   4.111  1.3187 -0.6176  1.6476
  187DOPC   H5S23021   6.646   0.398   4.095 -1.1507 -1.5087 -0.5960
  187DOPC   C2623022   6.457   0.461   4.193 -0.4551  0.1999 -0.4399
  187DOPC   H6R23023   6.506   0.441   4.291 -1.2891 -0.4184 -0.1394
  187DOPC   H6S23024   6.399   0.369   4.169 -1.9678  0.4587  1.8795
  187DOPC   C2723025   6.351   0.578   4.205 -0.0868 -0.4235  0.3629
  187DOPC   H7R23026   6.314   0.577   4.100 -0.9009 -0.2193  0.6368
  187DOPC   H7S23027   6.391   0.678   4.233 -1.0849 -0.1300  0.7876
  187DOPC   C2823028   6.238   0.534   4.296  0.6515  0.6018 -0.1477
  187DOPC   H8R23029   6.209   0.429   4.279 -0.3541  0.7668  0.4929
  187DOPC   H8S23030   6.143   0.590   4.282  1.4311  1.7260 -1.2276
  187DOPC   C2923031   6.269   0.535   4.440  0.1302 -0.3882 -0.4309
  187DOPC   H9R23032   6.364   0.491   4.471 -0.7934 -1.4778  0.9587
  187DOPC  C21023033   6.191   0.575   4.543  0.7343 -0.1231 -0.3681
  187DOPC  H10R23034   6.221   0.555   4.646 -1.5963 -0.4071  0.3221
  187DOPC  C21123035   6.051   0.632   4.538 -0.2087  0.1178 -0.3358
  187DOPC  H11R23036   5.975   0.559   4.571 -0.8379  0.7723 -0.3231
  187DOPC  H11S23037   6.037   0.659   4.431  0.0832 -1.0997 -0.7065
  187DOPC  C21223038   6.053   0.766   4.613  0.4842  0.2309  0.0812
  187DOPC  H12R23039   6.127   0.833   4.565  1.4944 -3.2097 -3.7107
  187DOPC  H12S23040   6.079   0.746   4.720 -0.8358 -1.0466  0.1855
  187DOPC  C21323041   5.904   0.816   4.615  0.2215  0.0740 -0.0726
  187DOPC  H13R23042   5.835   0.745   4.667 -1.4183  1.8327  0.2525
  187DOPC  H13S23043   5.885   0.840   4.508 -1.1574 -0.9362 -0.0942
  187DOPC  C21423044   5.894   0.947   4.694 -0.4564  0.1624 -0.2002
  187DOPC  H14R23045   5.967   1.024   4.661 -1.0729  0.0378 -1.9756
  187DOPC  H14S23046   5.927   0.922   4.797  0.0151 -1.2028 -0.6615
  187DOPC  C21523047   5.759   1.022   4.691  0.1376 -0.0104  0.3467
  187DOPC  H15R23048   5.781   1.116   4.747  3.2941 -0.6331  0.3772
  187DOPC  H15S23049   5.688   0.953   4.741  0.4522 -2.5001 -2.3543
  187DOPC  C21623050   5.692   1.036   4.557 -0.2837  0.1913  0.6016
  187DOPC  H16R23051   5.587   1.069   4.564 -0.6938 -0.8088 -0.5773
  187DOPC  H16S23052   5.687   0.936   4.510  1.4591 -0.3270  1.4152
  187DOPC  C21723053   5.771   1.127   4.463  0.4814 -1.1873 -0.2245
  187DOPC  H17R23054   5.858   1.066   4.430  0.3494 -2.2627  1.3290
  187DOPC  H17S23055   5.820   1.212   4.515  0.2221 -0.6342 -0.8536
  187DOPC  C21823056   5.680   1.169   4.351 -0.1241 -0.2229  0.6786
  187DOPC  H18R23057   5.733   1.232   4.276 -4.0739  0.2289 -2.0705
  187DOPC  H18S23058   5.593   1.231   4.385  2.2307  3.3293  0.7699
  187DOPC  H18T23059   5.641   1.087   4.286  0.7815  1.8057 -2.6628
  187DOPC   C3323060   6.860   1.213   3.633 -0.0682 -0.0104  0.0802
  187DOPC   H3X23061   6.752   1.227   3.611 -0.0192 -0.0025 -0.1519
  187DOPC   H3Y23062   6.921   1.272   3.561  2.3638 -1.5374  0.8026
  187DOPC   C3423063   6.885   1.264   3.773  0.9420 -0.0767  0.6861
  187DOPC   H4X23064   6.992   1.277   3.797  1.1700 -0.5889 -0.0296
  187DOPC   H4Y23065   6.836   1.196   3.847 -1.6560  1.1758  0.2511
  187DOPC   C3523066   6.828   1.399   3.802 -0.1258 -0.9171 -0.5093
  187DOPC   H5X23067   6.717   1.394   3.795 -0.1669  0.3058 -1.1378
  187DOPC   H5Y23068   6.863   1.468   3.722  0.9712 -0.1948  0.5609
  187DOPC   C3623069   6.861   1.448   3.944  0.1012  0.0617  0.1898
  187DOPC   H6X23070   6.799   1.393   4.019  1.1308 -0.9416  0.3319
  187DOPC   H6Y23071   6.968   1.430   3.964 -0.3180 -0.4410  2.2052
  187DOPC   C3723072   6.826   1.596   3.956  0.7568  0.5911  0.2259
  187DOPC   H7X23073   6.879   1.639   3.868  0.0049 -0.4237 -0.7632
  187DOPC   H7Y23074   6.718   1.603   3.931  0.6824  1.4329  0.7809
  187DOPC   C3823075   6.850   1.669   4.088  0.8806  0.0303  0.3697
  187DOPC   H8X23076   6.788   1.631   4.173 -0.2255  3.5017  1.2898
  187DOPC   H8Y23077   6.798   1.765   4.069 -0.9165 -0.6882  1.3292
  187DOPC   C3923078   6.998   1.695   4.112  0.0109 -0.0156  0.8769
  187DOPC   H9X23079   7.046   1.742   4.026 -1.2382  0.3548  0.3590
  187DOPC  C31023080   7.069   1.679   4.224 -0.3674  0.3332 -0.2824
  187DOPC  H10X23081   7.177   1.698   4.228 -0.1373 -1.0524  0.7348
  187DOPC  C31123082   7.018   1.616   4.349  0.8556 -0.0011 -0.7868
  187DOPC  H11X23083   7.084   1.547   4.406 -0.7698 -1.4186 -0.5398
  187DOPC  H11Y23084   6.927   1.553   4.343  1.1150 -0.8280  2.2159
  187DOPC  C31223085   6.972   1.726   4.448 -0.9901  0.0869  0.5177
  187DOPC  H12X23086   6.922   1.677   4.533  0.1499 -0.4281  0.9174
  187DOPC  H12Y23087   6.891   1.789   4.406  0.3990  0.1889 -2.3154
  187DOPC  C31323088   7.084   1.808   4.503 -0.0098  0.6154 -0.9228
  187DOPC  H13X23089   7.175   1.749   4.526 -0.6426 -0.0589 -0.0907
  187DOPC  H13Y23090   7.104   1.887   4.428  0.5064  0.2529 -1.1734
  187DOPC  C31423091   7.054   1.902   4.622 -0.7805  0.0638  0.3198
  187DOPC  H14X23092   7.154   1.940   4.650  0.3528 -0.0883 -3.0372
  187DOPC  H14Y23093   6.998   1.994   4.595 -1.5970 -0.5504 -0.1495
  187DOPC  C31523094   6.994   1.829   4.751  0.0478 -0.8849 -0.1279
  187DOPC  H15X23095   7.045   1.731   4.768 -0.2264 -0.9323  0.4714
  187DOPC  H15Y23096   6.890   1.797   4.731 -0.6888 -0.0781  2.1129
  187DOPC  C31623097   6.993   1.919   4.866 -0.3313 -0.6892 -0.2233
  187DOPC  H16X23098   7.101   1.940   4.886 -0.5320 -0.4245  0.6247
  187DOPC  H16Y23099   6.935   2.009   4.836  1.4376  1.1600  1.5502
  187DOPC  C31723100   6.921   1.866   4.988  0.1090 -0.5721 -0.7277
  187DOPC  H17X23101   6.829   1.809   4.959 -0.1655  0.3143 -1.6546
  187DOPC  H17Y23102   6.982   1.781   5.025 -0.9189 -1.6480 -1.4233
  187DOPC  C31823103   6.888   1.963   5.107  0.2086 -0.0101 -0.1014
  187DOPC  H18X23104   6.825   1.905   5.178  0.1398  0.6570  0.3997
  187DOPC  H18Y23105   6.976   2.000   5.165 -1.4299  1.2544  1.7361
  187DOPC  H18Z23106   6.839   2.053   5.064 -2.0017 -0.9106  0.4076
  188DOPC     N23107   2.763   1.233   2.955 -0.4434  0.4666 -0.1078
  188DOPC   C1223108   2.802   1.171   3.090 -0.6265 -0.1232  0.1589
  188DOPC  H12A23109   2.814   1.257   3.155  0.2176 -0.3412  0.3058
  188DOPC  H12B23110   2.901   1.128   3.080  0.0731  1.7126 -1.4261
  188DOPC   C1323111   2.757   1.124   2.859 -0.1833 -0.3842  0.1172
  188DOPC  H13A23112   2.855   1.080   2.852 -0.0816 -0.4904  1.8159
  188DOPC  H13B23113   2.695   1.047   2.904 -2.7248  2.2774  1.4888
  188DOPC  H13C23114   2.714   1.150   2.763  0.7569 -2.5503 -0.9718
  188DOPC   C1423115   2.860   1.337   2.905  0.9027  0.3666 -0.2928
  188DOPC  H14A23116   2.886   1.413   2.976 -0.1167 -0.5828  1.1476
  188DOPC  H14B23117   2.957   1.291   2.895  0.0124 -1.2628 -2.3622
  188DOPC  H14C23118   2.819   1.389   2.819 -2.0765 -0.7220  0.3406
  188DOPC   C1523119   2.630   1.301   2.968 -0.5866  0.5451  0.2027
  188DOPC  H15A23120   2.600   1.343   2.873 -0.9346 -0.8988 -0.3603
  188DOPC  H15B23121   2.630   1.383   3.038  1.7020  0.0846  0.8209
  188DOPC  H15C23122   2.562   1.225   3.005 -0.8167  1.9518  2.8989
  188DOPC   C1123123   2.705   1.068   3.155  0.6611  0.4743 -0.6760
  188DOPC  H11A23124   2.744   1.055   3.259  0.6164 -0.0766 -0.7258
  188DOPC  H11B23125   2.608   1.120   3.169  0.0356 -0.5305 -1.2219
  188DOPC     P23126   2.740   0.804   3.115  0.0546  0.2857 -0.1004
  188DOPC   O1323127   2.876   0.793   3.061  0.1965  0.4590 -0.1113
  188DOPC   O1423128   2.640   0.698   3.076  0.2026 -0.2923 -0.2557
  188DOPC   O1223129   2.685   0.953   3.086  0.1542 -0.0297 -0.2854
  188DOPC   O1123130   2.745   0.802   3.267 -0.3243 -0.5225 -0.5648
  188DOPC    C123131   2.850   0.740   3.333 -0.4693  0.2225  0.3703
  188DOPC    HA23132   2.947   0.791   3.317 -0.3422  0.2969  1.3167
  188DOPC    HB23133   2.860   0.635   3.298 -0.4177  0.1626  0.5649
  188DOPC    C223134   2.817   0.746   3.483  0.6754 -0.7061 -0.6916
  188DOPC    HS23135   2.907   0.717   3.541 -0.2677 -0.7189  0.8112
  188DOPC   O2123136   2.700   0.666   3.526  0.5924  0.1572 -0.5063
  188DOPC   C2123137   2.726   0.532   3.516 -0.2942 -0.2552  0.6169
  188DOPC   O2223138   2.846   0.495   3.513  0.5905  0.2550 -0.2209
  188DOPC   C2223139   2.604   0.437   3.522 -0.1709 -0.2234  0.7001
  188DOPC   H2R23140   2.570   0.433   3.416 -0.5080  2.8685  0.5957
  188DOPC   H2S23141   2.523   0.490   3.577  0.0661  1.7590 -0.7613
  188DOPC    C323142   2.788   0.895   3.516  0.5694 -0.7050  0.4482
  188DOPC    HX23143   2.705   0.941   3.460  0.8435 -0.0730  0.5593
  188DOPC    HY23144   2.875   0.957   3.485 -1.0283  1.4117  0.0119
  188DOPC   O3123145   2.768   0.922   3.664 -0.2659  0.2051  0.6579
  188DOPC   C3123146   2.646   0.923   3.702  0.7068  1.1524 -0.6664
  188DOPC   O3223147   2.540   0.902   3.637  0.1595 -0.1971 -0.2689
  188DOPC   C3223148   2.638   0.976   3.853 -0.1749 -0.0686  0.3119
  188DOPC   H2X23149   2.695   0.913   3.925 -0.0264 -0.0587  0.2035
  188DOPC   H2Y23150   2.681   1.077   3.864 -1.1773  0.1361  3.0739
  188DOPC   C2323151   2.632   0.298   3.575  0.2296 -0.0538  0.5233
  188DOPC   H3R23152   2.666   0.302   3.680  2.4387 -1.5245 -0.0533
  188DOPC   H3S23153   2.713   0.247   3.518  0.0614  0.0544  0.1838
  188DOPC   C2423154   2.502   0.213   3.573  0.1227  0.7894 -0.4016
  188DOPC   H4R23155   2.466   0.210   3.467 -0.1335  0.0781 -0.3015
  188DOPC   H4S23156   2.430   0.256   3.645  1.1694  0.9028  0.5944
  188DOPC   C2523157   2.514   0.062   3.615  0.2599 -0.8554 -0.2596
  188DOPC   H5R23158   2.601   0.015   3.565  0.9903  0.5007 -0.3213
  188DOPC   H5S23159   2.413   0.018   3.599 -0.2721  0.2337 -0.0586
  188DOPC   C2623160   2.526   0.051   3.771  0.4150 -0.3670 -0.1889
  188DOPC   H6R23161   2.620   0.106   3.796 -1.9933  3.2598  1.8121
  188DOPC   H6S23162   2.543  -0.055   3.799 -1.1429 -0.0053  2.4375
  188DOPC   C2723163   2.406   0.096   3.856 -0.8063 -0.0024  0.4205
  188DOPC   H7R23164   2.318   0.037   3.825  0.6197 -1.5375 -0.8926
  188DOPC   H7S23165   2.401   0.207   3.859  1.8095  0.1681  0.6720
  188DOPC   C2823166   2.446   0.063   4.003 -0.0611  0.5796  0.1454
  188DOPC   H8R23167   2.550   0.102   4.011 -0.3747  1.7716 -1.1385
  188DOPC   H8S23168   2.461  -0.047   4.011  0.0515  0.4633 -1.4522
  188DOPC   C2923169   2.356   0.115   4.106  0.1499  0.2114  0.0626
  188DOPC   H9R23170   2.327   0.219   4.083 -0.3014  0.0997  0.1310
  188DOPC  C21023171   2.302   0.054   4.210  0.2215  0.2823  0.1588
  188DOPC  H10R23172   2.224   0.105   4.267  0.3823  0.5008  0.1868
  188DOPC  C21123173   2.333  -0.080   4.272 -0.1044  0.5362  0.3428
  188DOPC  H11R23174   2.434  -0.091   4.317 -0.4532  2.0278  1.6000
  188DOPC  H11S23175   2.334  -0.150   4.186  0.6016  2.0540 -0.9395
  188DOPC  C21223176   2.230  -0.117   4.385  0.1376 -0.3875  1.0885
  188DOPC  H12R23177   2.130  -0.087   4.346  0.1673 -0.9998  0.5412
  188DOPC  H12S23178   2.247  -0.045   4.468 -0.9275  0.7473  0.3668
  188DOPC  C21323179   2.227  -0.265   4.417  0.0892 -0.0751 -0.4438
  188DOPC  H13R23180   2.205  -0.306   4.316  1.6909 -0.1696 -0.7800
  188DOPC  H13S23181   2.138  -0.274   4.483  0.8535 -0.3468  0.5701
  188DOPC  C21423182   2.362  -0.328   4.471  0.0027 -0.5096  0.4915
  188DOPC  H14R23183   2.395  -0.260   4.551 -0.5965  0.4285 -0.0389
  188DOPC  H14S23184   2.432  -0.311   4.387 -1.2275 -0.8890 -0.6594
  188DOPC  C21523185   2.335  -0.465   4.525  0.2784 -0.4644 -0.3916
  188DOPC  H15R23186   2.424  -0.532   4.531 -0.0183 -0.7314  2.4127
  188DOPC  H15S23187   2.263  -0.527   4.468  1.6062 -2.2756 -0.1812
  188DOPC  C21623188   2.272  -0.469   4.675  0.1762 -0.2659 -0.2435
  188DOPC  H16R23189   2.247  -0.363   4.698 -0.7187 -0.5317  0.0558
  188DOPC  H16S23190   2.348  -0.509   4.746 -0.0054 -0.0518  0.0729
  188DOPC  C21723191   2.139  -0.545   4.691  0.3453  0.0904 -0.0629
  188DOPC  H17R23192   2.149  -0.655   4.682 -1.3523 -0.0280 -0.8471
  188DOPC  H17S23193   2.071  -0.504   4.612  0.7315  0.2090 -0.3380
  188DOPC  C21823194   2.057  -0.509   4.819  0.2143 -0.3287 -0.2128
  188DOPC  H18R23195   2.107  -0.554   4.907 -1.2120 -0.7681  0.4062
  188DOPC  H18S23196   1.957  -0.557   4.816  0.0083  0.1198 -1.7963
  188DOPC  H18T23197   2.051  -0.402   4.848  1.3372 -0.3661  0.1943
  188DOPC   C3323198   2.491   0.968   3.907  0.0351  0.0252 -0.2120
  188DOPC   H3X23199   2.471   0.861   3.929 -0.3547  0.0092 -0.6304
  188DOPC   H3Y23200   2.425   1.003   3.824 -1.0439  1.1265  1.0514
  188DOPC   C3423201   2.467   1.051   4.034 -1.1098  1.4517 -0.2049
  188DOPC   H4X23202   2.357   1.045   4.046 -1.0846 -1.6968 -0.6886
  188DOPC   H4Y23203   2.494   1.158   4.019 -1.4432  1.4224 -1.0863
  188DOPC   C3523204   2.532   1.006   4.161  0.2561 -0.3192 -0.0300
  188DOPC   H5X23205   2.492   1.067   4.245  1.1003 -0.4240  0.4519
  188DOPC   H5Y23206   2.637   1.032   4.138  0.4880 -2.3435 -1.5677
  188DOPC   C3623207   2.507   0.870   4.213 -0.0188  0.1229 -0.5628
  188DOPC   H6X23208   2.544   0.808   4.128 -0.6233  1.0262 -1.5180
  188DOPC   H6Y23209   2.574   0.840   4.297 -1.9304  1.3992  1.5227
  188DOPC   C3723210   2.366   0.833   4.258  0.4406 -0.4870 -0.3606
  188DOPC   H7X23211   2.331   0.904   4.336  2.3062  1.6708 -1.3831
  188DOPC   H7Y23212   2.291   0.849   4.177 -1.2913 -0.7242  1.1266
  188DOPC   C3823213   2.363   0.690   4.315  0.2621  0.3922  0.0947
  188DOPC   H8X23214   2.436   0.688   4.399  0.1767 -1.4077  0.1694
  188DOPC   H8Y23215   2.403   0.615   4.243 -0.4177  0.6333 -0.5395
  188DOPC   C3923216   2.230   0.629   4.366 -0.6772  0.4916 -0.3812
  188DOPC   H9X23217   2.177   0.587   4.279 -0.1112 -0.8076 -0.1348
  188DOPC  C31023218   2.186   0.599   4.492 -0.1205  0.2163 -0.3587
  188DOPC  H10X23219   2.102   0.530   4.510  0.1598 -0.1361 -0.3949
  188DOPC  C31123220   2.263   0.626   4.617  0.6361  0.0508  0.0725
  188DOPC  H11X23221   2.200   0.627   4.708  0.3134  1.5951 -0.1468
  188DOPC  H11Y23222   2.319   0.722   4.612 -0.2120  0.7916  3.0944
  188DOPC  C31223223   2.362   0.514   4.622 -0.1273  0.2870  0.7901
  188DOPC  H12X23224   2.421   0.504   4.528 -1.4119 -0.1426 -0.0086
  188DOPC  H12Y23225   2.316   0.417   4.652  0.0557  0.4754  1.6956
  188DOPC  C31323226   2.453   0.561   4.731 -0.0780 -0.2238 -1.1287
  188DOPC  H13X23227   2.510   0.646   4.689  1.0079 -0.6625 -0.5859
  188DOPC  H13Y23228   2.405   0.584   4.829 -1.2001 -1.4825 -1.3497
  188DOPC  C31423229   2.561   0.464   4.754  0.5217  0.8600 -0.4484
  188DOPC  H14X23230   2.528   0.368   4.800 -0.1226  0.4328 -1.7492
  188DOPC  H14Y23231   2.604   0.426   4.659 -0.9617 -2.3182 -0.0038
  188DOPC  C31523232   2.673   0.534   4.842  0.3676 -0.5747  0.7344
  188DOPC  H15X23233   2.628   0.559   4.940 -1.2239  2.5845 -0.6705
  188DOPC  H15Y23234   2.696   0.637   4.808 -1.2150 -0.0297  1.2694
  188DOPC  C31623235   2.800   0.449   4.857 -0.2886 -0.0769  0.3780
  188DOPC  H16X23236   2.793   0.349   4.905  0.3938  0.7201  2.2426
  188DOPC  H16Y23237   2.851   0.436   4.759 -0.2859  3.1594 -0.1785
  188DOPC  C31723238   2.898   0.533   4.936  0.1955 -0.0561 -0.2516
  188DOPC  H17X23239   2.896   0.630   4.883 -2.0477  0.3036  0.3816
  188DOPC  H17Y23240   2.864   0.543   5.041  0.8786  1.2635 -0.1385
  188DOPC  C31823241   3.036   0.476   4.937  0.3247  0.0049  1.0388
  188DOPC  H18X23242   3.049   0.372   4.974 -1.5512 -0.1298  1.3914
  188DOPC  H18Y23243   3.075   0.471   4.833 -1.5584 -1.1594  0.3296
  188DOPC  H18Z23244   3.104   0.543   4.993 -1.7193  2.6280  0.5933
  189DOPC     N23245   5.414   7.442   2.668  0.0692 -0.3847 -0.0675
  189DOPC   C1223246   5.416   7.552   2.775  0.1721  0.5178  0.7346
  189DOPC  H12A23247   5.442   7.645   2.728 -0.5971 -0.3916 -1.6714
  189DOPC  H12B23248   5.499   7.529   2.841 -1.2304 -2.8131  1.5753
  189DOPC   C1323249   5.552   7.420   2.602 -0.9757  0.0900 -0.6453
  189DOPC  H13A23250   5.533   7.358   2.516 -1.2105  0.3388 -0.7743
  189DOPC  H13B23251   5.589   7.515   2.565 -0.2920  1.1423  2.4210
  189DOPC  H13C23252   5.622   7.370   2.667  0.9561 -0.0172 -2.6857
  189DOPC   C1423253   5.320   7.482   2.558 -0.2132  0.5860 -0.0083
  189DOPC  H14A23254   5.363   7.546   2.482 -0.7217 -0.2953 -1.0873
  189DOPC  H14B23255   5.292   7.393   2.503  2.2768  0.4426 -1.1619
  189DOPC  H14C23256   5.234   7.532   2.600 -0.1815 -0.9836  2.0337
  189DOPC   C1523257   5.354   7.311   2.722 -0.1619 -0.5891  0.1698
  189DOPC  H15A23258   5.262   7.330   2.775 -0.8405  0.1763 -1.2365
  189DOPC  H15B23259   5.429   7.270   2.789 -0.5833  1.4921  2.0382
  189DOPC  H15C23260   5.325   7.247   2.641  0.1504 -0.1842 -0.2671
  189DOPC   C1123261   5.299   7.578   2.871  0.5734 -0.5552 -0.5165
  189DOPC  H11A23262   5.292   7.492   2.940  1.0025  1.0341  1.5925
  189DOPC  H11B23263   5.323   7.661   2.940  0.2926 -1.1724  0.3302
  189DOPC     P23264   5.041   7.555   2.847 -0.3211  0.1426  0.0702
  189DOPC   O1323265   5.058   7.406   2.852  0.0899 -0.1243  0.0212
  189DOPC   O1423266   4.935   7.608   2.765  0.1750 -0.2308  0.2147
  189DOPC   O1223267   5.183   7.619   2.798  0.0142  0.0835  0.3615
  189DOPC   O1123268   5.025   7.608   2.992 -0.3182  0.2521 -0.6955
  189DOPC    C123269   5.031   7.750   3.010 -0.7745  0.1254 -0.8272
  189DOPC    HA23270   4.966   7.804   2.938 -1.1066 -1.0588 -1.4350
  189DOPC    HB23271   5.137   7.781   3.002 -0.6298 -0.5533 -1.6360
  189DOPC    C223272   4.985   7.786   3.152  0.1036 -0.7796  0.4134
  189DOPC    HS23273   5.001   7.895   3.167 -0.8103 -0.5931  0.1235
  189DOPC   O2123274   5.051   7.713   3.259 -0.1453 -0.6627 -0.2211
  189DOPC   C2123275   5.180   7.739   3.278 -0.1190 -0.8054  0.0086
  189DOPC   O2223276   5.243   7.820   3.219 -0.3356  0.3997  0.6291
  189DOPC   C2223277   5.233   7.673   3.402 -0.2651 -0.0824 -0.0044
  189DOPC   H2R23278   5.327   7.723   3.435 -0.5918  1.0450 -0.7539
  189DOPC   H2S23279   5.268   7.570   3.379 -1.7884 -0.3370 -1.3554
  189DOPC    C323280   4.828   7.766   3.164 -0.5989 -0.2610 -0.5217
  189DOPC    HX23281   4.795   7.660   3.162  0.5315 -0.6144 -1.3679
  189DOPC    HY23282   4.783   7.811   3.073  0.0269  0.2717 -0.5706
  189DOPC   O3123283   4.777   7.827   3.285  0.2466  0.6946 -0.2529
  189DOPC   C3123284   4.772   7.741   3.394 -0.3335 -1.2048 -0.1418
  189DOPC   O3223285   4.793   7.621   3.392 -0.2949 -0.2451 -0.5041
  189DOPC   C3223286   4.740   7.832   3.515  0.8165  0.0070  0.6164
  189DOPC   H2X23287   4.820   7.908   3.512  1.4684 -0.6295 -3.2336
  189DOPC   H2Y23288   4.639   7.875   3.494  1.1762  1.6980  2.1587
  189DOPC   C2323289   5.130   7.654   3.514  0.3128  0.5165 -0.0995
  189DOPC   H3R23290   5.165   7.574   3.582 -0.8602  0.0423 -0.0236
  189DOPC   H3S23291   5.034   7.613   3.477  0.1090 -0.7998  1.7877
  189DOPC   C2423292   5.094   7.778   3.600  0.5877  0.6383 -0.3856
  189DOPC   H4R23293   5.000   7.775   3.658  0.6015  3.1229 -0.1190
  189DOPC   H4S23294   5.094   7.870   3.537  2.7842  0.7277 -0.3549
  189DOPC   C2523295   5.200   7.814   3.711 -0.1924  0.6510  0.3669
  189DOPC   H5R23296   5.300   7.835   3.668  0.6480 -2.4146  0.5507
  189DOPC   H5S23297   5.216   7.728   3.779  1.0028  1.2455  0.8584
  189DOPC   C2623298   5.158   7.932   3.804 -0.0489  0.0851  0.1892
  189DOPC   H6R23299   5.048   7.938   3.818 -0.3332  0.9871 -1.9814
  189DOPC   H6S23300   5.184   8.028   3.754 -0.2649  0.0875  0.0811
  189DOPC   C2723301   5.247   7.930   3.938  0.0599 -0.4640  0.3079
  189DOPC   H7R23302   5.352   7.965   3.926  0.4561 -2.1778 -1.7189
  189DOPC   H7S23303   5.266   7.823   3.960  0.4034 -0.3331  0.6514
  189DOPC   C2823304   5.178   7.992   4.059  0.2521  0.1745 -0.8366
  189DOPC   H8R23305   5.243   7.968   4.146 -1.3206 -0.6268  0.1671
  189DOPC   H8S23306   5.090   7.929   4.083  0.5302 -0.0823 -0.4713
  189DOPC   C2923307   5.150   8.143   4.036 -0.5768  0.5343  0.0903
  189DOPC   H9R23308   5.126   8.161   3.930 -0.3111  0.4153  0.0080
  189DOPC  C21023309   5.173   8.250   4.116 -0.1312 -0.6409 -0.4845
  189DOPC  H10R23310   5.156   8.347   4.068  0.6351  0.3672  1.2252
  189DOPC  C21123311   5.220   8.255   4.253  0.5089  0.0258 -0.0089
  189DOPC  H11R23312   5.331   8.248   4.246  0.5660  1.3201 -0.5348
  189DOPC  H11S23313   5.195   8.166   4.316 -2.5859  1.4527  0.9561
  189DOPC  C21223314   5.172   8.393   4.305 -0.3510 -0.1685 -0.2186
  189DOPC  H12R23315   5.062   8.402   4.302 -0.4356  0.1102  2.0640
  189DOPC  H12S23316   5.200   8.480   4.241 -3.2371  0.9835 -0.0396
  189DOPC  C21323317   5.230   8.418   4.449 -0.7737 -0.6002 -0.7137
  189DOPC  H13R23318   5.340   8.425   4.432 -0.7415  0.7758 -0.0828
  189DOPC  H13S23319   5.205   8.329   4.510 -0.1771 -0.5477 -0.3840
  189DOPC  C21423320   5.172   8.542   4.511  0.1508 -0.2586 -0.5274
  189DOPC  H14R23321   5.074   8.520   4.560  0.7018  2.1235  1.8728
  189DOPC  H14S23322   5.141   8.606   4.425  0.3563  1.3270  0.5509
  189DOPC  C21523323   5.266   8.600   4.621 -0.3579  0.0548  0.0465
  189DOPC  H15R23324   5.232   8.698   4.660  0.9463  0.5046  0.1065
  189DOPC  H15S23325   5.367   8.624   4.579  0.3118 -0.3774  1.3724
  189DOPC  C21623326   5.286   8.501   4.740 -0.7473  0.5583 -0.0836
  189DOPC  H16R23327   5.352   8.415   4.717 -1.7682 -0.2189 -0.1816
  189DOPC  H16S23328   5.187   8.455   4.760 -1.1128  0.6515 -1.5353
  189DOPC  C21723329   5.318   8.579   4.868 -0.4147  0.2686 -0.1229
  189DOPC  H17R23330   5.231   8.645   4.887  0.2090  1.1824 -0.3777
  189DOPC  H17S23331   5.402   8.651   4.857 -0.7708  0.4512 -2.0128
  189DOPC  C21823332   5.340   8.482   4.988 -0.4092  0.7505  0.1195
  189DOPC  H18R23333   5.426   8.415   4.963  0.4082  0.8285  2.4944
  189DOPC  H18S23334   5.250   8.419   5.000  0.2790 -0.3456 -0.3081
  189DOPC  H18T23335   5.355   8.538   5.083 -0.4491  0.8380  0.0740
  189DOPC   C3323336   4.733   7.752   3.646  0.1388  0.1377 -0.3220
  189DOPC   H3X23337   4.805   7.668   3.649 -0.5339 -0.4541 -0.4161
  189DOPC   H3Y23338   4.635   7.698   3.649  0.4282 -0.3473  0.7696
  189DOPC   C3423339   4.742   7.835   3.771 -0.8256 -0.5030  0.8199
  189DOPC   H4X23340   4.656   7.905   3.772  0.0731  0.6566  0.1411
  189DOPC   H4Y23341   4.823   7.910   3.760 -2.0091  0.8357  0.9567
  189DOPC   C3523342   4.755   7.758   3.899  0.4508  0.0303  0.7147
  189DOPC   H5X23343   4.665   7.693   3.901 -0.5834  1.3571 -0.1715
  189DOPC   H5Y23344   4.750   7.823   3.989  0.1261 -1.3616  1.7219
  189DOPC   C3623345   4.882   7.672   3.908 -0.2347 -0.2203  0.6638
  189DOPC   H6X23346   4.882   7.591   3.832 -1.3415  1.0634 -0.7736
  189DOPC   H6Y23347   4.956   7.753   3.892 -0.3748 -0.4756 -1.5992
  189DOPC   C3723348   4.901   7.606   4.043  0.3515  0.2174 -0.2200
  189DOPC   H7X23349   4.887   7.679   4.125  2.3324 -0.9377  1.2315
  189DOPC   H7Y23350   4.818   7.535   4.065 -0.4843  1.1601 -0.2916
  189DOPC   C3823351   5.039   7.546   4.057 -0.5276 -0.0609  0.6745
  189DOPC   H8X23352   5.043   7.491   4.153 -0.4392  1.6479  1.6898
  189DOPC   H8Y23353   5.110   7.632   4.059  1.1980 -1.3832 -0.9349
  189DOPC   C3923354   5.074   7.444   3.951  0.2612 -0.4157 -0.2193
  189DOPC   H9X23355   5.138   7.479   3.868  0.6621 -0.0977  0.2228
  189DOPC  C31023356   5.027   7.322   3.933  0.6189  0.5028 -0.3377
  189DOPC  H10X23357   5.078   7.262   3.857 -1.3632 -0.5665 -0.8994
  189DOPC  C31123358   4.924   7.249   4.014  0.1703 -0.4527 -0.3823
  189DOPC  H11X23359   4.842   7.195   3.962 -0.1742 -1.5783  1.2226
  189DOPC  H11Y23360   4.884   7.312   4.097  0.8519  0.8168 -0.9858
  189DOPC  C31223361   4.990   7.132   4.091  0.3806 -0.1185 -0.9767
  189DOPC  H12X23362   5.067   7.168   4.163  0.7449 -1.9495 -0.3930
  189DOPC  H12Y23363   5.051   7.075   4.017 -0.8650 -1.9288 -0.6697
  189DOPC  C31323364   4.890   7.043   4.168  0.2870  0.4285 -0.2895
  189DOPC  H13X23365   4.796   7.038   4.109 -0.3220 -2.3891  0.7795
  189DOPC  H13Y23366   4.925   6.938   4.174 -0.3380  0.2216 -0.1520
  189DOPC  C31423367   4.868   7.093   4.310  0.7491 -0.7261  0.4221
  189DOPC  H14X23368   4.966   7.095   4.362  0.9203  0.4223  0.0599
  189DOPC  H14Y23369   4.827   7.196   4.301 -1.1755 -1.1731  2.8963
  189DOPC  C31523370   4.769   6.999   4.382  0.5288  0.5877 -0.0373
  189DOPC  H15X23371   4.807   6.895   4.385 -0.0062  0.4066  1.2205
  189DOPC  H15Y23372   4.668   6.996   4.336  0.8604  1.6821 -0.8783
  189DOPC  C31623373   4.759   7.046   4.530 -0.1876 -0.5763 -0.5353
  189DOPC  H16X23374   4.861   7.044   4.572 -0.6154  0.9074  0.6644
  189DOPC  H16Y23375   4.725   7.151   4.520  1.8892  0.2664  0.7405
  189DOPC  C31723376   4.658   6.954   4.605  0.5529  0.3643  0.2172
  189DOPC  H17X23377   4.555   6.963   4.565  0.7200  1.8152  0.0561
  189DOPC  H17Y23378   4.685   6.847   4.590 -0.9507 -0.3843  2.4083
  189DOPC  C31823379   4.653   6.990   4.756 -0.0004 -0.0949  0.8142
  189DOPC  H18X23380   4.588   6.922   4.815  1.1059 -0.9591  1.0827
  189DOPC  H18Y23381   4.756   6.987   4.798  0.4825  0.7501 -0.2510
  189DOPC  H18Z23382   4.625   7.096   4.774 -2.1195 -0.4357 -0.1762
  190DOPC     N23383   4.202   0.129   2.662  0.0930  0.5684  0.4269
  190DOPC   C1223384   4.122   0.052   2.766 -0.2736  0.0037  0.3530
  190DOPC  H12A23385   4.191  -0.005   2.827  1.1112  0.9626 -0.2537
  190DOPC  H12B23386   4.056  -0.011   2.709  1.4094  0.2358 -2.0251
  190DOPC   C1323387   4.280   0.034   2.577  0.2134 -0.1856 -0.0970
  190DOPC  H13A23388   4.316   0.080   2.486  1.5048  1.6075  1.2548
  190DOPC  H13B23389   4.376   0.010   2.620 -0.2797 -1.5268  0.3060
  190DOPC  H13C23390   4.231  -0.062   2.573 -0.5972  0.1712  0.9289
  190DOPC   C1423391   4.303   0.216   2.717  0.4454 -0.0942 -0.3161
  190DOPC  H14A23392   4.250   0.286   2.780 -0.0563 -1.5463  0.9337
  190DOPC  H14B23393   4.377   0.164   2.776 -0.6801  0.2821  1.5241
  190DOPC  H14C23394   4.349   0.286   2.648  1.5952 -0.2648  0.2559
  190DOPC   C1523395   4.103   0.204   2.576 -0.0637 -1.0761 -0.0278
  190DOPC  H15A23396   4.154   0.281   2.520  2.4538 -2.6865 -0.1185
  190DOPC  H15B23397   4.029   0.258   2.633 -2.7886 -3.1313 -1.3873
  190DOPC  H15C23398   4.039   0.133   2.526 -1.2669 -0.5071  0.6845
  190DOPC   C1123399   4.039   0.134   2.867 -0.4240 -0.0968 -0.2237
  190DOPC  H11A23400   3.995   0.071   2.948  0.4220  1.1676  1.2594
  190DOPC  H11B23401   4.116   0.178   2.933  1.1914 -3.4589  0.3850
  190DOPC     P23402   3.954   0.376   2.843  0.0350  0.0401 -0.1122
  190DOPC   O1323403   3.831   0.441   2.788  0.0674 -0.2152  0.1559
  190DOPC   O1423404   4.087   0.424   2.812  0.5154 -0.1719 -0.0167
  190DOPC   O1223405   3.944   0.224   2.813 -0.0859  0.1899 -0.0603
  190DOPC   O1123406   3.953   0.369   3.009 -0.3066 -0.3695  0.6127
  190DOPC    C123407   3.826   0.364   3.076  0.0220  0.4037 -0.1125
  190DOPC    HA23408   3.773   0.271   3.048 -0.4249  0.4171  0.6755
  190DOPC    HB23409   3.762   0.449   3.043 -2.6163 -2.2824 -2.5478
  190DOPC    C223410   3.851   0.380   3.231  0.8753  0.4191 -0.7300
  190DOPC    HS23411   3.752   0.402   3.277  1.5972  1.5661  0.3135
  190DOPC   O2123412   3.939   0.483   3.268 -0.2014 -0.3205 -0.0046
  190DOPC   C2123413   3.923   0.545   3.377  1.2011  0.1433  0.9844
  190DOPC   O2223414   3.831   0.534   3.456 -0.2714 -0.3984 -0.2506
  190DOPC   C2223415   4.034   0.645   3.402 -0.2301  0.3573 -0.0199
  190DOPC   H2R23416   4.063   0.689   3.305 -1.7219 -1.5131 -1.3879
  190DOPC   H2S23417   4.108   0.569   3.434 -2.5263 -1.6634  0.8767
  190DOPC    C323418   3.917   0.250   3.293  0.1177  0.3868 -0.3968
  190DOPC    HX23419   4.021   0.245   3.256  1.0646  0.1924  2.0527
  190DOPC    HY23420   3.860   0.158   3.269 -1.0255  1.2248 -1.0001
  190DOPC   O3123421   3.936   0.268   3.437  0.3016  0.0937  0.2370
  190DOPC   C3123422   3.825   0.246   3.510 -0.5510 -0.0282 -0.1365
  190DOPC   O3223423   3.719   0.206   3.468 -0.5188  0.4045  0.1794
  190DOPC   C3223424   3.859   0.259   3.655 -0.3648  0.6024  0.2855
  190DOPC   H2X23425   3.927   0.174   3.676 -1.0671  0.0746  0.4553
  190DOPC   H2Y23426   3.915   0.353   3.676  0.7695  0.0746 -0.2857
  190DOPC   C2323427   3.999   0.746   3.512  0.2484 -0.5547 -1.0268
  190DOPC   H3R23428   3.897   0.786   3.492  0.8460  1.0838 -0.9530
  190DOPC   H3S23429   4.070   0.831   3.503  0.3961 -0.3969  1.1350
  190DOPC   C2423430   4.021   0.696   3.660  0.0786 -0.6490  0.2980
  190DOPC   H4R23431   3.958   0.607   3.678 -0.2691 -0.4837 -0.0936
  190DOPC   H4S23432   3.984   0.778   3.725  1.5767  0.3158 -0.0245
  190DOPC   C2523433   4.164   0.679   3.690 -0.4454 -0.1223 -0.8058
  190DOPC   H5R23434   4.202   0.773   3.644  0.1789 -0.6894 -1.4606
  190DOPC   H5S23435   4.220   0.596   3.642  2.6426  1.0660  0.4728
  190DOPC   C2623436   4.204   0.691   3.840 -0.4788  0.0337  0.4705
  190DOPC   H6R23437   4.203   0.799   3.864  0.4977 -0.3714  2.5261
  190DOPC   H6S23438   4.305   0.652   3.865  0.5036  2.3740  0.3803
  190DOPC   C2723439   4.114   0.632   3.941  0.1098 -0.3293  0.6814
  190DOPC   H7R23440   4.100   0.524   3.920 -1.4623  0.0343 -0.3505
  190DOPC   H7S23441   4.019   0.686   3.922 -0.0769 -1.1255 -0.7836
  190DOPC   C2823442   4.158   0.667   4.085 -0.3092  0.1029 -0.5373
  190DOPC   H8R23443   4.194   0.771   4.099 -2.1246  1.1637 -3.1396
  190DOPC   H8S23444   4.247   0.604   4.110  0.0144  1.0016  0.6777
  190DOPC   C2923445   4.042   0.649   4.180  0.4173  0.4633 -0.0236
  190DOPC   H9R23446   3.991   0.552   4.179  1.2061 -0.5073  6.8897
  190DOPC  C21023447   3.999   0.731   4.273  0.0081  0.5539 -0.5124
  190DOPC  H10R23448   3.913   0.702   4.336  0.0167  3.2458  0.8725
  190DOPC  C21123449   4.058   0.860   4.323  0.4481  0.6582 -0.4955
  190DOPC  H11R23450   3.982   0.912   4.386  2.1261  0.5902  1.7400
  190DOPC  H11S23451   4.077   0.925   4.235 -0.0220  0.3139 -0.8517
  190DOPC  C21223452   4.175   0.841   4.424 -0.6695  0.2422 -0.0551
  190DOPC  H12R23453   4.217   0.939   4.458 -0.4606 -0.1921  0.9637
  190DOPC  H12S23454   4.256   0.776   4.384 -1.1148  0.4467 -1.3490
  190DOPC  C21323455   4.155   0.766   4.561 -0.0466 -0.5894  0.3239
  190DOPC  H13R23456   4.089   0.678   4.550  0.8096 -1.4989  2.1146
  190DOPC  H13S23457   4.102   0.829   4.637 -0.2593 -1.3342  0.8001
  190DOPC  C21423458   4.286   0.723   4.625 -0.5308 -0.3612 -0.6757
  190DOPC  H14R23459   4.341   0.815   4.654 -1.5528  0.2357 -0.5683
  190DOPC  H14S23460   4.351   0.678   4.546 -3.0935 -0.1775 -3.0542
  190DOPC  C21523461   4.283   0.644   4.756 -0.1515 -0.1469 -0.4280
  190DOPC  H15R23462   4.227   0.548   4.749 -1.1423  0.1970  1.9677
  190DOPC  H15S23463   4.228   0.697   4.837  1.2216 -1.0016  1.1390
  190DOPC  C21623464   4.419   0.591   4.813  0.2461 -0.0535 -0.2903
  190DOPC  H16R23465   4.488   0.562   4.731 -0.4384 -3.1672  0.0823
  190DOPC  H16S23466   4.398   0.491   4.858  0.9404 -0.3378 -0.5782
  190DOPC  C21723467   4.481   0.675   4.924  0.1720 -0.4860 -0.2953
  190DOPC  H17R23468   4.415   0.692   5.012 -0.3274 -2.4798 -0.2276
  190DOPC  H17S23469   4.486   0.782   4.896 -4.1745 -0.0071  0.0697
  190DOPC  C21823470   4.619   0.632   4.974  0.0389 -0.9579  0.4779
  190DOPC  H18R23471   4.660   0.714   5.036 -0.1662 -0.8727  0.4997
  190DOPC  H18S23472   4.689   0.619   4.888  0.1835  0.6531  0.3319
  190DOPC  H18T23473   4.610   0.538   5.032 -2.2128 -1.1581 -0.0992
  190DOPC   C3323474   3.732   0.256   3.744 -0.1412 -0.4935 -0.3807
  190DOPC   H3X23475   3.691   0.153   3.750  0.0503 -0.6686 -1.7118
  190DOPC   H3Y23476   3.649   0.320   3.706 -0.6147 -1.1022 -0.3862
  190DOPC   C3423477   3.761   0.315   3.887 -0.4630 -0.8091  0.5679
  190DOPC   H4X23478   3.803   0.417   3.875  1.0983 -1.5905 -1.0044
  190DOPC   H4Y23479   3.820   0.231   3.929 -1.3406 -2.1061 -0.6843
  190DOPC   C3523480   3.628   0.333   3.967 -0.2280  0.1216  0.7217
  190DOPC   H5X23481   3.566   0.244   3.943 -0.3036  0.5519 -0.8272
  190DOPC   H5Y23482   3.559   0.406   3.919 -2.4868 -2.2672  0.1210
  190DOPC   C3623483   3.653   0.360   4.117  0.2102  0.0524  0.5519
  190DOPC   H6X23484   3.702   0.272   4.162  0.7430 -0.0063 -0.1280
  190DOPC   H6Y23485   3.722   0.447   4.116  0.4204 -0.0228 -2.6631
  190DOPC   C3723486   3.519   0.396   4.182  0.3288 -0.0876  0.2907
  190DOPC   H7X23487   3.544   0.451   4.276  1.6771  0.1227 -0.1703
  190DOPC   H7Y23488   3.464   0.466   4.117 -2.4919 -1.2787  1.2601
  190DOPC   C3823489   3.435   0.273   4.214  0.0217 -0.1781 -0.7279
  190DOPC   H8X23490   3.483   0.209   4.292 -0.9906  1.7268  1.5935
  190DOPC   H8Y23491   3.413   0.218   4.120  1.5510  2.0048 -2.4491
  190DOPC   C3923492   3.300   0.318   4.268 -0.0169  0.2630  0.4488
  190DOPC   H9X23493   3.239   0.366   4.189 -1.3463 -1.6118  0.2806
  190DOPC  C31023494   3.238   0.294   4.384 -0.7776 -0.5542 -0.6341
  190DOPC  H10X23495   3.138   0.338   4.394  0.8668  3.0636  2.3544
  190DOPC  C31123496   3.295   0.213   4.501 -0.4213  0.2436 -0.0447
  190DOPC  H11X23497   3.375   0.264   4.558  1.0803 -0.4339 -1.4843
  190DOPC  H11Y23498   3.351   0.121   4.475 -0.3607  0.2848 -0.0585
  190DOPC  C31223499   3.189   0.167   4.605 -0.5691  0.3848 -0.2001
  190DOPC  H12X23500   3.110   0.113   4.550 -0.5256 -0.2210  0.3230
  190DOPC  H12Y23501   3.150   0.253   4.663 -1.6760 -0.0815 -0.2354
  190DOPC  C31323502   3.246   0.070   4.702  0.2011 -0.3521  0.3284
  190DOPC  H13X23503   3.269  -0.024   4.647 -0.1256 -0.5141  0.4632
  190DOPC  H13Y23504   3.349   0.091   4.736  1.4764 -2.8494 -1.6402
  190DOPC  C31423505   3.154   0.030   4.822  0.5397  0.7183  0.1621
  190DOPC  H14X23506   3.118   0.116   4.881  1.3232  0.8902  0.4060
  190DOPC  H14Y23507   3.066  -0.030   4.791  1.0248 -0.5303  1.0980
  190DOPC  C31523508   3.240  -0.048   4.919  0.3343  0.0949  0.5270
  190DOPC  H15X23509   3.326   0.010   4.960 -0.7168  1.0135  1.4933
  190DOPC  H15Y23510   3.285  -0.129   4.858 -1.1299  0.3796 -1.0228
  190DOPC  C31623511   3.165  -0.114   5.036 -0.4045  0.4359  0.7349
  190DOPC  H16X23512   3.133  -0.042   5.115 -0.5562  0.6270  0.5007
  190DOPC  H16Y23513   3.070  -0.156   4.995  0.4207 -1.7865  0.9733
  190DOPC  C31723514   3.249  -0.231   5.096  0.3200 -0.2572 -1.2801
  190DOPC  H17X23515   3.191  -0.293   5.167 -0.4440  0.7615 -0.9945
  190DOPC  H17Y23516   3.279  -0.294   5.010 -1.8838 -0.3308 -2.0722
  190DOPC  C31823517   3.379  -0.189   5.165  0.4564  0.0063  0.9494
  190DOPC  H18X23518   3.353  -0.140   5.262  0.9049 -0.1457  1.1515
  190DOPC  H18Y23519   3.426  -0.281   5.204 -1.5729 -0.2299  3.0808
  190DOPC  H18Z23520   3.444  -0.121   5.105  1.6802 -1.5566  0.4449
  191DOPC     N23521   6.265   6.782   2.883  0.4551  0.2964  0.0639
  191DOPC   C1223522   6.226   6.915   2.940 -0.2345 -0.0107 -0.2608
  191DOPC  H12A23523   6.120   6.923   2.956 -0.3394  0.6506 -1.2223
  191DOPC  H12B23524   6.244   6.990   2.865  0.2346  1.3588  1.1652
  191DOPC   C1323525   6.405   6.774   2.843  0.0359 -0.5406 -0.5157
  191DOPC  H13A23526   6.460   6.791   2.934 -0.7978  0.3361 -0.1544
  191DOPC  H13B23527   6.436   6.683   2.795 -2.6533 -2.1150  0.5269
  191DOPC  H13C23528   6.440   6.849   2.774  1.2442 -0.8285 -0.2306
  191DOPC   C1423529   6.179   6.757   2.764 -0.0703 -0.1543 -0.3978
  191DOPC  H14A23530   6.075   6.755   2.792  0.0145  0.7807  0.0306
  191DOPC  H14B23531   6.194   6.825   2.681 -1.7803  0.2576 -0.4023
  191DOPC  H14C23532   6.204   6.662   2.720  2.6839 -0.5516  1.7653
  191DOPC   C1523533   6.248   6.669   2.986  0.2555 -0.4597 -0.3228
  191DOPC  H15A23534   6.290   6.695   3.082 -2.0800 -0.1552  0.6717
  191DOPC  H15B23535   6.285   6.574   2.950 -0.4356 -1.7955  2.2871
  191DOPC  H15C23536   6.142   6.656   3.004  0.0558  0.6819 -0.6029
  191DOPC   C1123537   6.296   6.963   3.074 -0.6773 -0.3351 -0.2197
  191DOPC  H11A23538   6.258   7.064   3.098 -1.0386 -0.3144 -0.8347
  191DOPC  H11B23539   6.254   6.910   3.162 -0.4998 -0.9188 -0.4737
  191DOPC     P23540   6.522   7.093   3.116 -0.0580 -0.3303 -0.1285
  191DOPC   O1323541   6.483   7.203   3.031  0.0001 -0.1833  0.6429
  191DOPC   O1423542   6.666   7.064   3.131  0.3439 -0.1755 -0.3535
  191DOPC   O1223543   6.440   6.961   3.079 -0.2570  0.0016  0.5159
  191DOPC   O1123544   6.467   7.131   3.254 -0.0789  0.1907 -0.2844
  191DOPC    C123545   6.491   7.258   3.314  0.4154 -0.7428  0.1754
  191DOPC    HA23546   6.398   7.314   3.339  0.2841 -1.4181  1.2905
  191DOPC    HB23547   6.556   7.324   3.252 -1.6103  1.5409  0.2940
  191DOPC    C223548   6.572   7.248   3.446 -0.4465 -0.1114 -0.4512
  191DOPC    HS23549   6.660   7.186   3.418 -0.9010  0.1529 -2.6142
  191DOPC   O2123550   6.482   7.187   3.543 -0.2133  0.3491 -0.0867
  191DOPC   C2123551   6.542   7.113   3.637 -0.7387  0.0263 -0.1669
  191DOPC   O2223552   6.664   7.085   3.636  0.6770  0.6471 -0.5189
  191DOPC   C2223553   6.439   7.048   3.736 -0.0284  0.4320  0.3451
  191DOPC   H2R23554   6.485   6.955   3.775  0.7097  0.2684 -0.8747
  191DOPC   H2S23555   6.355   7.017   3.670  1.4167 -2.2440 -0.3646
  191DOPC    C323556   6.633   7.380   3.494  0.0780  0.4259 -1.1113
  191DOPC    HX23557   6.703   7.431   3.425 -0.0099  2.6179  0.3177
  191DOPC    HY23558   6.700   7.351   3.578 -1.2865  2.8852  0.9487
  191DOPC   O3123559   6.528   7.474   3.540  0.2891  0.3151  0.2033
  191DOPC   C3123560   6.530   7.500   3.673  0.0857  0.6929 -0.0860
  191DOPC   O3223561   6.631   7.470   3.744 -0.0868 -0.1359  0.1258
  191DOPC   C3223562   6.415   7.598   3.713  0.0706 -0.4209  0.6834
  191DOPC   H2X23563   6.445   7.689   3.657 -1.0672  0.2545  1.1440
  191DOPC   H2Y23564   6.310   7.573   3.686  0.0248 -0.8784  1.2552
  191DOPC   C2323565   6.394   7.140   3.849 -0.1735 -0.0498 -0.6172
  191DOPC   H3R23566   6.291   7.107   3.874  0.5605  0.2171  3.3783
  191DOPC   H3S23567   6.390   7.244   3.811 -0.6289  0.3574  0.4942
  191DOPC   C2423568   6.489   7.135   3.965  0.1266 -0.6980 -0.3252
  191DOPC   H4R23569   6.594   7.147   3.930 -0.7115  2.3021 -2.1481
  191DOPC   H4S23570   6.466   7.039   4.016 -0.1426 -0.8963 -0.8089
  191DOPC   C2523571   6.459   7.240   4.068 -0.3834 -0.3835 -0.6774
  191DOPC   H5R23572   6.351   7.236   4.093 -0.2083 -1.3630 -0.0122
  191DOPC   H5S23573   6.491   7.336   4.021 -1.5024  1.3585  1.8435
  191DOPC   C2623574   6.528   7.217   4.203 -0.1997  0.3747  0.2845
  191DOPC   H6R23575   6.636   7.190   4.193 -0.3643 -0.8322  1.4153
  191DOPC   H6S23576   6.495   7.122   4.251  0.7607 -0.1574 -0.0726
  191DOPC   C2723577   6.510   7.341   4.294 -0.5327 -0.3510 -0.2107
  191DOPC   H7R23578   6.424   7.337   4.365 -0.0865  0.5955  0.4015
  191DOPC   H7S23579   6.500   7.425   4.222  0.6697  0.0730  0.1058
  191DOPC   C2823580   6.640   7.368   4.371  0.0401 -0.3065  0.2917
  191DOPC   H8R23581   6.656   7.470   4.412  2.0751 -0.0607 -0.9609
  191DOPC   H8S23582   6.728   7.348   4.305 -0.1076  0.0053 -0.0048
  191DOPC   C2923583   6.659   7.259   4.476 -0.3783  0.0841  0.0291
  191DOPC   H9R23584   6.695   7.164   4.433  1.1512  0.8847 -0.5044
  191DOPC  C21023585   6.655   7.273   4.606 -0.5734 -0.2694 -0.5980
  191DOPC  H10R23586   6.690   7.186   4.664  1.7957  1.5213  0.8415
  191DOPC  C21123587   6.633   7.396   4.693  0.4978  0.1540 -0.5371
  191DOPC  H11R23588   6.526   7.425   4.689  0.4155  0.2737  1.3216
  191DOPC  H11S23589   6.694   7.484   4.661  0.2777  0.1762 -0.8874
  191DOPC  C21223590   6.684   7.379   4.836  0.1400 -0.1018  0.2610
  191DOPC  H12R23591   6.638   7.289   4.882  0.1275 -0.1685  0.1205
  191DOPC  H12S23592   6.648   7.464   4.897  1.9966  1.1754 -0.3161
  191DOPC  C21323593   6.839   7.362   4.846  0.5078 -0.2679 -0.4664
  191DOPC  H13R23594   6.888   7.456   4.814  0.9573 -0.4983 -0.4555
  191DOPC  H13S23595   6.867   7.273   4.786  1.2895 -0.2852 -0.0821
  191DOPC  C21423596   6.891   7.338   4.990  0.2439  0.3923 -0.5025
  191DOPC  H14R23597   6.836   7.257   5.042  1.4124  0.2607  0.5691
  191DOPC  H14S23598   6.867   7.426   5.054  0.2406 -0.1643  0.2755
  191DOPC  C21523599   7.040   7.298   4.997 -0.0612 -0.3017  0.0231
  191DOPC  H15R23600   7.102   7.367   4.937  0.5730 -2.3851 -1.8482
  191DOPC  H15S23601   7.051   7.206   4.936  0.2677 -0.4673  0.3321
  191DOPC  C21623602   7.112   7.297   5.130  0.2545 -1.1955 -0.4483
  191DOPC  H16R23603   7.069   7.226   5.204  3.5118  0.4131  3.3583
  191DOPC  H16S23604   7.093   7.396   5.177  1.3839 -2.8315  3.8301
  191DOPC  C21723605   7.261   7.274   5.107 -0.1954 -0.0066 -0.1430
  191DOPC  H17R23606   7.306   7.338   5.028 -2.2219  0.8563 -0.6614
  191DOPC  H17S23607   7.272   7.171   5.067 -1.0528 -0.1756  0.0538
  191DOPC  C21823608   7.348   7.282   5.230  0.1885 -0.3266 -0.6702
  191DOPC  H18R23609   7.355   7.383   5.276 -0.2773 -1.1104  1.1929
  191DOPC  H18S23610   7.454   7.255   5.210  0.8110  1.7073 -0.3503
  191DOPC  H18T23611   7.305   7.225   5.315 -0.3647  2.1732  0.8403
  191DOPC   C3323612   6.420   7.629   3.862  0.2149  0.1631  0.6127
  191DOPC   H3X23613   6.526   7.639   3.896 -0.1505 -0.3013  1.9334
  191DOPC   H3Y23614   6.388   7.537   3.914  2.2693 -1.2941 -0.5433
  191DOPC   C3423615   6.347   7.762   3.898 -0.6232  0.4310  0.2852
  191DOPC   H4X23616   6.239   7.765   3.871 -0.2459  3.2034 -1.2536
  191DOPC   H4Y23617   6.392   7.840   3.834  2.6388 -1.4417  0.1075
  191DOPC   C3523618   6.352   7.805   4.044  0.2249  0.4433  0.1645
  191DOPC   H5X23619   6.298   7.901   4.059 -0.5166 -0.0349  0.5804
  191DOPC   H5Y23620   6.459   7.826   4.066 -0.0129  1.0711  0.7788
  191DOPC   C3623621   6.287   7.694   4.137  0.8260 -0.3155  0.2217
  191DOPC   H6X23622   6.213   7.639   4.075  0.6209  1.4965 -1.2281
  191DOPC   H6Y23623   6.357   7.615   4.174  0.8938  0.6201  2.1568
  191DOPC   C3723624   6.223   7.768   4.259  0.7357 -0.3887  0.4355
  191DOPC   H7X23625   6.293   7.834   4.315 -0.0605  1.7292 -0.9372
  191DOPC   H7Y23626   6.143   7.832   4.215  1.8469  0.5343 -0.3119
  191DOPC   C3823627   6.153   7.670   4.352  0.0874  0.3397 -0.5241
  191DOPC   H8X23628   6.233   7.606   4.394 -1.0853  0.8067  2.7108
  191DOPC   H8Y23629   6.074   7.612   4.300 -0.9427 -0.8561  2.1692
  191DOPC   C3923630   6.101   7.754   4.465 -1.3528 -0.5726 -0.1955
  191DOPC   H9X23631   6.177   7.793   4.534 -2.6219  2.0187 -0.1150
  191DOPC  C31023632   5.973   7.771   4.498 -0.4652  0.5453 -0.1402
  191DOPC  H10X23633   5.951   7.837   4.583  1.8314 -1.4390  2.1505
  191DOPC  C31123634   5.841   7.727   4.437  0.0521  0.7431 -0.1949
  191DOPC  H11X23635   5.850   7.651   4.357 -1.2555 -0.9873  1.2420
  191DOPC  H11Y23636   5.784   7.813   4.395  1.3972  0.8901 -1.8281
  191DOPC  C31223637   5.763   7.653   4.554 -0.4866  0.4854  0.2668
  191DOPC  H12X23638   5.751   7.709   4.649 -0.5989 -0.6402  0.9301
  191DOPC  H12Y23639   5.826   7.566   4.585 -0.2283  0.6028  0.0752
  191DOPC  C31323640   5.627   7.601   4.512 -0.0274 -0.0700 -0.6248
  191DOPC  H13X23641   5.570   7.585   4.605  0.7517 -1.5831 -0.3809
  191DOPC  H13Y23642   5.568   7.687   4.472 -0.5509  1.5976  3.3206
  191DOPC  C31423643   5.621   7.474   4.430 -0.4629  0.1650 -0.5054
  191DOPC  H14X23644   5.665   7.494   4.330 -1.8622  1.0323 -0.9776
  191DOPC  H14Y23645   5.674   7.396   4.489 -0.3111  1.9843  1.8959
  191DOPC  C31523646   5.479   7.425   4.415  0.5245 -0.4001  0.2473
  191DOPC  H15X23647   5.446   7.413   4.310  0.2196 -0.0182  0.2936
  191DOPC  H15Y23648   5.402   7.490   4.462  0.8757  0.2974 -0.1325
  191DOPC  C31623649   5.455   7.283   4.474 -0.6061  0.1690 -0.6140
  191DOPC  H16X23650   5.525   7.208   4.432 -2.2807 -1.5462 -0.4804
  191DOPC  H16Y23651   5.476   7.287   4.583 -1.9915 -0.4009 -0.3071
  191DOPC  C31723652   5.313   7.228   4.456  1.1747 -0.3394 -0.1126
  191DOPC  H17X23653   5.235   7.294   4.501  0.3752 -2.1236  1.2498
  191DOPC  H17Y23654   5.285   7.220   4.349 -0.7783  2.3625  0.0848
  191DOPC  C31823655   5.282   7.088   4.514 -0.0373  0.5218 -0.3945
  191DOPC  H18X23656   5.304   7.103   4.622  1.0758  0.9537 -0.6661
  191DOPC  H18Y23657   5.174   7.062   4.503 -0.3605  1.6127  0.0940
  191DOPC  H18Z23658   5.346   7.013   4.462 -1.4082 -0.1006 -1.2382
  192DOPC     N23659   7.341   4.401   2.462  0.1057 -0.1899 -0.3669
  192DOPC   C1223660   7.409   4.331   2.580 -0.0275 -0.0962 -0.0411
  192DOPC  H12A23661   7.506   4.306   2.541  0.2650  1.1378 -0.1384
  192DOPC  H12B23662   7.368   4.233   2.600 -0.4982  0.2930  0.9771
  192DOPC   C1323663   7.316   4.298   2.356  0.1351 -0.6178 -0.4168
  192DOPC  H13A23664   7.285   4.344   2.263 -0.5840 -1.2542 -0.5054
  192DOPC  H13B23665   7.405   4.238   2.344  1.2847  1.2067 -1.4803
  192DOPC  H13C23666   7.244   4.223   2.385 -1.2087  0.4756 -0.8551
  192DOPC   C1423667   7.428   4.513   2.407  0.1974  0.3117  0.1793
  192DOPC  H14A23668   7.419   4.604   2.465 -1.0388  1.0103 -1.0471
  192DOPC  H14B23669   7.531   4.488   2.386  0.5441  0.1759  1.9112
  192DOPC  H14C23670   7.386   4.547   2.313 -1.5697  0.2764  0.9107
  192DOPC   C1523671   7.207   4.466   2.489 -0.4042 -0.2496  0.1163
  192DOPC  H15A23672   7.218   4.533   2.573  0.0475 -1.2975  0.9036
  192DOPC  H15B23673   7.133   4.390   2.508 -0.5310 -0.1445  0.0448
  192DOPC  H15C23674   7.176   4.521   2.401  2.9372 -1.1285 -1.7827
  192DOPC   C1123675   7.425   4.399   2.720 -0.8680 -0.1069 -0.1316
  192DOPC  H11A23676   7.325   4.434   2.754 -1.5851 -1.2615 -0.9875
  192DOPC  H11B23677   7.449   4.322   2.797  0.6366  1.4288  1.0088
  192DOPC     P23678   7.527   4.643   2.773 -0.3836  0.2792  0.5361
  192DOPC   O1323679   7.427   4.725   2.705 -0.6374  0.3060  0.4272
  192DOPC   O1423680   7.667   4.695   2.787  0.3417  0.2646 -0.4095
  192DOPC   O1223681   7.522   4.499   2.714  0.1083 -0.0457 -0.5680
  192DOPC   O1123682   7.472   4.607   2.915  0.2296  0.0106 -0.0368
  192DOPC    C123683   7.549   4.543   3.016 -0.3431  0.5121 -0.4538
  192DOPC    HA23684   7.641   4.599   3.040 -2.0444  2.9388  0.8547
  192DOPC    HB23685   7.569   4.440   2.980 -3.0659 -0.8776  1.6015
  192DOPC    C223686   7.469   4.536   3.151  0.4245 -0.5549 -0.0912
  192DOPC    HS23687   7.545   4.497   3.222  2.5878  0.4122 -1.7507
  192DOPC   O2123688   7.355   4.456   3.144 -0.3739  0.1411  0.1567
  192DOPC   C2123689   7.372   4.332   3.122 -0.3078  0.0311 -0.5140
  192DOPC   O2223690   7.474   4.275   3.095  0.4578  0.5080 -0.0141
  192DOPC   C2223691   7.241   4.264   3.137  0.1328 -0.1097  0.1264
  192DOPC   H2R23692   7.198   4.267   3.035 -0.5342 -0.2811  0.3965
  192DOPC   H2S23693   7.164   4.324   3.191 -2.5719 -0.6283 -2.8815
  192DOPC    C323694   7.429   4.676   3.194  0.5344 -0.6550  0.5693
  192DOPC    HX23695   7.343   4.696   3.127  0.2089 -1.7385  0.6541
  192DOPC    HY23696   7.494   4.763   3.169 -1.4075  1.3750  2.2071
  192DOPC   O3123697   7.379   4.691   3.329  0.4302  0.2856 -0.4095
  192DOPC   C3123698   7.485   4.722   3.408 -0.3622  0.0534  0.1158
  192DOPC   O3223699   7.603   4.727   3.371  0.0317 -0.1602  0.4355
  192DOPC   C3223700   7.431   4.775   3.539 -0.1133  0.0635  0.2133
  192DOPC   H2X23701   7.475   4.876   3.556  0.5511 -0.3160  0.8364
  192DOPC   H2Y23702   7.321   4.792   3.535  0.2152  2.1867 -0.8561
  192DOPC   C2323703   7.244   4.120   3.179  0.2970  1.1550 -0.0509
  192DOPC   H3R23704   7.292   4.059   3.100 -1.3985 -0.3227 -0.0201
  192DOPC   H3S23705   7.140   4.080   3.180  0.5314  0.5487 -0.0023
  192DOPC   C2423706   7.293   4.089   3.321 -0.2032 -0.0346  0.3860
  192DOPC   H4R23707   7.401   4.112   3.326 -0.2143 -0.2444  1.7724
  192DOPC   H4S23708   7.283   3.979   3.333  1.1872 -0.6144 -2.6669
  192DOPC   C2523709   7.220   4.162   3.439 -0.1834  0.1145 -0.4505
  192DOPC   H5R23710   7.113   4.138   3.426 -0.2390  0.8845 -1.4961
  192DOPC   H5S23711   7.245   4.269   3.453 -3.6567  0.7103  2.9240
  192DOPC   C2623712   7.275   4.092   3.560  0.0059 -0.4308  0.4012
  192DOPC   H6R23713   7.384   4.111   3.573 -0.1542  0.2202  0.8133
  192DOPC   H6S23714   7.268   3.981   3.563  0.8957 -0.4742  3.1485
  192DOPC   C2723715   7.222   4.145   3.694 -0.6020  0.0596  0.1256
  192DOPC   H7R23716   7.127   4.092   3.716 -0.7483 -0.4410 -1.5557
  192DOPC   H7S23717   7.200   4.253   3.686 -1.3423 -0.1958 -2.0265
  192DOPC   C2823718   7.320   4.130   3.810  0.4522  0.6213 -0.5443
  192DOPC   H8R23719   7.417   4.171   3.777  0.9346 -1.1915 -1.4833
  192DOPC   H8S23720   7.345   4.023   3.827 -0.1600  0.6553  0.6870
  192DOPC   C2923721   7.274   4.202   3.940 -0.4318  0.2981 -0.1529
  192DOPC   H9R23722   7.248   4.306   3.917  0.2945  0.7296  0.9132
  192DOPC  C21023723   7.289   4.163   4.064  0.5522  0.5211  0.3080
  192DOPC  H10R23724   7.244   4.220   4.146 -0.0150  1.3846 -0.5768
  192DOPC  C21123725   7.357   4.036   4.104  0.3692  0.7322 -0.3951
  192DOPC  H11R23726   7.457   4.041   4.055 -0.5927  1.5372 -2.4096
  192DOPC  H11S23727   7.300   3.951   4.060  0.8099  0.5286 -0.5840
  192DOPC  C21223728   7.382   4.011   4.258 -0.1021  0.0361 -0.0532
  192DOPC  H12R23729   7.288   3.991   4.315 -0.2750 -1.0180 -0.6725
  192DOPC  H12S23730   7.417   4.100   4.313  3.0611 -0.3683 -1.2179
  192DOPC  C21323731   7.477   3.899   4.296 -0.5535 -0.0417 -0.0435
  192DOPC  H13R23732   7.569   3.937   4.246 -1.7356  3.3474  0.0868
  192DOPC  H13S23733   7.459   3.798   4.253  0.1199 -0.7494  1.2779
  192DOPC  C21423734   7.487   3.877   4.449 -1.0751 -0.4182  0.1260
  192DOPC  H14R23735   7.413   3.809   4.496 -0.4977 -1.1409 -0.0059
  192DOPC  H14S23736   7.478   3.978   4.496  2.1922 -0.1846  0.5375
  192DOPC  C21523737   7.629   3.848   4.499  1.0822  0.3652 -0.5999
  192DOPC  H15R23738   7.698   3.905   4.432 -0.0627 -1.0208 -3.1195
  192DOPC  H15S23739   7.648   3.739   4.484  0.1950  0.0471  0.4670
  192DOPC  C21623740   7.648   3.893   4.644 -0.7802  0.0740 -0.2821
  192DOPC  H16R23741   7.581   3.981   4.660  1.3048  2.1258 -2.1085
  192DOPC  H16S23742   7.754   3.917   4.664 -1.3926  1.6645  1.3687
  192DOPC  C21723743   7.607   3.783   4.750 -0.1823  0.5570  0.4831
  192DOPC  H17R23744   7.669   3.692   4.732 -0.8819  0.2589 -0.4736
  192DOPC  H17S23745   7.498   3.768   4.736  0.0540 -2.1814  0.9321
  192DOPC  C21823746   7.639   3.826   4.894 -0.0210 -0.2991 -0.0824
  192DOPC  H18R23747   7.567   3.905   4.925  1.2787  1.0455 -0.3873
  192DOPC  H18S23748   7.743   3.865   4.898  0.3944 -1.4679  1.3782
  192DOPC  H18T23749   7.638   3.747   4.972 -0.2991  1.7830  2.1448
  192DOPC   C3323750   7.459   4.680   3.654  0.7876  0.5251 -0.3383
  192DOPC   H3X23751   7.563   4.693   3.690 -0.4998  0.7118  3.8068
  192DOPC   H3Y23752   7.444   4.574   3.622  2.6165  0.3106 -0.5647
  192DOPC   C3423753   7.366   4.707   3.773 -0.7526  0.1211  0.8607
  192DOPC   H4X23754   7.261   4.705   3.738 -0.3263  0.7584 -0.5243
  192DOPC   H4Y23755   7.389   4.810   3.809 -1.3020 -0.1713  2.1102
  192DOPC   C3523756   7.385   4.617   3.891 -0.9474  0.4449  0.0469
  192DOPC   H5X23757   7.493   4.621   3.917 -1.1019  0.1131  0.7632
  192DOPC   H5Y23758   7.359   4.515   3.856 -1.0563  1.1463 -2.0725
  192DOPC   C3623759   7.301   4.657   4.013 -0.7660  0.2441  0.6267
  192DOPC   H6X23760   7.317   4.762   4.044 -0.1094  0.4192 -0.2729
  192DOPC   H6Y23761   7.200   4.613   3.996 -0.9713  0.6259  0.8453
  192DOPC   C3723762   7.343   4.565   4.135 -0.0505 -0.3182 -0.4739
  192DOPC   H7X23763   7.332   4.462   4.096  2.5241 -0.3931 -1.2277
  192DOPC   H7Y23764   7.451   4.568   4.161  0.1871  2.5954 -1.4391
  192DOPC   C3823765   7.263   4.589   4.262  0.5322  1.0222 -0.1937
  192DOPC   H8X23766   7.277   4.698   4.279  2.8682  0.6252  0.8602
  192DOPC   H8Y23767   7.319   4.545   4.348  0.5091  2.0633  0.3698
  192DOPC   C3923768   7.117   4.551   4.258 -0.9961  0.1943  0.1474
  192DOPC   H9X23769   7.098   4.458   4.203 -0.8641  0.7168 -0.8015
  192DOPC  C31023770   7.016   4.623   4.314  1.2202  0.1340  0.2603
  192DOPC  H10X23771   6.918   4.573   4.306  2.5132 -2.2506 -1.9839
  192DOPC  C31123772   7.010   4.741   4.407 -0.1850  0.1933 -0.0753
  192DOPC  H11X23773   6.944   4.818   4.362 -0.0521  0.0540 -0.5189
  192DOPC  H11Y23774   7.111   4.786   4.411  0.8907 -2.1655  1.2484
  192DOPC  C31223775   6.960   4.713   4.545 -0.3986  0.1046 -0.4304
  192DOPC  H12X23776   7.030   4.652   4.607  2.1831  2.7722 -0.5526
  192DOPC  H12Y23777   6.865   4.654   4.541 -0.5594  0.1455  1.4498
  192DOPC  C31323778   6.934   4.845   4.629  0.1755 -0.3040  0.4233
  192DOPC  H13X23779   7.023   4.911   4.630 -0.2354  0.2721 -0.1815
  192DOPC  H13Y23780   6.860   4.909   4.577 -1.0166  0.3171  2.7523
  192DOPC  C31423781   6.911   4.831   4.779  0.5895 -0.0019 -0.6184
  192DOPC  H14X23782   6.820   4.770   4.795  0.4371  0.1107 -1.0517
  192DOPC  H14Y23783   7.001   4.779   4.819  1.7351  1.9706 -0.5291
  192DOPC  C31523784   6.901   4.967   4.858  0.0318 -0.3955  0.1904
  192DOPC  H15X23785   6.916   4.948   4.966 -1.3081 -0.4557  0.3761
  192DOPC  H15Y23786   6.797   5.006   4.850  0.1327  0.7916  3.3310
  192DOPC  C31623787   7.004   5.074   4.828 -0.3337 -0.0903 -0.4152
  192DOPC  H16X23788   7.102   5.025   4.811 -0.5814 -0.2930 -1.3436
  192DOPC  H16Y23789   7.006   5.119   4.726  3.8201 -2.2185 -1.5234
  192DOPC  C31723790   7.020   5.169   4.941 -0.5154 -0.2618  0.4292
  192DOPC  H17X23791   6.928   5.170   5.003 -1.0255  1.1866 -0.2808
  192DOPC  H17Y23792   7.094   5.135   5.016  1.3210  1.3186 -0.5808
  192DOPC  C31823793   7.065   5.312   4.893  0.1750  0.4115  1.1503
  192DOPC  H18X23794   7.013   5.353   4.805  0.0725 -0.1915  0.9273
  192DOPC  H18Y23795   7.075   5.387   4.974  1.4955  2.3711 -0.7268
  192DOPC  H18Z23796   7.166   5.299   4.849 -0.6824  1.4680 -1.2315
  193DOPC     N23797   7.162   2.100   3.427 -0.1891 -0.1744 -0.0868
  193DOPC   C1223798   7.237   2.173   3.535 -0.7059 -0.0720 -0.7935
  193DOPC  H12A23799   7.229   2.117   3.627  0.0007  2.1317  0.6744
  193DOPC  H12B23800   7.183   2.264   3.555  0.1706  0.5716 -1.2840
  193DOPC   C1323801   7.022   2.084   3.467  0.0629  0.0681 -0.3527
  193DOPC  H13A23802   6.967   2.176   3.480  0.0130  0.0893 -0.7020
  193DOPC  H13B23803   6.973   2.029   3.388  0.6516  0.5041 -1.0468
  193DOPC  H13C23804   7.002   2.029   3.557 -0.6820 -0.9757 -1.1291
  193DOPC   C1423805   7.223   1.961   3.418 -0.0194  1.0147 -0.3209
  193DOPC  H14A23806   7.331   1.957   3.418 -0.0002 -0.5737 -2.5140
  193DOPC  H14B23807   7.190   1.897   3.498 -0.4684  1.3047 -0.2726
  193DOPC  H14C23808   7.202   1.914   3.323  0.6314  0.8754 -0.4030
  193DOPC   C1523809   7.173   2.159   3.288 -0.0044  0.2135  0.2540
  193DOPC  H15A23810   7.099   2.235   3.272  0.3260  0.1244 -2.0823
  193DOPC  H15B23811   7.156   2.088   3.208 -0.0971 -2.0694  2.1633
  193DOPC  H15C23812   7.269   2.209   3.284 -0.8521  1.8574 -0.1860
  193DOPC   C1123813   7.392   2.202   3.524  0.0671 -0.0564 -0.0985
  193DOPC  H11A23814   7.431   2.260   3.611 -1.2354 -2.2241  2.0450
  193DOPC  H11B23815   7.458   2.113   3.526  1.1213  0.6645 -1.2830
  193DOPC     P23816   7.374   2.428   3.396  0.2835 -0.1402 -0.0785
  193DOPC   O1323817   7.314   2.449   3.262 -0.2885 -0.0399  0.2699
  193DOPC   O1423818   7.493   2.507   3.425  0.0741  0.7190  0.5029
  193DOPC   O1223819   7.412   2.277   3.404  0.3842 -0.2426 -0.6480
  193DOPC   O1123820   7.265   2.460   3.498 -0.5994 -0.4379 -0.0971
  193DOPC    C123821   7.242   2.587   3.565  0.4549 -0.5932 -0.2840
  193DOPC    HA23822   7.136   2.609   3.542  0.7545  0.6371 -0.5302
  193DOPC    HB23823   7.304   2.663   3.514 -0.9418 -0.9342 -2.6372
  193DOPC    C223824   7.242   2.578   3.720 -0.3215 -0.5406  0.2265
  193DOPC    HS23825   7.219   2.677   3.765 -3.2810 -0.0914 -1.9566
  193DOPC   O2123826   7.370   2.532   3.767  0.1604  0.3829  0.4063
  193DOPC   C2123827   7.472   2.607   3.744  0.4416  0.9452  0.8306
  193DOPC   O2223828   7.467   2.717   3.698 -0.0630 -0.0829  0.7007
  193DOPC   C2223829   7.603   2.544   3.800 -0.1664  0.3473  0.2543
  193DOPC   H2R23830   7.676   2.535   3.716 -0.6958  0.1482 -0.1907
  193DOPC   H2S23831   7.576   2.441   3.832 -0.2070  0.5455  0.8811
  193DOPC    C323832   7.136   2.485   3.783 -0.6266 -0.6762  0.3240
  193DOPC    HX23833   7.163   2.452   3.885  1.7810  0.7240  0.2037
  193DOPC    HY23834   7.134   2.390   3.724 -1.6148 -0.4327 -0.0516
  193DOPC   O3123835   7.006   2.550   3.775 -0.3036  0.2016 -0.5438
  193DOPC   C3123836   6.988   2.618   3.889  0.1585 -1.0862 -0.3956
  193DOPC   O3223837   7.065   2.627   3.980  0.3384  0.2560 -0.2791
  193DOPC   C3223838   6.839   2.672   3.885 -0.1205 -0.8769  0.5623
  193DOPC   H2X23839   6.824   2.713   3.783  4.5167 -0.1164 -0.0305
  193DOPC   H2Y23840   6.770   2.585   3.895 -1.0779 -0.0702  1.0775
  193DOPC   C2323841   7.659   2.625   3.923  0.3708  0.6270  0.0293
  193DOPC   H3R23842   7.579   2.636   3.999 -0.7801 -1.5023 -0.7792
  193DOPC   H3S23843   7.686   2.725   3.881  0.4684  1.3812  1.8226
  193DOPC   C2423844   7.781   2.561   3.994 -0.4378 -1.3450 -0.2101
  193DOPC   H4R23845   7.817   2.634   4.069  0.5981 -3.6953  1.7352
  193DOPC   H4S23846   7.856   2.534   3.916 -1.3080  2.1612 -2.4534
  193DOPC   C2523847   7.758   2.444   4.087 -0.3566 -0.0734 -0.3790
  193DOPC   H5R23848   7.689   2.371   4.040  0.1971  0.3718 -1.9335
  193DOPC   H5S23849   7.704   2.483   4.176  0.2829  1.0784 -0.4777
  193DOPC   C2623850   7.897   2.379   4.117 -1.1710  0.0652 -0.1477
  193DOPC   H6R23851   7.957   2.466   4.154 -0.4779  0.2173 -1.5747
  193DOPC   H6S23852   7.944   2.340   4.024  0.0111  3.4487 -1.1325
  193DOPC   C2723853   7.891   2.282   4.236 -0.1306  0.4013 -0.6892
  193DOPC   H7R23854   7.973   2.212   4.208 -0.3959 -0.0593 -0.3222
  193DOPC   H7S23855   7.805   2.212   4.247  0.9530 -0.5297  3.3785
  193DOPC   C2823856   7.922   2.333   4.382 -0.2938  0.1548  0.1591
  193DOPC   H8R23857   8.023   2.376   4.369 -0.0812 -0.2969  0.2969
  193DOPC   H8S23858   7.921   2.239   4.441 -0.6419  1.7867  2.9384
  193DOPC   C2923859   7.834   2.441   4.435  0.2197  0.1396  0.3744
  193DOPC   H9R23860   7.821   2.532   4.375  0.7595 -1.1197 -1.7576
  193DOPC  C21023861   7.762   2.419   4.547  0.2259 -0.4610  0.1308
  193DOPC  H10R23862   7.693   2.498   4.580  0.0254 -0.3582 -0.5120
  193DOPC  C21123863   7.751   2.298   4.635  0.2370 -0.2666  0.0552
  193DOPC  H11R23864   7.735   2.203   4.581 -1.1112 -0.5874  0.9729
  193DOPC  H11S23865   7.658   2.317   4.694  0.8314  1.3552  0.5392
  193DOPC  C21223866   7.865   2.284   4.737  0.5011 -0.1545 -0.0696
  193DOPC  H12R23867   7.959   2.264   4.683  1.2309 -0.8399  1.3967
  193DOPC  H12S23868   7.838   2.192   4.795  1.1354 -0.4895 -0.2954
  193DOPC  C21323869   7.878   2.400   4.833  0.6166  0.7736 -0.5087
  193DOPC  H13R23870   7.775   2.418   4.871 -0.0322 -1.8424 -0.8860
  193DOPC  H13S23871   7.916   2.483   4.769  0.4634  0.9487 -0.3758
  193DOPC  C21423872   7.976   2.363   4.939 -0.2924  0.3744  0.3826
  193DOPC  H14R23873   8.064   2.316   4.890 -0.2565 -2.4256  2.8876
  193DOPC  H14S23874   7.940   2.274   4.994  2.5967 -2.2767 -1.6959
  193DOPC  C21523875   8.035   2.480   5.027  0.3805  0.3012 -0.3439
  193DOPC  H15R23876   8.058   2.565   4.959 -1.4031  1.1014 -0.0226
  193DOPC  H15S23877   8.129   2.448   5.077  0.8832  1.0261 -0.8015
  193DOPC  C21623878   7.933   2.528   5.127  1.0676  0.2348  0.4131
  193DOPC  H16R23879   7.872   2.456   5.186  1.5281  0.5463  1.2781
  193DOPC  H16S23880   7.848   2.578   5.077 -0.4022 -0.9591  1.6195
  193DOPC  C21723881   8.004   2.625   5.225 -0.4351 -0.3947 -0.2571
  193DOPC  H17R23882   8.069   2.690   5.162 -0.6823  0.5282  0.4090
  193DOPC  H17S23883   8.076   2.566   5.285 -1.3569 -0.1665  1.1305
  193DOPC  C21823884   7.925   2.708   5.316  0.4917  0.1024  0.0971
  193DOPC  H18R23885   7.989   2.739   5.401 -1.1058 -0.3208  1.5039
  193DOPC  H18S23886   7.840   2.644   5.348 -1.1511  1.1690 -1.9350
  193DOPC  H18T23887   7.883   2.802   5.276  0.2371  0.2393  0.6855
  193DOPC   C3323888   6.825   2.781   3.990  0.6201 -1.3061 -0.3723
  193DOPC   H3X23889   6.749   2.859   3.970  2.0285  0.4083  0.7592
  193DOPC   H3Y23890   6.912   2.849   3.997 -0.3016 -0.2999  3.4662
  193DOPC   C3423891   6.792   2.737   4.131 -0.1145 -0.0849 -0.5149
  193DOPC   H4X23892   6.849   2.649   4.164 -0.4668 -0.3808 -0.6833
  193DOPC   H4Y23893   6.687   2.701   4.141 -0.8791  2.3456  1.1655
  193DOPC   C3523894   6.809   2.834   4.250 -0.2349  0.8162 -0.9185
  193DOPC   H5X23895   6.755   2.785   4.334 -1.4409 -0.2586 -2.2656
  193DOPC   H5Y23896   6.765   2.933   4.224  0.0802  1.4071  0.7002
  193DOPC   C3623897   6.963   2.864   4.286 -0.4981  0.6486  0.2234
  193DOPC   H6X23898   7.024   2.772   4.275 -2.3539 -0.8196  1.4697
  193DOPC   H6Y23899   6.991   2.941   4.212  1.1077  0.2081  0.3405
  193DOPC   C3723900   6.976   2.919   4.427 -0.2376  0.0425  0.2696
  193DOPC   H7X23901   6.906   3.005   4.427 -0.0947  0.1786 -1.0413
  193DOPC   H7Y23902   6.942   2.833   4.488 -0.1627  0.0210  0.2815
  193DOPC   C3823903   7.117   2.955   4.457  0.1871  0.4910  0.0627
  193DOPC   H8X23904   7.142   3.030   4.378 -0.3581  0.2513 -0.3423
  193DOPC   H8Y23905   7.185   2.868   4.448  0.6018  0.7659  0.4481
  193DOPC   C3923906   7.138   3.003   4.599  0.3253 -0.8499 -0.4807
  193DOPC   H9X23907   7.135   2.931   4.682 -2.0143  0.1088  0.3397
  193DOPC  C31023908   7.167   3.131   4.634 -0.2716 -0.0034 -0.6221
  193DOPC  H10X23909   7.175   3.157   4.741  0.7554 -0.0047 -0.6814
  193DOPC  C31123910   7.194   3.250   4.543 -0.5141 -0.8955  0.0106
  193DOPC  H11X23911   7.121   3.334   4.548 -0.7635 -1.1271  0.3303
  193DOPC  H11Y23912   7.180   3.229   4.435 -0.4646 -2.7329  0.3272
  193DOPC  C31223913   7.339   3.309   4.551  0.1394  0.7675 -0.0505
  193DOPC  H12X23914   7.408   3.227   4.581  1.6160  1.4726 -1.3907
  193DOPC  H12Y23915   7.362   3.387   4.627 -0.5769 -0.2683  1.2780
  193DOPC  C31323916   7.404   3.340   4.413 -0.4901 -0.7400  0.1533
  193DOPC  H13X23917   7.435   3.244   4.368  1.5624  0.3073 -0.8309
  193DOPC  H13Y23918   7.327   3.394   4.354 -0.2826  0.4266  0.9051
  193DOPC  C31423919   7.534   3.420   4.415 -0.0756  0.3842 -0.3592
  193DOPC  H14X23920   7.522   3.507   4.484  1.2702  0.3648 -0.0723
  193DOPC  H14Y23921   7.607   3.350   4.461  0.6401 -1.2016 -3.6144
  193DOPC  C31523922   7.577   3.454   4.273 -0.2950 -0.4170 -1.3953
  193DOPC  H15X23923   7.646   3.541   4.285 -1.8329  0.7500 -0.7375
  193DOPC  H15Y23924   7.498   3.503   4.213  0.2041  2.9481  0.4450
  193DOPC  C31623925   7.658   3.340   4.204  1.0104  0.5790 -0.6646
  193DOPC  H16X23926   7.715   3.272   4.272 -2.3208 -2.3414 -0.4799
  193DOPC  H16Y23927   7.586   3.268   4.159  0.1361  1.6199 -0.9666
  193DOPC  C31723928   7.741   3.388   4.081 -0.3216 -0.7643 -0.0900
  193DOPC  H17X23929   7.671   3.442   4.013 -1.9484 -1.0963  1.2492
  193DOPC  H17Y23930   7.812   3.469   4.109 -1.3970  0.3317 -0.4004
  193DOPC  C31823931   7.804   3.283   3.995 -0.1973 -0.0652 -0.8999
  193DOPC  H18X23932   7.725   3.207   3.979  0.6736 -1.0106 -0.8398
  193DOPC  H18Y23933   7.847   3.314   3.897 -0.0554  1.0024 -0.5116
  193DOPC  H18Z23934   7.881   3.222   4.048 -1.1627 -2.0936 -1.7087
  194DOPC     N23935   3.162   0.589   3.061  0.0177  0.2772 -0.4672
  194DOPC   C1223936   3.253   0.470   3.086  0.4329 -0.3078 -0.2133
  194DOPC  H12A23937   3.352   0.506   3.112  0.0774 -0.0852  0.8769
  194DOPC  H12B23938   3.270   0.411   2.997 -2.2217 -0.7760 -0.4839
  194DOPC   C1323939   3.024   0.543   3.029 -0.1849 -0.0207  0.2460
  194DOPC  H13A23940   2.953   0.624   3.028 -1.4069 -1.0548  0.1238
  194DOPC  H13B23941   3.028   0.495   2.933  2.3802  0.8234 -0.1399
  194DOPC  H13C23942   2.984   0.479   3.106  0.2526 -1.2193 -0.4960
  194DOPC   C1423943   3.206   0.668   2.946 -0.1573 -0.3342  0.5024
  194DOPC  H14A23944   3.312   0.686   2.948 -0.0615 -0.6283 -1.1040
  194DOPC  H14B23945   3.199   0.615   2.853 -1.1123  0.0499  0.3353
  194DOPC  H14C23946   3.147   0.758   2.938 -1.5699 -1.1121  1.6547
  194DOPC   C1523947   3.165   0.675   3.184  0.5297  0.4364  0.0186
  194DOPC  H15A23948   3.133   0.635   3.279  2.6340 -0.0030  0.6035
  194DOPC  H15B23949   3.095   0.755   3.166 -1.4062 -0.7776  1.7683
  194DOPC  H15C23950   3.257   0.729   3.198  0.6869 -0.1183  1.2293
  194DOPC   C1123951   3.203   0.376   3.195  0.6197  0.2532 -0.2843
  194DOPC  H11A23952   3.288   0.311   3.226  2.8746  2.9820 -0.2970
  194DOPC  H11B23953   3.175   0.431   3.287  0.5509 -1.3820  0.7192
  194DOPC     P23954   3.086   0.176   3.087  0.0622  0.2367 -0.3400
  194DOPC   O1323955   3.184   0.181   2.973 -0.1830 -0.8437 -0.4045
  194DOPC   O1423956   2.951   0.141   3.041  0.3208 -0.0891  0.2869
  194DOPC   O1223957   3.081   0.312   3.168 -0.3365  0.0369 -0.0850
  194DOPC   O1123958   3.126   0.068   3.195  0.1485  0.0032  0.0120
  194DOPC    C123959   3.109   0.110   3.333  0.2931  0.9502 -0.3772
  194DOPC    HA23960   3.024   0.179   3.351 -0.5455 -0.5190  1.6218
  194DOPC    HB23961   3.197   0.170   3.365  0.4808  1.0881 -1.1175
  194DOPC    C223962   3.095  -0.022   3.420 -0.2633  0.5175  1.1829
  194DOPC    HS23963   3.018  -0.084   3.369 -1.5934  2.6823  0.3581
  194DOPC   O2123964   3.058   0.016   3.556 -0.1838 -0.3488 -0.3016
  194DOPC   C2123965   2.970  -0.059   3.618 -0.2710  0.5307  1.0097
  194DOPC   O2223966   2.910  -0.155   3.572 -0.1368  0.3320 -0.8773
  194DOPC   C2223967   2.977  -0.022   3.771  0.0269 -0.0460  0.1712
  194DOPC   H2R23968   2.913   0.068   3.784  2.1126  1.4729  0.5283
  194DOPC   H2S23969   3.085   0.004   3.775 -0.1058  0.7737 -0.9655
  194DOPC    C323970   3.218  -0.110   3.435  0.5198  0.0676  0.1789
  194DOPC    HX23971   3.298  -0.045   3.478  2.3614 -0.8176 -1.7353
  194DOPC    HY23972   3.242  -0.138   3.330  1.7208 -1.6643  0.8762
  194DOPC   O3123973   3.198  -0.219   3.525  0.0168 -0.3126 -0.2798
  194DOPC   C3123974   3.145  -0.322   3.472 -0.4569 -0.0322 -0.1205
  194DOPC   O3223975   3.112  -0.336   3.357 -0.1651 -0.2416 -0.1742
  194DOPC   C3223976   3.116  -0.425   3.580 -0.2696  0.0828  0.1268
  194DOPC   H2X23977   3.196  -0.501   3.580 -0.4143 -0.0832  1.4346
  194DOPC   H2Y23978   3.119  -0.378   3.681  2.6189 -0.3721  0.3251
  194DOPC   C2323979   2.936  -0.142   3.868  0.5888 -0.5556  0.0430
  194DOPC   H3R23980   3.000  -0.232   3.853  2.9043  0.7430  1.4014
  194DOPC   H3S23981   2.832  -0.171   3.844  0.1827  0.4435  0.5236
  194DOPC   C2423982   2.943  -0.092   4.016  0.2310 -0.1308 -0.4878
  194DOPC   H4R23983   3.002   0.002   4.013 -1.4703  0.9934 -0.2005
  194DOPC   H4S23984   3.002  -0.169   4.069 -2.2427 -1.5774  0.3102
  194DOPC   C2523985   2.817  -0.076   4.086 -0.0739  0.9173 -0.2906
  194DOPC   H5R23986   2.791  -0.181   4.109  0.7565  0.6181 -0.6935
  194DOPC   H5S23987   2.746  -0.014   4.027 -0.7307  1.0156  0.5839
  194DOPC   C2623988   2.826  -0.001   4.216 -0.2673  0.4315 -0.7576
  194DOPC   H6R23989   2.884   0.093   4.201 -2.0063  2.1587  2.3327
  194DOPC   H6S23990   2.885  -0.053   4.295 -1.0394  1.2659  0.4124
  194DOPC   C2723991   2.688   0.032   4.292 -1.0589  0.0231 -0.4774
  194DOPC   H7R23992   2.645  -0.068   4.313  0.8524 -0.6138  0.6140
  194DOPC   H7S23993   2.632   0.092   4.217  0.4425 -0.0954 -1.7440
  194DOPC   C2823994   2.722   0.105   4.425  0.2027  0.2774  0.2614
  194DOPC   H8R23995   2.770   0.205   4.419 -1.7757  1.2838  0.4347
  194DOPC   H8S23996   2.795   0.041   4.478  1.3996  1.3277 -0.0540
  194DOPC   C2923997   2.594   0.112   4.504 -0.5199 -0.2779 -0.1453
  194DOPC   H9R23998   2.522   0.182   4.458  2.7155  0.8811 -4.0946
  194DOPC  C21023999   2.566   0.044   4.610  0.1195 -0.0810  0.3159
  194DOPC  H10R24000   2.465   0.067   4.647 -0.2056  1.9497 -1.6344
  194DOPC  C21124001   2.651  -0.050   4.688 -0.3643  0.4816  0.0963
  194DOPC  H11R24002   2.719  -0.107   4.622 -0.4902  0.0736  0.3165
  194DOPC  H11S24003   2.602  -0.121   4.758  2.8295  1.5748  3.7744
  194DOPC  C21224004   2.756   0.012   4.781  0.0992 -0.6823  0.0094
  194DOPC  H12R24005   2.812   0.099   4.741  1.0574  0.1812  2.9765
  194DOPC  H12S24006   2.832  -0.068   4.794  0.5896 -0.1914  0.2009
  194DOPC  C21324007   2.707   0.053   4.920  1.1165 -0.3716 -0.3633
  194DOPC  H13R24008   2.649  -0.030   4.966 -0.5359  0.5574 -0.7050
  194DOPC  H13S24009   2.633   0.135   4.912  2.1943  0.8515  1.2769
  194DOPC  C21424010   2.826   0.097   5.011  0.1565  1.1747 -0.4409
  194DOPC  H14R24011   2.904   0.158   4.961  1.8377  0.2373  0.8999
  194DOPC  H14S24012   2.872  -0.002   5.035 -2.0857 -0.1376 -1.2392
  194DOPC  C21524013   2.769   0.170   5.135 -0.8859 -0.0891 -0.0860
  194DOPC  H15R24014   2.690   0.108   5.182  0.4394 -1.5479  0.3024
  194DOPC  H15S24015   2.726   0.264   5.095  0.0051 -0.7438 -2.7970
  194DOPC  C21624016   2.881   0.226   5.227  0.0175 -0.2345 -0.0971
  194DOPC  H16R24017   2.969   0.242   5.162 -1.2050  3.6154 -1.0622
  194DOPC  H16S24018   2.908   0.144   5.298 -1.9521  0.1047  1.1436
  194DOPC  C21724019   2.836   0.348   5.300  0.0104  0.1104 -0.2078
  194DOPC  H17R24020   2.735   0.332   5.346 -0.2781  2.4192  0.0555
  194DOPC  H17S24021   2.826   0.427   5.223  0.3199  1.3285  0.9800
  194DOPC  C21824022   2.929   0.409   5.410  0.1182  0.4007 -0.2213
  194DOPC  H18R24023   3.014   0.458   5.357 -0.5265 -0.3351 -2.0325
  194DOPC  H18S24024   2.952   0.332   5.486  0.1755  1.1888  0.5796
  194DOPC  H18T24025   2.870   0.486   5.464 -1.7791 -1.5443  0.6236
  194DOPC   C3324026   2.984  -0.507   3.562 -0.1276 -1.5532  0.4783
  194DOPC   H3X24027   2.994  -0.561   3.466  0.8325 -1.0929  0.3081
  194DOPC   H3Y24028   2.902  -0.432   3.562  0.8188 -0.4249 -1.9115
  194DOPC   C3424029   2.961  -0.617   3.661 -0.2206  0.7300 -0.0878
  194DOPC   H4X24030   3.048  -0.683   3.644  0.0551  0.7410  1.1705
  194DOPC   H4Y24031   2.869  -0.665   3.623  0.7584 -1.9827  0.7212
  194DOPC   C3524032   2.956  -0.572   3.806 -0.4314  0.4017  0.3766
  194DOPC   H5X24033   2.870  -0.502   3.814 -1.7178 -1.2818  2.1093
  194DOPC   H5Y24034   3.044  -0.509   3.832 -0.1353 -0.8639  2.7071
  194DOPC   C3624035   2.936  -0.683   3.904 -0.1338  0.3165 -1.0091
  194DOPC   H6X24036   3.020  -0.756   3.910  0.4693  0.9706 -1.3317
  194DOPC   H6Y24037   2.929  -0.643   4.008 -2.3774 -1.1128 -0.5392
  194DOPC   C3724038   2.799  -0.761   3.898 -0.2955 -0.8840  0.5014
  194DOPC   H7X24039   2.726  -0.680   3.920  1.2020  2.7122 -5.3454
  194DOPC   H7Y24040   2.791  -0.801   3.794  1.1783 -1.9355  0.7621
  194DOPC   C3824041   2.793  -0.877   3.998 -0.1460  0.5518  0.3523
  194DOPC   H8X24042   2.824  -0.848   4.101  1.2693  2.3139 -0.5213
  194DOPC   H8Y24043   2.873  -0.944   3.960 -1.0434  0.6225 -1.8192
  194DOPC   C3924044   2.662  -0.945   3.990 -0.0896  0.5935  0.7355
  194DOPC   H9X24045   2.610  -0.926   3.895  2.2393  1.1344 -0.4953
  194DOPC  C31024046   2.599  -1.012   4.094 -0.2445  0.0698  0.8445
  194DOPC  H10X24047   2.505  -1.063   4.069  0.0652  0.8206 -2.2900
  194DOPC  C31124048   2.651  -1.021   4.231  0.0139 -0.7349 -0.0371
  194DOPC  H11X24049   2.736  -0.951   4.247  1.2277 -1.5644 -2.4088
  194DOPC  H11Y24050   2.677  -1.123   4.266 -1.0163 -0.5269  1.4398
  194DOPC  C31224051   2.523  -0.975   4.315 -0.2872  0.5570 -0.0699
  194DOPC  H12X24052   2.437  -1.040   4.289 -0.8067  0.3244  2.0758
  194DOPC  H12Y24053   2.501  -0.871   4.282 -0.9575  0.3535 -0.2852
  194DOPC  C31324054   2.548  -0.973   4.465  0.1262 -0.1282  0.0651
  194DOPC  H13X24055   2.645  -0.921   4.474  1.3585 -2.2732 -0.0384
  194DOPC  H13Y24056   2.476  -0.911   4.523 -0.3083 -0.1236 -0.4761
  194DOPC  C31424057   2.545  -1.112   4.525  0.3398  0.1759 -0.3318
  194DOPC  H14X24058   2.446  -1.161   4.511 -1.0279  2.5119  0.6939
  194DOPC  H14Y24059   2.631  -1.171   4.486 -0.1360 -1.2094  0.6289
  194DOPC  C31524060   2.558  -1.110   4.678 -0.7007  0.5188 -0.7172
  194DOPC  H15X24061   2.477  -1.046   4.720  1.0338  2.6865 -0.4742
  194DOPC  H15Y24062   2.656  -1.071   4.712 -0.8352  0.4580 -0.2552
  194DOPC  C31624063   2.542  -1.254   4.722  0.5410 -0.0839 -0.3936
  194DOPC  H16X24064   2.444  -1.283   4.678  0.4145  2.0131 -1.6693
  194DOPC  H16Y24065   2.621  -1.321   4.682  0.6833 -1.7361  2.4072
  194DOPC  C31724066   2.554  -1.279   4.878  0.3571 -0.1005  0.3720
  194DOPC  H17X24067   2.650  -1.243   4.922  0.5412  0.8863 -0.7928
  194DOPC  H17Y24068   2.477  -1.208   4.916  0.5751  0.5419 -0.3596
  194DOPC  C31824069   2.522  -1.429   4.904  0.0185 -0.0557 -0.1487
  194DOPC  H18X24070   2.606  -1.499   4.884  1.2922  1.6647 -1.1411
  194DOPC  H18Y24071   2.482  -1.445   5.006  0.8036 -0.3855  0.1161
  194DOPC  H18Z24072   2.436  -1.460   4.840 -2.2037  3.3314  0.9511
  195DOPC     N24073   6.814   6.756   3.147 -0.0145 -0.3771  0.6878
  195DOPC   C1224074   6.857   6.883   3.222  0.4270 -0.2644 -0.5587
  195DOPC  H12A24075   6.800   6.882   3.314 -0.2904 -3.8721 -0.9204
  195DOPC  H12B24076   6.812   6.959   3.160 -0.5227 -1.0809 -0.8983
  195DOPC   C1324077   6.670   6.737   3.170 -0.3161 -0.5011  0.5979
  195DOPC  H13A24078   6.637   6.732   3.273 -1.8468  2.5481  0.3779
  195DOPC  H13B24079   6.611   6.817   3.128 -1.2480 -1.8830 -0.8549
  195DOPC  H13C24080   6.630   6.652   3.116 -2.8481  0.0624  1.4438
  195DOPC   C1424081   6.885   6.638   3.195 -0.6925  0.6112 -0.1532
  195DOPC  H14A24082   6.851   6.542   3.160  1.2515 -0.7947  1.5995
  195DOPC  H14B24083   6.992   6.643   3.179 -0.5711  3.5146  1.0084
  195DOPC  H14C24084   6.886   6.630   3.302 -0.3372 -1.7306 -0.2884
  195DOPC   C1524085   6.831   6.777   2.994  0.0416  0.1879 -0.9996
  195DOPC  H15A24086   6.936   6.794   2.980 -0.3801  4.0191 -0.4433
  195DOPC  H15B24087   6.783   6.864   2.952  1.3047  0.9876 -0.8465
  195DOPC  H15C24088   6.804   6.686   2.943 -2.8211 -0.1488  0.8479
  195DOPC   C1124089   7.004   6.913   3.236  0.5119  0.2708 -0.1805
  195DOPC  H11A24090   7.029   7.007   3.290 -1.1546  0.6670 -0.0674
  195DOPC  H11B24091   7.043   6.837   3.307 -2.4113 -0.9510  0.2394
  195DOPC     P24092   7.116   7.039   3.033  0.3297  0.0589 -0.2402
  195DOPC   O1324093   7.008   7.145   3.032 -0.0749  1.3845  0.0903
  195DOPC   O1424094   7.165   6.991   2.905 -0.0175  0.0423  0.3919
  195DOPC   O1224095   7.070   6.912   3.109  0.1384  0.3203 -0.1602
  195DOPC   O1124096   7.235   7.084   3.120 -0.1496 -0.8266 -0.0852
  195DOPC    C124097   7.346   6.994   3.138  0.9756 -0.0589 -0.0433
  195DOPC    HA24098   7.400   6.986   3.041  1.2907 -3.0321  0.2997
  195DOPC    HB24099   7.306   6.895   3.167  1.8222  0.1084  1.7964
  195DOPC    C224100   7.436   7.042   3.250 -0.2875 -0.0179 -0.2624
  195DOPC    HS24101   7.511   6.962   3.268 -0.6676 -0.7086 -1.5779
  195DOPC   O2124102   7.365   7.058   3.372  0.1684  0.0878  0.0866
  195DOPC   C2124103   7.312   6.955   3.445  0.0499  0.6027  0.6192
  195DOPC   O2224104   7.293   6.846   3.399  0.0346 -0.0367  0.6271
  195DOPC   C2224105   7.261   7.008   3.580 -1.1306 -0.5102  0.1506
  195DOPC   H2R24106   7.309   6.937   3.651  1.2230  1.2986  0.4791
  195DOPC   H2S24107   7.151   6.994   3.584 -0.9364 -2.3277  3.7321
  195DOPC    C324108   7.522   7.164   3.213  0.2810 -0.5852 -0.3316
  195DOPC    HX24109   7.457   7.238   3.161 -0.4984 -1.7261 -1.0169
  195DOPC    HY24110   7.594   7.130   3.136  0.7719 -0.3614  0.0195
  195DOPC   O3124111   7.606   7.211   3.319  0.0306 -0.4678 -0.0169
  195DOPC   C3124112   7.554   7.320   3.376  0.1961 -0.1070  0.7041
  195DOPC   O3224113   7.443   7.372   3.350 -0.5725 -0.1149 -0.2159
  195DOPC   C3224114   7.662   7.377   3.472  0.0409  0.4559 -0.3467
  195DOPC   H2X24115   7.762   7.349   3.433  0.3275  1.6309 -0.5027
  195DOPC   H2Y24116   7.663   7.488   3.460 -0.2446  0.6020  0.8781
  195DOPC   C2324117   7.297   7.156   3.615  0.0540 -0.0125 -0.3982
  195DOPC   H3R24118   7.220   7.223   3.572 -1.1801 -0.7932  0.5314
  195DOPC   H3S24119   7.396   7.193   3.581  1.1885 -3.5403 -1.4095
  195DOPC   C2424120   7.286   7.180   3.766  0.1824 -0.6206  0.1113
  195DOPC   H4R24121   7.203   7.127   3.818  0.1473 -0.5319  0.1451
  195DOPC   H4S24122   7.278   7.290   3.780  0.0044 -0.6454  0.2031
  195DOPC   C2524123   7.416   7.129   3.837 -0.4627 -0.1935 -0.9176
  195DOPC   H5R24124   7.493   7.209   3.839 -1.4856  0.8133  0.6954
  195DOPC   H5S24125   7.462   7.050   3.774  0.8884  0.0522 -0.2648
  195DOPC   C2624126   7.387   7.070   3.975  0.0979  0.7116  0.2279
  195DOPC   H6R24127   7.341   6.969   3.972  0.8070  0.3876 -2.3498
  195DOPC   H6S24128   7.314   7.143   4.017  0.5756  2.4591 -1.8171
  195DOPC   C2724129   7.513   7.079   4.065  0.6572 -0.1059 -0.4029
  195DOPC   H7R24130   7.525   7.187   4.088 -2.2213  0.2033  0.0151
  195DOPC   H7S24131   7.602   7.035   4.015  1.5224  0.1509  0.8639
  195DOPC   C2824132   7.507   7.010   4.200  0.7540 -0.4923 -0.0895
  195DOPC   H8R24133   7.583   7.053   4.269 -1.6071  3.9546  0.0685
  195DOPC   H8S24134   7.531   6.903   4.179 -1.0811 -0.6319 -1.7819
  195DOPC   C2924135   7.377   7.024   4.270  0.6951 -0.9647  0.0984
  195DOPC   H9R24136   7.356   7.115   4.329 -0.0982  0.2931 -2.0276
  195DOPC  C21024137   7.287   6.932   4.288  0.1128 -0.2492 -0.2729
  195DOPC  H10R24138   7.194   6.956   4.343  0.4334 -0.2653  0.2887
  195DOPC  C21124139   7.289   6.786   4.240 -0.7557  0.3435 -0.2194
  195DOPC  H11R24140   7.384   6.772   4.183  0.0540  1.9523  0.6662
  195DOPC  H11S24141   7.211   6.756   4.167 -0.5331  2.4283 -1.3975
  195DOPC  C21224142   7.300   6.688   4.357  0.2134 -0.0836  0.8011
  195DOPC  H12R24143   7.385   6.719   4.421 -0.4426  0.8605  1.2548
  195DOPC  H12S24144   7.328   6.586   4.323 -0.0303 -0.6376  2.1762
  195DOPC  C21324145   7.171   6.678   4.447 -0.5006  0.4160 -0.2075
  195DOPC  H13R24146   7.077   6.687   4.389 -0.3052  0.3356 -0.5354
  195DOPC  H13S24147   7.174   6.752   4.530  0.9935  1.1424 -0.8752
  195DOPC  C21424148   7.143   6.535   4.507 -0.7044  0.1728  0.4974
  195DOPC  H14R24149   7.217   6.532   4.589 -0.2422 -0.3408  0.0710
  195DOPC  H14S24150   7.175   6.460   4.432  0.8754  1.2880  0.0025
  195DOPC  C21524151   6.998   6.500   4.544  0.1690 -0.0346 -0.8772
  195DOPC  H15R24152   6.935   6.477   4.456  0.0854  2.3035 -1.4871
  195DOPC  H15S24153   6.942   6.586   4.586 -0.6007 -1.6851  1.7701
  195DOPC  C21624154   6.977   6.387   4.649  0.2330  0.5317 -1.0307
  195DOPC  H16R24155   7.046   6.300   4.643 -0.8865 -0.3820 -1.1141
  195DOPC  H16S24156   6.878   6.337   4.635 -1.0176  3.0976 -2.0351
  195DOPC  C21724157   6.968   6.430   4.796 -0.7578 -0.4145 -0.2116
  195DOPC  H17R24158   6.875   6.486   4.820 -0.7527  0.4840 -2.0605
  195DOPC  H17S24159   7.059   6.491   4.815 -1.0938  0.0454 -0.0803
  195DOPC  C21824160   6.960   6.298   4.883  0.7424  0.5108  0.7003
  195DOPC  H18R24161   7.061   6.254   4.899  0.8200  0.7201  0.7949
  195DOPC  H18S24162   6.892   6.219   4.843  0.3603 -0.1995  2.6479
  195DOPC  H18T24163   6.930   6.314   4.989  2.2417 -1.2718  1.4556
  195DOPC   C3324164   7.656   7.334   3.623  0.2552  0.2107  0.2284
  195DOPC   H3X24165   7.679   7.226   3.633 -3.3627 -1.0998 -2.9427
  195DOPC   H3Y24166   7.554   7.358   3.662 -1.1657 -1.6980 -2.0358
  195DOPC   C3424167   7.760   7.405   3.703  0.1530 -0.7827  0.8787
  195DOPC   H4X24168   7.772   7.509   3.664  2.0059 -1.6049 -0.9110
  195DOPC   H4Y24169   7.860   7.357   3.692  1.3811  1.6752  0.5036
  195DOPC   C3524170   7.715   7.419   3.845  0.4054  0.2320 -0.3506
  195DOPC   H5X24171   7.669   7.329   3.890  1.8128 -0.5176 -0.3449
  195DOPC   H5Y24172   7.633   7.494   3.841 -0.0275 -0.2855 -1.4926
  195DOPC   C3624173   7.824   7.462   3.950  0.5187 -0.0282  0.4929
  195DOPC   H6X24174   7.927   7.424   3.934  0.4316 -0.6973  1.4031
  195DOPC   H6Y24175   7.832   7.573   3.958 -1.4630  0.0961  1.4959
  195DOPC   C3724176   7.778   7.420   4.094  0.4101  0.0422 -0.0110
  195DOPC   H7X24177   7.742   7.315   4.087  1.3393 -0.2240 -1.0277
  195DOPC   H7Y24178   7.864   7.409   4.164  2.0786 -1.7915 -2.1900
  195DOPC   C3824179   7.674   7.511   4.157  0.0613 -0.3038  0.0735
  195DOPC   H8X24180   7.630   7.435   4.225 -0.2548 -0.1806  0.0042
  195DOPC   H8Y24181   7.598   7.541   4.082 -0.9144  0.6460  1.3982
  195DOPC   C3924182   7.720   7.634   4.224 -0.2892  0.0462 -0.0172
  195DOPC   H9X24183   7.786   7.690   4.157  0.4770  0.8964  1.3957
  195DOPC  C31024184   7.711   7.649   4.358  0.2740 -0.3531  0.0321
  195DOPC  H10X24185   7.770   7.730   4.402 -0.9118  0.9772 -0.7598
  195DOPC  C31124186   7.631   7.555   4.450 -0.1628  0.0504  0.4626
  195DOPC  H11X24187   7.645   7.452   4.412  1.1473 -0.1699  1.4642
  195DOPC  H11Y24188   7.524   7.581   4.459  0.1992  1.3756  1.1407
  195DOPC  C31224189   7.684   7.563   4.592 -0.2768  0.5778  0.2347
  195DOPC  H12X24190   7.688   7.669   4.628  1.3699  0.6026  0.0505
  195DOPC  H12Y24191   7.793   7.545   4.587  0.3421  3.9690 -2.3617
  195DOPC  C31324192   7.634   7.458   4.681  0.0566  0.3355 -0.0502
  195DOPC  H13X24193   7.523   7.456   4.674  0.0080 -2.2101  0.6061
  195DOPC  H13Y24194   7.666   7.359   4.642  1.1006 -0.7851  3.2641
  195DOPC  C31424195   7.679   7.480   4.821 -0.4985 -0.1719  0.0733
  195DOPC  H14X24196   7.787   7.455   4.813  0.4633  2.1248  3.3872
  195DOPC  H14Y24197   7.660   7.583   4.857  1.3885  0.1918  0.1142
  195DOPC  C31524198   7.624   7.388   4.934  0.1101 -0.6050  0.4939
  195DOPC  H15X24199   7.657   7.286   4.906  1.4086 -0.0084 -0.2742
  195DOPC  H15Y24200   7.513   7.389   4.927  0.1312 -3.2545 -2.6843
  195DOPC  C31624201   7.692   7.420   5.069 -0.2526  0.3068 -0.3774
  195DOPC  H16X24202   7.665   7.343   5.144 -1.5728 -0.2168 -1.3530
  195DOPC  H16Y24203   7.803   7.422   5.061 -0.0994  1.8433  1.3572
  195DOPC  C31724204   7.648   7.555   5.134 -0.4027 -0.0357  0.4842
  195DOPC  H17X24205   7.657   7.647   5.073  1.6634  0.4943  1.4889
  195DOPC  H17Y24206   7.544   7.535   5.167 -0.1362 -1.5016  0.5130
  195DOPC  C31824207   7.726   7.581   5.261  0.6998  0.3217 -0.1801
  195DOPC  H18X24208   7.834   7.572   5.236  1.0594  0.8226  1.1160
  195DOPC  H18Y24209   7.715   7.681   5.308  1.5385  1.1283 -1.6229
  195DOPC  H18Z24210   7.709   7.508   5.342 -1.4252 -0.0150 -0.8804
  196DOPC     N24211   1.830   0.462   3.256  0.1551 -0.5904  0.0703
  196DOPC   C1224212   1.935   0.552   3.329  0.4480  0.0935 -0.2968
  196DOPC  H12A24213   1.974   0.622   3.256 -0.9811 -0.7161 -1.9226
  196DOPC  H12B24214   2.022   0.501   3.367  1.1519  1.3714 -0.1293
  196DOPC   C1324215   1.879   0.419   3.123 -0.6933 -0.9346  0.0900
  196DOPC  H13A24216   1.800   0.369   3.069  0.2447 -1.0265 -1.2270
  196DOPC  H13B24217   1.910   0.505   3.066 -1.8317 -0.6010 -0.0373
  196DOPC  H13C24218   1.967   0.356   3.127  0.6611  0.6139 -2.3676
  196DOPC   C1424219   1.702   0.535   3.238  0.4243 -0.1261  0.2129
  196DOPC  H14A24220   1.715   0.634   3.197 -0.5709  0.8552  2.1300
  196DOPC  H14B24221   1.644   0.486   3.161  1.6637  1.6532 -1.9917
  196DOPC  H14C24222   1.645   0.544   3.329 -1.2943 -1.2258 -0.6969
  196DOPC   C1524223   1.796   0.345   3.335  0.2117  0.5558 -0.3675
  196DOPC  H15A24224   1.708   0.310   3.282  1.2105 -0.7600 -1.2156
  196DOPC  H15B24225   1.780   0.364   3.440  3.1684  2.6368 -0.1684
  196DOPC  H15C24226   1.874   0.270   3.330  0.9016  1.0663  1.9057
  196DOPC   C1124227   1.892   0.637   3.455  0.4028  0.3511  0.0468
  196DOPC  H11A24228   1.830   0.569   3.517 -0.0597 -0.0180 -0.8068
  196DOPC  H11B24229   1.983   0.677   3.504 -0.6371  1.8465  0.8383
  196DOPC     P24230   1.896   0.863   3.331 -0.2518  0.2104  0.1233
  196DOPC   O1324231   1.801   0.938   3.245  0.2213 -0.4050  0.5498
  196DOPC   O1424232   2.024   0.814   3.272  0.3040 -0.2760 -0.3236
  196DOPC   O1224233   1.815   0.746   3.407 -0.4314  0.4001  0.5354
  196DOPC   O1124234   1.940   0.960   3.450 -0.7956  0.1268 -0.2156
  196DOPC    C124235   1.870   0.976   3.572  0.1603  0.2165 -0.8123
  196DOPC    HA24236   1.794   0.897   3.589 -0.0394  0.8517  1.4972
  196DOPC    HB24237   1.819   1.074   3.568 -1.0955 -0.2977  1.0782
  196DOPC    C224238   1.961   0.972   3.701 -0.2952 -0.4868 -0.3563
  196DOPC    HS24239   2.025   1.062   3.690 -0.8797  0.0296  0.3980
  196DOPC   O2124240   2.039   0.847   3.693 -0.1042  0.5339  0.0481
  196DOPC   C2124241   2.140   0.843   3.778 -0.3108  0.1387 -0.0769
  196DOPC   O2224242   2.170   0.934   3.855  0.3046 -0.7087 -0.0083
  196DOPC   C2224243   2.230   0.725   3.757 -0.4646  0.2371 -0.2673
  196DOPC   H2R24244   2.333   0.758   3.734 -1.3408  3.8507  0.3611
  196DOPC   H2S24245   2.198   0.663   3.669  1.1013 -2.5323  0.9920
  196DOPC    C324246   1.867   0.979   3.834  0.3873  0.0927 -0.0116
  196DOPC    HX24247   1.803   1.070   3.834  0.6653  0.3001 -1.0778
  196DOPC    HY24248   1.943   0.992   3.914  0.9383 -1.9341 -0.1424
  196DOPC   O3124249   1.788   0.861   3.861  0.3541 -0.3135  0.4194
  196DOPC   C3124250   1.809   0.792   3.967  0.5115  0.1466  0.5010
  196DOPC   O3224251   1.877   0.823   4.060  0.4898  0.6316 -0.2353
  196DOPC   C3224252   1.732   0.662   3.940  0.0178 -0.2427 -0.1653
  196DOPC   H2X24253   1.638   0.674   3.883  0.1427  0.0924 -0.3023
  196DOPC   H2Y24254   1.801   0.596   3.882  0.0552 -0.7024  0.3887
  196DOPC   C2324255   2.229   0.639   3.887 -0.0435 -0.5563  0.7244
  196DOPC   H3R24256   2.121   0.633   3.910 -0.1732  0.8450  0.5888
  196DOPC   H3S24257   2.288   0.683   3.970  0.3665 -2.2832  1.3922
  196DOPC   C2424258   2.288   0.503   3.873 -0.8223 -0.1411  0.1550
  196DOPC   H4R24259   2.226   0.451   3.797 -0.0778 -1.4256  0.4035
  196DOPC   H4S24260   2.272   0.431   3.956 -0.1376  0.2019  0.5939
  196DOPC   C2524261   2.435   0.497   3.846 -0.0171 -0.1786  0.0419
  196DOPC   H5R24262   2.467   0.562   3.761  0.0949 -3.2725 -2.4904
  196DOPC   H5S24263   2.458   0.395   3.809  1.2099 -0.0372  0.3858
  196DOPC   C2624264   2.512   0.517   3.977  0.3605  0.1214  0.7981
  196DOPC   H6R24265   2.452   0.478   4.062 -0.5054  0.8652  0.5530
  196DOPC   H6S24266   2.525   0.627   3.986 -0.0380  0.3054 -0.6498
  196DOPC   C2724267   2.640   0.439   3.981  0.0118  0.8770 -0.1044
  196DOPC   H7R24268   2.699   0.475   3.894  1.1595  0.0704  0.3096
  196DOPC   H7S24269   2.633   0.330   3.958 -1.7393  1.2858 -1.7890
  196DOPC   C2824270   2.717   0.467   4.112  0.5634 -1.1204  0.0246
  196DOPC   H8R24271   2.726   0.578   4.110  0.0036 -0.9613  2.6588
  196DOPC   H8S24272   2.824   0.438   4.110  0.4817 -1.3785 -0.7460
  196DOPC   C2924273   2.650   0.420   4.245  0.4391 -0.0233  0.3019
  196DOPC   H9R24274   2.590   0.328   4.249 -0.1169  0.3492  0.5225
  196DOPC  C21024275   2.668   0.471   4.366 -0.2576  0.1811  0.3634
  196DOPC  H10R24276   2.620   0.427   4.454  1.0582 -0.6189  0.7119
  196DOPC  C21124277   2.754   0.589   4.399  0.4755  0.7812  0.4737
  196DOPC  H11R24278   2.707   0.648   4.480  1.1818  1.5791  0.3198
  196DOPC  H11S24279   2.769   0.657   4.312  3.6440  0.1761  0.4366
  196DOPC  C21224280   2.890   0.546   4.450  0.5720  0.0148 -0.0789
  196DOPC  H12R24281   2.937   0.463   4.394  1.6823 -0.0556  0.9119
  196DOPC  H12S24282   2.874   0.509   4.554 -1.8540  0.4445 -0.2364
  196DOPC  C21324283   2.975   0.664   4.450  0.6095  0.0789 -0.1922
  196DOPC  H13R24284   2.915   0.741   4.502  1.0476 -0.8429  1.7735
  196DOPC  H13S24285   2.984   0.693   4.343  0.5222 -0.5762 -0.3813
  196DOPC  C21424286   3.114   0.658   4.523 -0.1991  0.5345  0.0087
  196DOPC  H14R24287   3.193   0.656   4.445 -0.9001  2.5587 -0.8119
  196DOPC  H14S24288   3.132   0.561   4.574  1.1229 -0.8231 -2.8284
  196DOPC  C21524289   3.136   0.777   4.617 -0.4973  0.2893 -0.0763
  196DOPC  H15R24290   3.060   0.774   4.698 -0.8242 -0.4011 -0.4062
  196DOPC  H15S24291   3.131   0.876   4.567  0.4334  1.7254  2.4745
  196DOPC  C21624292   3.276   0.770   4.671 -0.9488  0.1164  0.1629
  196DOPC  H16R24293   3.294   0.870   4.717 -0.6868  0.5512 -0.8644
  196DOPC  H16S24294   3.350   0.754   4.591 -0.4235  1.1202  0.4220
  196DOPC  C21724295   3.300   0.659   4.775  0.6260 -0.3701  0.0085
  196DOPC  H17R24296   3.298   0.563   4.720 -0.1717 -0.3190 -0.0666
  196DOPC  H17S24297   3.222   0.662   4.855  0.3027  0.5531 -0.3174
  196DOPC  C21824298   3.432   0.685   4.843  0.4893  0.2732 -0.0901
  196DOPC  H18R24299   3.433   0.622   4.935  1.6615  0.7769  0.2614
  196DOPC  H18S24300   3.431   0.785   4.893  0.5726 -0.1086  0.6929
  196DOPC  H18T24301   3.520   0.674   4.776  1.0481 -1.2219  0.8463
  196DOPC   C3324302   1.699   0.593   4.068  0.6360  0.4294 -0.6987
  196DOPC   H3X24303   1.589   0.581   4.077  0.8573 -1.8355 -0.3938
  196DOPC   H3Y24304   1.726   0.650   4.160 -0.8053 -2.6696  1.8468
  196DOPC   C3424305   1.759   0.454   4.098  0.2273  0.3982  0.0546
  196DOPC   H4X24306   1.726   0.395   4.010 -0.0292  1.2822 -0.4487
  196DOPC   H4Y24307   1.713   0.417   4.193 -1.2836 -0.5051 -0.9794
  196DOPC   C3524308   1.915   0.445   4.111 -0.1906 -0.6970  0.0716
  196DOPC   H5X24309   1.941   0.488   4.210  0.3498  0.7563 -0.6768
  196DOPC   H5Y24310   1.962   0.512   4.035 -2.0884  1.9197  1.0901
  196DOPC   C3624311   1.974   0.301   4.088 -0.2540  0.0197  0.1608
  196DOPC   H6X24312   1.957   0.267   3.983  0.3037  0.1543  0.0243
  196DOPC   H6Y24313   2.084   0.289   4.097 -0.4303 -0.9975  1.1104
  196DOPC   C3724314   1.921   0.187   4.179 -0.1897 -0.1143  0.3149
  196DOPC   H7X24315   1.814   0.162   4.164  0.3384 -1.0652 -2.4934
  196DOPC   H7Y24316   1.974   0.093   4.154 -0.4908 -0.2873  0.3268
  196DOPC   C3824317   1.947   0.223   4.324  0.1574 -0.6342  0.3747
  196DOPC   H8X24318   1.866   0.291   4.357 -0.4225 -0.8782 -0.5042
  196DOPC   H8Y24319   2.047   0.267   4.339 -0.0148  0.0130 -0.3402
  196DOPC   C3924320   1.931   0.100   4.405  0.3663 -0.1288  0.4030
  196DOPC   H9X24321   1.866   0.025   4.357 -1.9315  2.2162 -0.3905
  196DOPC  C31024322   1.976   0.081   4.531  0.1665 -0.4058 -0.2543
  196DOPC  H10X24323   1.973  -0.019   4.576 -0.2021 -0.4702 -0.4101
  196DOPC  C31124324   2.050   0.178   4.614  0.2354 -0.4792  0.3706
  196DOPC  H11X24325   1.975   0.240   4.668 -0.3723 -0.2590 -0.6947
  196DOPC  H11Y24326   2.116   0.245   4.553 -3.1510 -0.0334 -3.2396
  196DOPC  C31224327   2.130   0.125   4.732 -0.3383  0.3896 -0.1365
  196DOPC  H12X24328   2.173   0.214   4.783 -2.8134  1.7538 -0.2264
  196DOPC  H12Y24329   2.212   0.062   4.691  1.6967  1.8729  1.4440
  196DOPC  C31324330   2.033   0.055   4.826  0.4992  0.0938 -1.2262
  196DOPC  H13X24331   1.962   0.132   4.865 -0.7443 -1.6455  0.1554
  196DOPC  H13Y24332   1.972  -0.028   4.784  1.2826 -0.2136 -1.7865
  196DOPC  C31424333   2.098  -0.016   4.952  0.0645 -0.2892  0.1586
  196DOPC  H14X24334   2.028  -0.084   5.006  1.4154 -2.3785 -0.5785
  196DOPC  H14Y24335   2.173  -0.087   4.912  0.8845  0.9572 -0.5719
  196DOPC  C31524336   2.171   0.087   5.040  0.4653  0.3655  0.2495
  196DOPC  H15X24337   2.107   0.177   5.050  0.8672  0.5326  1.4904
  196DOPC  H15Y24338   2.264   0.115   4.985  0.7016 -0.8670 -0.0235
  196DOPC  C31624339   2.203   0.039   5.179 -0.1161  0.3586  0.3042
  196DOPC  H16X24340   2.225   0.126   5.244  2.1445 -0.1752  0.3126
  196DOPC  H16Y24341   2.113  -0.002   5.231 -0.4014  0.1338 -0.3502
  196DOPC  C31724342   2.322  -0.053   5.206  0.7159 -0.1060 -0.1962
  196DOPC  H17X24343   2.319  -0.143   5.141 -0.5204 -0.9217  0.9317
  196DOPC  H17Y24344   2.413   0.006   5.181  0.4225  0.3843 -0.1114
  196DOPC  C31824345   2.328  -0.089   5.358  0.3038 -0.0217  0.8042
  196DOPC  H18X24346   2.247  -0.158   5.389  1.2755 -0.5871  2.1753
  196DOPC  H18Y24347   2.431  -0.128   5.369  0.4096  0.3265  1.0620
  196DOPC  H18Z24348   2.309   0.002   5.420  0.2987 -0.3376  1.2659
  197DOPC     N24349   4.231   5.998   2.988 -0.3372 -0.1987 -0.6252
  197DOPC   C1224350   4.203   6.144   3.012  0.4425 -0.0611 -0.6340
  197DOPC  H12A24351   4.195   6.193   2.916 -1.1645  0.0574 -0.4698
  197DOPC  H12B24352   4.288   6.203   3.044  0.2086  0.8778 -1.6487
  197DOPC   C1324353   4.117   5.923   2.922  0.4983  0.2155 -0.3251
  197DOPC  H13A24354   4.029   5.953   2.977  0.3657 -1.7206  0.6030
  197DOPC  H13B24355   4.109   5.954   2.819  2.4305 -1.6031 -1.0966
  197DOPC  H13C24356   4.116   5.816   2.934 -0.0151  0.1763 -0.7222
  197DOPC   C1424357   4.260   5.938   3.126  0.3723  0.6431  0.9245
  197DOPC  H14A24358   4.177   5.946   3.194  2.2690  0.7875  3.3846
  197DOPC  H14B24359   4.286   5.834   3.110  2.1516  1.2780 -0.7815
  197DOPC  H14C24360   4.342   5.985   3.178  0.5193  0.9454  0.4257
  197DOPC   C1524361   4.345   5.978   2.897 -0.2426 -0.0136  0.7428
  197DOPC  H15A24362   4.363   5.874   2.876 -1.5803 -0.4197  1.5091
  197DOPC  H15B24363   4.430   6.024   2.946  0.5622  0.5008 -1.0540
  197DOPC  H15C24364   4.324   6.022   2.801  0.4842  0.7913  0.9377
  197DOPC   C1124365   4.075   6.178   3.103  0.1373  0.3142 -0.0401
  197DOPC  H11A24366   4.098   6.142   3.205  1.1355 -1.1799 -0.7578
  197DOPC  H11B24367   4.065   6.289   3.104 -2.8006  0.1497  1.8657
  197DOPC     P24368   3.874   6.178   2.931  0.6864 -0.3839  0.0258
  197DOPC   O1324369   3.770   6.082   2.887  0.1669  0.3337  0.1262
  197DOPC   O1424370   3.967   6.219   2.828 -0.6362  0.2930 -0.0878
  197DOPC   O1224371   3.948   6.115   3.049 -0.2443 -0.0205 -0.2782
  197DOPC   O1124372   3.805   6.301   3.003 -0.1392  0.2270 -0.0944
  197DOPC    C124373   3.739   6.280   3.130 -0.0978  0.3584 -0.0996
  197DOPC    HA24374   3.813   6.248   3.207 -0.5073 -0.2497  0.0535
  197DOPC    HB24375   3.662   6.201   3.117  1.0335 -0.7630 -0.1679
  197DOPC    C224376   3.684   6.412   3.193 -0.1294 -0.1019 -0.3542
  197DOPC    HS24377   3.655   6.381   3.296  2.1830  0.4734  0.5375
  197DOPC   O2124378   3.569   6.452   3.109 -0.3713 -0.4724 -0.3422
  197DOPC   C2124379   3.463   6.500   3.168  0.0319 -0.5964 -1.0705
  197DOPC   O2224380   3.443   6.502   3.291 -0.1847 -0.2167  0.2562
  197DOPC   C2224381   3.359   6.548   3.066  0.5035 -0.5138  0.3736
  197DOPC   H2R24382   3.265   6.575   3.118  2.0283 -0.1652  3.1665
  197DOPC   H2S24383   3.347   6.459   3.001 -1.7771 -1.4143  1.8894
  197DOPC    C324384   3.789   6.519   3.196  0.1165  0.0291 -0.5137
  197DOPC    HX24385   3.821   6.546   3.094  1.7725  0.7529  0.1666
  197DOPC    HY24386   3.883   6.477   3.237  0.7043  0.0071 -1.8586
  197DOPC   O3124387   3.739   6.635   3.269  0.2738  0.3045 -0.7861
  197DOPC   C3124388   3.754   6.621   3.403 -0.2882 -0.5016 -0.2555
  197DOPC   O3224389   3.813   6.533   3.460 -0.4387  0.5525  0.4315
  197DOPC   C3224390   3.673   6.732   3.466 -0.4921 -0.4442 -0.3092
  197DOPC   H2X24391   3.735   6.824   3.466 -0.0053 -0.7616  0.1833
  197DOPC   H2Y24392   3.577   6.748   3.413  0.1153  0.3468 -1.1944
  197DOPC   C2324393   3.413   6.672   2.993 -0.5094  0.1678  0.0047
  197DOPC   H3R24394   3.334   6.691   2.917  1.2499  0.1988 -1.8863
  197DOPC   H3S24395   3.505   6.643   2.937 -1.1676 -0.5438 -0.7416
  197DOPC   C2424396   3.438   6.783   3.083 -0.2161 -0.4086 -0.2137
  197DOPC   H4R24397   3.501   6.855   3.026 -2.1503  1.5105 -0.0333
  197DOPC   H4S24398   3.508   6.766   3.168  0.3925  1.4347 -0.2835
  197DOPC   C2524399   3.327   6.876   3.122  0.6524  0.2428 -0.0054
  197DOPC   H5R24400   3.271   6.828   3.205  0.4741 -0.4809 -0.5236
  197DOPC   H5S24401   3.265   6.888   3.030  0.6682 -1.7827 -0.3300
  197DOPC   C2624402   3.370   7.017   3.163 -0.4151 -0.2286 -0.4431
  197DOPC   H6R24403   3.278   7.066   3.200 -1.2988 -1.6183 -0.7228
  197DOPC   H6S24404   3.405   7.069   3.071  3.2543 -2.5838 -0.5875
  197DOPC   C2724405   3.480   7.021   3.274 -0.0013 -0.8171 -0.3420
  197DOPC   H7R24406   3.571   6.984   3.222  1.1993  1.1320  0.2494
  197DOPC   H7S24407   3.452   6.951   3.355 -0.8095  0.8659  0.8804
  197DOPC   C2824408   3.494   7.161   3.332  0.2254 -0.0786 -0.0799
  197DOPC   H8R24409   3.411   7.176   3.405 -0.7306 -0.8536 -0.9793
  197DOPC   H8S24410   3.477   7.237   3.253 -0.3703  0.3706  0.4611
  197DOPC   C2924411   3.627   7.167   3.404 -0.5401  0.0800 -0.4008
  197DOPC   H9R24412   3.674   7.079   3.450 -0.2168  1.3960  1.9608
  197DOPC  C21024413   3.703   7.282   3.407  0.0332  0.6151 -0.3651
  197DOPC  H10R24414   3.800   7.279   3.458  0.0077 -0.9710 -0.3630
  197DOPC  C21124415   3.656   7.411   3.344 -0.6196 -0.5475 -0.2614
  197DOPC  H11R24416   3.548   7.407   3.318 -0.3116 -0.0113 -1.7765
  197DOPC  H11S24417   3.724   7.434   3.258  1.6093 -0.4811  1.4231
  197DOPC  C21224418   3.676   7.530   3.440 -0.0778 -0.4753  0.2863
  197DOPC  H12R24419   3.661   7.628   3.391  2.8780 -0.1482 -0.1327
  197DOPC  H12S24420   3.780   7.536   3.479 -0.4293  0.7015  1.0750
  197DOPC  C21324421   3.584   7.510   3.557  0.0733 -0.9093 -0.0140
  197DOPC  H13R24422   3.600   7.411   3.606  2.4083 -0.0050  1.1434
  197DOPC  H13S24423   3.478   7.509   3.523 -0.0678 -1.2915  0.4232
  197DOPC  C21424424   3.604   7.619   3.660  0.0946  0.2092 -0.0126
  197DOPC  H14R24425   3.568   7.713   3.612 -0.5513  0.4870  0.9794
  197DOPC  H14S24426   3.714   7.610   3.670  0.1769  0.6532 -0.4810
  197DOPC  C21524427   3.534   7.603   3.796  0.4141  0.2057  0.0503
  197DOPC  H15R24428   3.561   7.689   3.861  0.3187 -0.1675  0.5848
  197DOPC  H15S24429   3.573   7.512   3.845 -1.1723 -0.5378 -0.0241
  197DOPC  C21624430   3.385   7.563   3.785  0.6924  0.4866  1.0303
  197DOPC  H16R24431   3.373   7.471   3.723 -0.7680  1.8709 -0.8407
  197DOPC  H16S24432   3.322   7.629   3.722 -0.7739 -0.8645  0.9890
  197DOPC  C21724433   3.317   7.544   3.923  0.1577 -0.7331  0.7003
  197DOPC  H17R24434   3.380   7.466   3.973  0.5543  1.9969  4.9041
  197DOPC  H17S24435   3.217   7.506   3.896 -0.0389  0.6982 -0.7011
  197DOPC  C21824436   3.318   7.682   3.993  0.1027 -0.1746 -0.1149
  197DOPC  H18R24437   3.247   7.689   4.078 -1.7407 -0.8486 -1.5301
  197DOPC  H18S24438   3.292   7.765   3.924 -1.5232  0.4488  1.1788
  197DOPC  H18T24439   3.418   7.707   4.032 -0.2511 -0.5359  1.0592
  197DOPC   C3324440   3.643   6.702   3.616  0.4481 -0.2686  0.8067
  197DOPC   H3X24441   3.731   6.670   3.675  1.2479  1.2337  0.5042
  197DOPC   H3Y24442   3.564   6.625   3.622  0.0311  0.2368  2.2625
  197DOPC   C3424443   3.583   6.833   3.679 -0.0863  0.3753  0.5732
  197DOPC   H4X24444   3.659   6.908   3.647 -0.1505 -0.4190 -1.6674
  197DOPC   H4Y24445   3.590   6.811   3.787 -1.5563 -2.2093  0.2185
  197DOPC   C3524446   3.439   6.867   3.647  0.2368  0.3008  0.1784
  197DOPC   H5X24447   3.370   6.793   3.691  0.2025 -0.2522 -0.7697
  197DOPC   H5Y24448   3.418   6.874   3.538 -0.5724  2.0761  0.4202
  197DOPC   C3624449   3.412   7.007   3.694 -0.1220 -0.2222 -0.3384
  197DOPC   H6X24450   3.484   7.074   3.643 -1.0966  1.5000  0.4537
  197DOPC   H6Y24451   3.311   7.045   3.664 -0.2150 -0.2174 -0.0217
  197DOPC   C3724452   3.433   7.032   3.852 -0.0122  0.7736 -0.3493
  197DOPC   H7X24453   3.394   6.941   3.901  0.5540  1.1952  0.9360
  197DOPC   H7Y24454   3.542   7.023   3.875 -0.1531 -0.2592 -0.0475
  197DOPC   C3824455   3.367   7.151   3.917  0.0993  0.0875  0.9047
  197DOPC   H8X24456   3.257   7.142   3.904  0.3541 -3.6280  0.0794
  197DOPC   H8Y24457   3.395   7.244   3.864  1.0716 -1.4925 -1.5063
  197DOPC   C3924458   3.417   7.167   4.060 -0.3849  0.3884  0.7115
  197DOPC   H9X24459   3.523   7.147   4.080  0.0037  0.8486 -0.7459
  197DOPC  C31024460   3.334   7.201   4.161 -0.1900 -0.0274 -0.0318
  197DOPC  H10X24461   3.379   7.215   4.261 -1.0844  2.4223  0.0930
  197DOPC  C31124462   3.182   7.220   4.152 -1.0064 -0.4849  0.6404
  197DOPC  H11X24463   3.131   7.124   4.178 -3.1531  0.5513  0.5197
  197DOPC  H11Y24464   3.158   7.254   4.049  0.8293  2.3762  1.0530
  197DOPC  C31224465   3.129   7.336   4.241  0.2169  0.4947 -0.0057
  197DOPC  H12X24466   3.025   7.362   4.211  0.5946  0.6374 -1.2283
  197DOPC  H12Y24467   3.197   7.421   4.225  0.0458  1.1021  2.1447
  197DOPC  C31324468   3.124   7.304   4.394  0.5388 -0.3148  0.2601
  197DOPC  H13X24469   3.052   7.221   4.404 -1.5885  1.2046 -1.3721
  197DOPC  H13Y24470   3.230   7.283   4.421  0.0002 -2.7897  0.6397
  197DOPC  C31424471   3.081   7.419   4.488  0.5754  0.9759 -0.3063
  197DOPC  H14X24472   3.171   7.483   4.502  1.4907  0.1867 -2.2547
  197DOPC  H14Y24473   3.003   7.472   4.431 -0.0763  0.2005 -0.1528
  197DOPC  C31524474   3.039   7.377   4.636  0.2117  0.4747 -0.4848
  197DOPC  H15X24475   2.934   7.342   4.639 -0.4445  2.3564  2.2155
  197DOPC  H15Y24476   3.031   7.472   4.693 -1.2717 -0.6433  1.2503
  197DOPC  C31624477   3.135   7.269   4.699 -0.0678 -0.6637 -0.2250
  197DOPC  H16X24478   3.131   7.178   4.636 -1.6453  0.2934 -1.5976
  197DOPC  H16Y24479   3.242   7.300   4.697 -0.3011  0.1916 -0.0419
  197DOPC  C31724480   3.091   7.237   4.841 -0.7588  0.6224 -0.1455
  197DOPC  H17X24481   3.085   7.322   4.913  4.4087 -0.9872  2.7298
  197DOPC  H17Y24482   2.990   7.196   4.827 -2.2840  4.0950 -0.3970
  197DOPC  C31824483   3.187   7.135   4.919  0.1719  0.0508  0.0334
  197DOPC  H18X24484   3.191   7.036   4.868  1.1792 -0.8734  1.8364
  197DOPC  H18Y24485   3.281   7.193   4.922 -0.6848  1.4621  0.7653
  197DOPC  H18Z24486   3.149   7.124   5.023  0.2483  0.0529  0.0614
  198DOPC     N24487   7.290   6.231   2.630 -0.2091  0.1904  0.0255
  198DOPC   C1224488   7.232   6.121   2.704  0.0156  0.0331  0.7951
  198DOPC  H12A24489   7.251   6.135   2.809 -0.8985  1.6846  0.7795
  198DOPC  H12B24490   7.287   6.032   2.676  0.0315  0.4418 -0.5302
  198DOPC   C1324491   7.241   6.362   2.675 -0.4172  0.4562  0.0926
  198DOPC  H13A24492   7.298   6.387   2.764 -0.2705  2.9844 -0.6268
  198DOPC  H13B24493   7.264   6.439   2.603 -3.4012  3.9979  2.5363
  198DOPC  H13C24494   7.142   6.377   2.714 -0.5992 -0.6118  0.0602
  198DOPC   C1424495   7.266   6.214   2.487  0.6729 -0.2364  0.3518
  198DOPC  H14A24496   7.167   6.250   2.464  1.3791  1.8583  0.3254
  198DOPC  H14B24497   7.329   6.269   2.418  0.1076 -0.2434 -0.1740
  198DOPC  H14C24498   7.272   6.110   2.458  1.1356  0.0928 -0.8277
  198DOPC   C1524499   7.444   6.242   2.636 -0.1425  0.2152  0.3811
  198DOPC  H15A24500   7.485   6.150   2.596  2.5728  1.4179  0.1788
  198DOPC  H15B24501   7.482   6.235   2.737  0.3097 -0.7938  0.1596
  198DOPC  H15C24502   7.482   6.331   2.589 -0.8474  0.5921  0.5083
  198DOPC   C1124503   7.082   6.100   2.690  0.8400  0.5377  0.4063
  198DOPC  H11A24504   7.049   6.094   2.584 -0.2545 -1.1933  0.8029
  198DOPC  H11B24505   7.059   5.999   2.731 -0.6609  0.3174 -0.8900
  198DOPC     P24506   6.965   6.211   2.902 -0.0891  0.4321  0.2177
  198DOPC   O1324507   6.845   6.123   2.926 -0.5212  0.2155  0.7219
  198DOPC   O1424508   6.962   6.351   2.945 -0.2239  0.5495  0.1250
  198DOPC   O1224509   7.012   6.204   2.749  0.4164 -0.1175  0.1745
  198DOPC   O1124510   7.081   6.144   2.986  0.2136  0.3844 -0.0236
  198DOPC    C124511   7.071   6.019   3.059 -1.1094  0.3649 -0.4341
  198DOPC    HA24512   7.157   5.951   3.043 -0.8293  0.5068  0.4651
  198DOPC    HB24513   6.982   5.958   3.034  0.1512 -1.9328  0.3795
  198DOPC    C224514   7.054   6.044   3.215  0.2707 -0.5281  0.0887
  198DOPC    HS24515   6.971   6.116   3.236 -2.2617 -2.4070 -2.5632
  198DOPC   O2124516   7.190   6.089   3.258 -0.0411  0.0265  0.0923
  198DOPC   C2124517   7.190   6.174   3.361 -0.3049  0.4945  0.4714
  198DOPC   O2224518   7.091   6.235   3.395 -0.3314  0.0745  0.2943
  198DOPC   C2224519   7.327   6.169   3.441  0.7228  0.3174 -0.1144
  198DOPC   H2R24520   7.316   6.272   3.481 -0.6623 -0.0287  0.4781
  198DOPC   H2S24521   7.407   6.155   3.366  0.3110 -2.7695 -0.1046
  198DOPC    C324522   7.020   5.911   3.294 -0.1475 -0.2471  0.1245
  198DOPC    HX24523   7.110   5.846   3.291  0.1226  0.0501  1.2103
  198DOPC    HY24524   6.941   5.853   3.242  2.7847 -2.7311 -1.8846
  198DOPC   O3124525   6.988   5.945   3.433  0.4771  0.1565 -0.0128
  198DOPC   C3124526   6.873   5.897   3.485 -0.1333  0.0553 -0.0190
  198DOPC   O3224527   6.799   5.816   3.430  0.4762  0.3168 -0.3734
  198DOPC   C3224528   6.846   5.955   3.627 -0.3226  0.1467 -0.0527
  198DOPC   H2X24529   6.914   5.895   3.693 -1.2621 -1.1039 -0.1759
  198DOPC   H2Y24530   6.885   6.058   3.621 -1.6666  0.6112 -1.2295
  198DOPC   C2324531   7.321   6.060   3.549  0.2011 -0.1134  0.3900
  198DOPC   H3R24532   7.424   6.038   3.584  0.0410 -2.6232 -0.5147
  198DOPC   H3S24533   7.285   5.963   3.509 -0.8666  0.8820 -1.2047
  198DOPC   C2424534   7.221   6.089   3.664 -0.2689  0.2117  0.3399
  198DOPC   H4R24535   7.241   5.995   3.721  1.1505  0.0263 -0.4235
  198DOPC   H4S24536   7.116   6.078   3.629  0.4357  0.6644 -2.0736
  198DOPC   C2524537   7.256   6.204   3.760 -0.1614  0.0245  0.3165
  198DOPC   H5R24538   7.248   6.303   3.711 -1.3852  0.9180  2.2227
  198DOPC   H5S24539   7.358   6.185   3.801  0.7163  0.9000 -1.3466
  198DOPC   C2624540   7.146   6.202   3.863  0.6333 -0.1597 -0.2908
  198DOPC   H6R24541   7.192   6.251   3.952  2.4702 -1.0734 -0.6789
  198DOPC   H6S24542   7.141   6.098   3.901 -0.4956 -0.0949 -0.2373
  198DOPC   C2724543   7.009   6.272   3.829  0.5585 -0.4456 -0.1546
  198DOPC   H7R24544   6.973   6.219   3.739 -0.0350  1.5842 -1.1695
  198DOPC   H7S24545   7.027   6.377   3.797 -3.3920 -0.0034 -1.4107
  198DOPC   C2824546   6.914   6.282   3.947 -0.1354  0.2434  0.1679
  198DOPC   H8R24547   6.883   6.176   3.960  1.7519 -0.7216 -2.3078
  198DOPC   H8S24548   6.829   6.346   3.917 -0.9384 -0.8803 -0.0414
  198DOPC   C2924549   6.972   6.345   4.061  0.7133 -0.3471 -0.0543
  198DOPC   H9R24550   7.001   6.450   4.047  1.4018 -0.3645  1.1260
  198DOPC  C21024551   6.998   6.298   4.180  0.3582  0.2036  0.0299
  198DOPC  H10R24552   7.020   6.367   4.262  1.6880 -1.1213  0.8446
  198DOPC  C21124553   6.974   6.159   4.235 -0.4063  0.1862 -0.2700
  198DOPC  H11R24554   7.074   6.113   4.248 -0.3060  0.7465  1.1030
  198DOPC  H11S24555   6.908   6.096   4.170  0.7905 -0.7728 -0.5991
  198DOPC  C21224556   6.944   6.171   4.385  0.6176  0.0719 -0.1120
  198DOPC  H12R24557   6.847   6.225   4.395  0.7234  0.8838 -2.7530
  198DOPC  H12S24558   7.024   6.224   4.441 -0.2139  0.2820  0.9053
  198DOPC  C21324559   6.931   6.031   4.457 -0.0632 -0.3788 -0.1920
  198DOPC  H13R24560   7.016   5.963   4.440  0.2830  0.0362 -0.1324
  198DOPC  H13S24561   6.842   5.989   4.406 -0.7669  1.0652 -0.2070
  198DOPC  C21424562   6.901   6.034   4.607 -0.3409 -0.3685 -0.0449
  198DOPC  H14R24563   6.813   6.098   4.628 -0.4892  0.2822 -2.3201
  198DOPC  H14S24564   6.996   6.070   4.652 -0.5206 -2.0939  1.8310
  198DOPC  C21524565   6.878   5.896   4.673  0.3876  0.2837  0.6713
  198DOPC  H15R24566   6.944   5.819   4.627  1.1806  0.8602  0.8250
  198DOPC  H15S24567   6.773   5.864   4.654  0.9430  0.0306 -2.4228
  198DOPC  C21624568   6.915   5.884   4.821  0.9215 -0.9541  0.9032
  198DOPC  H16R24569   6.858   5.958   4.881 -0.7070 -1.2264 -0.2330
  198DOPC  H16S24570   7.024   5.905   4.826  0.7223  2.0726 -2.7118
  198DOPC  C21724571   6.892   5.742   4.883 -0.2207 -0.5553  0.0437
  198DOPC  H17R24572   6.924   5.752   4.989  0.4544  1.3146 -0.2985
  198DOPC  H17S24573   6.964   5.679   4.828  1.5756  0.5141  1.0944
  198DOPC  C21824574   6.751   5.702   4.873  0.1817 -0.1080 -0.4761
  198DOPC  H18R24575   6.733   5.609   4.931 -0.4652  0.7637  0.7707
  198DOPC  H18S24576   6.730   5.673   4.767 -1.2014 -0.6966 -0.0664
  198DOPC  H18T24577   6.678   5.784   4.892 -0.0533 -0.8718  2.2735
  198DOPC   C3324578   6.700   5.955   3.666 -0.3005  0.1802 -0.1217
  198DOPC   H3X24579   6.650   5.857   3.676  0.4811 -0.0903  1.6222
  198DOPC   H3Y24580   6.652   6.014   3.585  1.3543 -0.6891 -1.7944
  198DOPC   C3424581   6.692   6.025   3.807  0.3779  0.4091  0.1079
  198DOPC   H4X24582   6.731   6.128   3.797 -0.6427  0.9621  1.5486
  198DOPC   H4Y24583   6.744   5.962   3.882 -1.5417 -1.8923 -0.3418
  198DOPC   C3524584   6.540   6.038   3.853  0.0830  0.2686  0.0178
  198DOPC   H5X24585   6.502   5.936   3.875  2.6285 -0.2971  2.4951
  198DOPC   H5Y24586   6.479   6.087   3.775  1.1819 -1.4500 -2.0092
  198DOPC   C3624587   6.538   6.124   3.979  0.4881 -0.3389 -0.2801
  198DOPC   H6X24588   6.571   6.230   3.966 -1.0938  0.2016 -0.1531
  198DOPC   H6Y24589   6.435   6.131   4.020  1.6674 -0.2310  3.0016
  198DOPC   C3724590   6.618   6.063   4.099  0.2703  0.1943 -0.0419
  198DOPC   H7X24591   6.598   5.954   4.109  0.7476  0.0045 -1.0605
  198DOPC   H7Y24592   6.723   6.085   4.070  0.6249 -0.5521  0.6584
  198DOPC   C3824593   6.584   6.131   4.232  0.5038  0.3893 -0.2975
  198DOPC   H8X24594   6.642   6.087   4.316 -1.7449 -0.5318  0.8601
  198DOPC   H8Y24595   6.477   6.120   4.260  0.0532  2.1734 -1.1754
  198DOPC   C3924596   6.621   6.272   4.243 -0.1323 -0.5772 -0.5308
  198DOPC   H9X24597   6.686   6.317   4.167  2.1093  0.9202  2.1102
  198DOPC  C31024598   6.579   6.352   4.343 -0.2498 -0.6766 -0.2466
  198DOPC  H10X24599   6.616   6.456   4.342  1.8090 -1.3162  1.4955
  198DOPC  C31124600   6.500   6.318   4.467 -0.7758 -0.0014  0.1606
  198DOPC  H11X24601   6.481   6.208   4.472  1.5459 -0.5023 -0.3863
  198DOPC  H11Y24602   6.400   6.364   4.461 -1.1020 -0.8093 -0.8621
  198DOPC  C31224603   6.570   6.378   4.588  0.1210  0.0217 -0.2260
  198DOPC  H12X24604   6.575   6.488   4.600  0.1637 -0.1506  1.7280
  198DOPC  H12Y24605   6.671   6.332   4.578  0.5577  0.1571  2.7258
  198DOPC  C31324606   6.505   6.338   4.727 -0.0664 -0.8308 -0.4406
  198DOPC  H13X24607   6.528   6.232   4.749  4.6715 -0.1011 -0.7807
  198DOPC  H13Y24608   6.553   6.394   4.810 -2.2590 -0.4409  0.6359
  198DOPC  C31424609   6.353   6.378   4.739  0.1616 -0.1576 -0.4434
  198DOPC  H14X24610   6.329   6.479   4.702  0.2725  0.2614  0.5917
  198DOPC  H14Y24611   6.298   6.309   4.671 -1.0360  0.6841 -0.3548
  198DOPC  C31524612   6.297   6.352   4.879  0.5918 -0.3904  0.0863
  198DOPC  H15X24613   6.324   6.248   4.906 -0.2310 -0.5555  0.3033
  198DOPC  H15Y24614   6.186   6.365   4.881  0.6749  0.2731  1.8271
  198DOPC  C31624615   6.350   6.449   4.991  0.3036 -0.1530  0.1488
  198DOPC  H16X24616   6.282   6.447   5.078  0.5261 -2.8232  0.3666
  198DOPC  H16Y24617   6.451   6.414   5.022  0.8578  0.8769 -0.4584
  198DOPC  C31724618   6.361   6.594   4.942  0.3234  0.1918 -0.9355
  198DOPC  H17X24619   6.443   6.602   4.867  1.5353 -2.2381  0.0350
  198DOPC  H17Y24620   6.268   6.634   4.894 -1.7040 -1.0840  1.6896
  198DOPC  C31824621   6.404   6.685   5.057  0.7919  0.3355 -0.4193
  198DOPC  H18X24622   6.488   6.631   5.106 -2.0507 -1.8833  2.4465
  198DOPC  H18Y24623   6.429   6.785   5.016  1.7994  1.0437  1.7374
  198DOPC  H18Z24624   6.322   6.687   5.132 -0.2217 -0.1306 -1.4864
  199DOPC     N24625   0.084   0.390   2.694 -0.1981  0.2316  0.5331
  199DOPC   C1224626  -0.000   0.339   2.811  0.3878  0.6318  0.2527
  199DOPC  H12A24627   0.051   0.253   2.851  0.9261  0.8618  0.0588
  199DOPC  H12B24628  -0.095   0.305   2.772  1.0513 -2.6358  1.1678
  199DOPC   C1324629   0.213   0.450   2.748  0.4378 -0.1352  0.4734
  199DOPC  H13A24630   0.191   0.513   2.833 -3.6339 -0.4954 -0.1023
  199DOPC  H13B24631   0.279   0.372   2.783 -0.9956 -1.0630  1.1787
  199DOPC  H13C24632   0.267   0.504   2.671 -0.2875  1.0806  0.7933
  199DOPC   C1424633   0.004   0.498   2.634  0.0962  0.3782 -0.4156
  199DOPC  H14A24634  -0.032   0.565   2.711 -1.1375 -1.8052  1.0210
  199DOPC  H14B24635   0.065   0.555   2.565  0.2008  0.5082 -0.2154
  199DOPC  H14C24636  -0.073   0.445   2.581  1.0220 -0.6022 -0.8103
  199DOPC   C1524637   0.113   0.278   2.595  0.1452 -0.6990  0.1228
  199DOPC  H15A24638   0.031   0.255   2.528  0.5138 -0.8698 -0.2728
  199DOPC  H15B24639   0.136   0.190   2.653  0.4517 -0.6684  0.0514
  199DOPC  H15C24640   0.198   0.320   2.543  1.1092 -1.4464  1.0701
  199DOPC   C1124641  -0.012   0.428   2.942 -0.3955  0.9212  0.2334
  199DOPC  H11A24642  -0.050   0.526   2.908 -1.0871  0.8831  0.8768
  199DOPC  H11B24643  -0.090   0.393   3.013  0.9637 -0.6225  1.0508
  199DOPC     P24644   0.141   0.312   3.112  0.3347 -0.0665  0.0017
  199DOPC   O1324645   0.280   0.328   3.165  0.3509  0.3891  0.1988
  199DOPC   O1424646   0.099   0.187   3.044 -0.4070  0.1929  0.0338
  199DOPC   O1224647   0.111   0.430   3.007 -0.8124 -0.0107 -0.3517
  199DOPC   O1124648   0.033   0.325   3.231  0.6533  0.0248 -0.4954
  199DOPC    C124649  -0.014   0.218   3.313 -0.3647 -0.1631  0.0537
  199DOPC    HA24650   0.022   0.234   3.417  2.4858 -0.0683 -0.8450
  199DOPC    HB24651   0.044   0.132   3.272  1.0788  0.1847  1.2605
  199DOPC    C224652  -0.162   0.195   3.297  0.6433 -0.3202 -0.6354
  199DOPC    HS24653  -0.185   0.232   3.195 -1.0963 -0.8514 -0.4606
  199DOPC   O2124654  -0.227   0.275   3.397  0.2397 -0.0734  0.2496
  199DOPC   C2124655  -0.343   0.320   3.363 -0.0963 -0.6400  0.2297
  199DOPC   O2224656  -0.403   0.286   3.266  0.0489  0.2326  0.1065
  199DOPC   C2224657  -0.395   0.432   3.454 -0.3274  0.6525  0.6176
  199DOPC   H2R24658  -0.315   0.507   3.470  0.6890 -0.1675 -0.4470
  199DOPC   H2S24659  -0.416   0.373   3.546  0.0409 -1.0957 -0.3724
  199DOPC    C324660  -0.207   0.051   3.325 -0.3745 -0.4399  0.3300
  199DOPC    HX24661  -0.138  -0.013   3.265 -1.0442 -1.3669  0.5317
  199DOPC    HY24662  -0.314   0.029   3.309 -0.4806  0.4947 -0.2932
  199DOPC   O3124663  -0.181   0.012   3.463  0.4264 -0.1985  0.0800
  199DOPC   C3124664  -0.274   0.037   3.552  0.2533 -0.6233  0.5879
  199DOPC   O3224665  -0.381   0.086   3.536  0.0154  0.2565 -0.3423
  199DOPC   C3224666  -0.223  -0.010   3.692 -0.3496  0.3637  0.8767
  199DOPC   H2X24667  -0.182  -0.112   3.676 -0.3500  0.5207 -0.1946
  199DOPC   H2Y24668  -0.151   0.058   3.743 -1.0216  0.9876  1.0124
  199DOPC   C2324669  -0.520   0.511   3.402  0.6280  0.2724 -0.1977
  199DOPC   H3R24670  -0.606   0.442   3.387  2.9319 -2.4129 -2.1498
  199DOPC   H3S24671  -0.503   0.566   3.307 -3.1195  0.7639 -0.7150
  199DOPC   C2424672  -0.580   0.617   3.502  0.2089  0.0460 -0.2575
  199DOPC   H4R24673  -0.647   0.688   3.448  3.0827  2.3840 -1.0045
  199DOPC   H4S24674  -0.504   0.690   3.539 -0.1810  0.3428 -0.0367
  199DOPC   C2524675  -0.635   0.564   3.630 -0.3391 -0.5346 -1.1464
  199DOPC   H5R24676  -0.541   0.523   3.674 -1.1944  0.1756  1.5461
  199DOPC   H5S24677  -0.718   0.491   3.618  0.1106 -1.0875 -0.9385
  199DOPC   C2624678  -0.685   0.673   3.726 -0.2459 -0.0740 -0.0318
  199DOPC   H6R24679  -0.786   0.709   3.697 -0.5421 -0.0262  1.0192
  199DOPC   H6S24680  -0.617   0.761   3.729 -1.5588  0.9633  0.3670
  199DOPC   C2724681  -0.696   0.628   3.872 -0.4990 -0.1235  0.0979
  199DOPC   H7R24682  -0.604   0.576   3.905 -0.3991 -0.0847 -0.1174
  199DOPC   H7S24683  -0.773   0.548   3.865  1.0101 -1.6942  0.6825
  199DOPC   C2824684  -0.735   0.734   3.978  0.6075  0.4293 -0.1457
  199DOPC   H8R24685  -0.825   0.795   3.956  0.9738  1.5123  1.2456
  199DOPC   H8S24686  -0.655   0.811   3.984  1.4972 -0.4407 -0.4327
  199DOPC   C2924687  -0.738   0.668   4.113  1.1723  0.0967  0.1220
  199DOPC   H9R24688  -0.803   0.580   4.115 -1.2932  1.8372  1.0481
  199DOPC  C21024689  -0.686   0.719   4.226  0.5403  0.2210 -0.2209
  199DOPC  H10R24690  -0.686   0.665   4.322  0.4900  0.7829  0.0971
  199DOPC  C21124691  -0.608   0.846   4.231 -0.1001 -0.0419 -0.3923
  199DOPC  H11R24692  -0.613   0.893   4.331  1.1919 -0.5733 -0.0553
  199DOPC  H11S24693  -0.650   0.923   4.164 -0.7611  1.2777  1.4614
  199DOPC  C21224694  -0.457   0.829   4.200  0.3902  0.2342 -0.7081
  199DOPC  H12R24695  -0.442   0.773   4.106  0.0307  0.2371 -0.7671
  199DOPC  H12S24696  -0.412   0.777   4.288  1.6475  3.3815  0.6767
  199DOPC  C21324697  -0.382   0.962   4.184 -0.7153 -0.2850 -0.7206
  199DOPC  H13R24698  -0.381   1.029   4.273  1.4244 -1.0110 -0.1302
  199DOPC  H13S24699  -0.439   1.017   4.107  0.0903  0.2889 -0.9188
  199DOPC  C21424700  -0.231   0.945   4.131  1.1769 -0.0939 -0.0415
  199DOPC  H14R24701  -0.230   0.995   4.032  1.2572  0.9110  0.4429
  199DOPC  H14S24702  -0.218   0.837   4.110  0.9899 -0.5130  1.8247
  199DOPC  C21524703  -0.119   0.974   4.231  0.0313 -0.3059 -0.2490
  199DOPC  H15R24704  -0.114   0.914   4.324  2.3272  1.2819  0.7528
  199DOPC  H15S24705  -0.144   1.080   4.253 -0.9032 -0.4333 -0.6786
  199DOPC  C21624706   0.025   0.987   4.178 -0.2474  0.3143 -0.3915
  199DOPC  H16R24707   0.081   0.891   4.176  0.3309  0.5879  0.9223
  199DOPC  H16S24708   0.083   1.051   4.248 -2.4611  1.9027  0.1135
  199DOPC  C21724709   0.043   1.046   4.029 -0.1751  0.3596 -0.3547
  199DOPC  H17R24710  -0.014   1.141   4.023 -2.6743 -0.8797  1.5063
  199DOPC  H17S24711   0.002   0.969   3.960  1.0131 -1.1594  0.5590
  199DOPC  C21824712   0.186   1.074   3.994  0.6917  0.1307 -0.4795
  199DOPC  H18R24713   0.237   1.141   4.067 -0.5363  1.5996 -0.9172
  199DOPC  H18S24714   0.191   1.128   3.897  2.0735  2.6531  0.8780
  199DOPC  H18T24715   0.244   0.980   3.988 -2.8467 -2.2125 -0.7718
  199DOPC   C3324716  -0.339  -0.017   3.789 -0.4965  0.7211  0.6087
  199DOPC   H3X24717  -0.420  -0.085   3.755 -0.0127  0.5582 -0.2375
  199DOPC   H3Y24718  -0.393   0.080   3.793 -1.3048  0.3479 -0.5658
  199DOPC   C3424719  -0.302  -0.057   3.932  0.5871  0.0881  0.0553
  199DOPC   H4X24720  -0.230   0.014   3.979  0.2230  0.0643  0.6603
  199DOPC   H4Y24721  -0.244  -0.151   3.919 -0.4735 -0.8954  2.0344
  199DOPC   C3524722  -0.427  -0.063   4.026 -0.3532 -0.0907 -0.0717
  199DOPC   H5X24723  -0.516  -0.109   3.978 -1.2862 -1.2034  2.5691
  199DOPC   H5Y24724  -0.456   0.042   4.047  1.2149  0.6273 -1.2520
  199DOPC   C3624725  -0.389  -0.141   4.151  0.2746  0.0706 -0.3184
  199DOPC   H6X24726  -0.359  -0.243   4.120 -2.6281 -0.1299 -3.0179
  199DOPC   H6Y24727  -0.297  -0.100   4.198  0.6210 -1.6682  0.6194
  199DOPC   C3724728  -0.492  -0.164   4.254  0.1247  0.1432  0.3145
  199DOPC   H7X24729  -0.537  -0.068   4.287  1.5050  1.4654 -1.4893
  199DOPC   H7Y24730  -0.584  -0.219   4.223  1.0305 -1.3490  0.1811
  199DOPC   C3824731  -0.433  -0.245   4.367  0.2327  0.3469 -0.7348
  199DOPC   H8X24732  -0.347  -0.186   4.405  0.3735  0.8578 -1.8103
  199DOPC   H8Y24733  -0.398  -0.342   4.326 -1.1558 -1.3997  1.8765
  199DOPC   C3924734  -0.535  -0.271   4.475  0.5193 -0.0545  0.3562
  199DOPC   H9X24735  -0.633  -0.235   4.442  0.4188 -2.0945 -1.7612
  199DOPC  C31024736  -0.529  -0.345   4.590  0.3367  0.9083  0.2780
  199DOPC  H10X24737  -0.621  -0.361   4.649  1.6748 -3.1443  1.5725
  199DOPC  C31124738  -0.411  -0.422   4.635 -0.4283  0.3804 -0.2817
  199DOPC  H11X24739  -0.380  -0.388   4.736 -3.3711  2.5521  0.0140
  199DOPC  H11Y24740  -0.323  -0.405   4.569  0.4801  0.3288  0.8831
  199DOPC  C31224741  -0.438  -0.568   4.653 -0.7295 -0.2503 -0.2100
  199DOPC  H12X24742  -0.462  -0.616   4.555  0.4928 -1.6178  0.1288
  199DOPC  H12Y24743  -0.530  -0.577   4.715  0.0670  1.4241  1.2928
  199DOPC  C31324744  -0.326  -0.654   4.724 -0.7996 -0.6242 -0.1681
  199DOPC  H13X24745  -0.328  -0.623   4.831  2.9707 -0.4260  0.0056
  199DOPC  H13Y24746  -0.368  -0.756   4.719  0.4507 -1.4610  3.4909
  199DOPC  C31424747  -0.179  -0.637   4.685  0.8603 -0.6533  0.8313
  199DOPC  H14X24748  -0.165  -0.648   4.575  2.3468 -0.0505  0.9388
  199DOPC  H14Y24749  -0.151  -0.531   4.705  0.5061 -0.3341 -0.3183
  199DOPC  C31524750  -0.090  -0.726   4.759 -0.5922 -0.5879 -0.1591
  199DOPC  H15X24751  -0.107  -0.835   4.750  0.6909 -0.8248  0.1501
  199DOPC  H15Y24752  -0.111  -0.710   4.866 -0.0350  1.8741 -0.3548
  199DOPC  C31624753   0.059  -0.682   4.732 -0.1980  0.3098 -0.3036
  199DOPC  H16X24754   0.066  -0.573   4.752  2.6126 -0.1294  1.7633
  199DOPC  H16Y24755   0.124  -0.744   4.797 -1.9196  0.0413  1.2487
  199DOPC  C31724756   0.108  -0.702   4.587  0.3486 -0.0512 -0.2701
  199DOPC  H17X24757   0.056  -0.624   4.526  0.8811  0.8586  0.4250
  199DOPC  H17Y24758   0.217  -0.684   4.583  0.7374 -1.5235  2.0032
  199DOPC  C31824759   0.096  -0.843   4.518  0.9382 -0.7360 -0.6382
  199DOPC  H18X24760   0.116  -0.821   4.411  1.0704 -0.1671 -0.4997
  199DOPC  H18Y24761   0.174  -0.912   4.557  0.3215 -0.4809  1.1292
  199DOPC  H18Z24762  -0.005  -0.889   4.523 -0.6825  2.6727  0.8612
  200DOPC     N24763   2.722   7.292   2.862 -0.0967 -0.2539  0.7273
  200DOPC   C1224764   2.741   7.205   2.985  0.0739 -0.4907  0.1045
  200DOPC  H12A24765   2.788   7.270   3.058 -0.2560  0.9449 -0.9090
  200DOPC  H12B24766   2.814   7.129   2.961 -0.4115 -0.8317 -0.3174
  200DOPC   C1324767   2.853   7.322   2.801 -1.0621  0.1897 -0.4793
  200DOPC  H13A24768   2.914   7.233   2.801 -3.7033 -1.8302  2.1917
  200DOPC  H13B24769   2.867   7.366   2.704  3.0738  0.6955  0.1384
  200DOPC  H13C24770   2.914   7.375   2.873 -1.6150  1.0500 -0.6308
  200DOPC   C1424771   2.662   7.430   2.894 -0.6482  0.1260  0.0025
  200DOPC  H14A24772   2.628   7.482   2.806 -0.8114  0.9418  0.5376
  200DOPC  H14B24773   2.573   7.421   2.954 -1.4481 -0.9401 -1.2727
  200DOPC  H14C24774   2.727   7.486   2.960  0.0984 -2.3169  1.4868
  200DOPC   C1524775   2.638   7.220   2.759  0.2694 -0.0494  0.2637
  200DOPC  H15A24776   2.690   7.133   2.722 -2.4249 -2.9433  2.7577
  200DOPC  H15B24777   2.624   7.291   2.679 -0.7566 -1.5785 -0.9582
  200DOPC  H15C24778   2.545   7.181   2.796  0.7737 -0.1128  1.5415
  200DOPC   C1124779   2.614   7.155   3.061 -0.5422  0.8116 -0.0377
  200DOPC  H11A24780   2.635   7.104   3.158 -0.8439 -0.5145 -0.6413
  200DOPC  H11B24781   2.570   7.253   3.088 -1.4748  0.1195  1.0387
  200DOPC     P24782   2.385   7.034   3.010 -0.3172  0.0220 -0.0436
  200DOPC   O1324783   2.375   6.885   3.025  0.1695 -0.4840  0.3690
  200DOPC   O1424784   2.307   7.109   2.910 -0.4855  0.4001 -0.6486
  200DOPC   O1224785   2.533   7.070   2.984 -0.1473  0.0240 -0.1661
  200DOPC   O1124786   2.373   7.110   3.145  0.2677  0.1382 -0.2085
  200DOPC    C124787   2.324   7.048   3.266 -0.6790 -0.5861  0.3441
  200DOPC    HA24788   2.324   6.938   3.260  2.6667 -0.5955 -2.2256
  200DOPC    HB24789   2.219   7.084   3.279 -0.6123  0.5826 -1.8436
  200DOPC    C224790   2.410   7.094   3.381  0.0870 -0.2240 -0.3673
  200DOPC    HS24791   2.508   7.042   3.377  0.6462  0.5487  1.8520
  200DOPC   O2124792   2.335   7.059   3.497 -0.3505  0.7343  0.7249
  200DOPC   C2124793   2.353   6.938   3.545  0.4720 -0.8227 -0.0250
  200DOPC   O2224794   2.424   6.851   3.504 -0.0831  0.6917 -0.1218
  200DOPC   C2224795   2.277   6.942   3.675  0.8242  0.7531 -0.4208
  200DOPC   H2R24796   2.170   6.950   3.646  0.6650  0.6380  0.1320
  200DOPC   H2S24797   2.310   7.031   3.732 -2.6557  0.6673  2.0580
  200DOPC    C324798   2.456   7.250   3.386  0.3659  0.2005 -0.0224
  200DOPC    HX24799   2.369   7.319   3.391 -0.2646 -0.3482 -2.2450
  200DOPC    HY24800   2.499   7.271   3.286 -0.8393  0.7775 -0.4314
  200DOPC   O3124801   2.563   7.276   3.480 -0.2898  0.3763 -0.0180
  200DOPC   C3124802   2.522   7.325   3.602  0.7379  0.4755  0.0281
  200DOPC   O3224803   2.411   7.377   3.624 -0.4599  0.2912  0.1825
  200DOPC   C3224804   2.633   7.321   3.708 -0.1482 -0.3640  0.1890
  200DOPC   H2X24805   2.683   7.222   3.697  0.3212 -0.0141 -0.9744
  200DOPC   H2Y24806   2.702   7.406   3.690 -1.2610  0.8337  1.3930
  200DOPC   C2324807   2.302   6.809   3.749 -0.5704  0.0030  0.1010
  200DOPC   H3R24808   2.408   6.819   3.782 -0.8451  2.3962  0.4544
  200DOPC   H3S24809   2.303   6.714   3.691  2.8206  0.5291 -0.9274
  200DOPC   C2424810   2.216   6.789   3.875 -0.1792 -0.0482 -0.3331
  200DOPC   H4R24811   2.249   6.695   3.924 -1.1179 -1.1131 -1.6927
  200DOPC   H4S24812   2.109   6.764   3.857  0.3294 -2.9857  0.2214
  200DOPC   C2524813   2.233   6.901   3.980  0.0884  0.3396  0.5923
  200DOPC   H5R24814   2.189   6.992   3.933 -2.4070 -0.9181  0.3261
  200DOPC   H5S24815   2.343   6.916   3.981  0.0763  0.4239  1.5838
  200DOPC   C2624816   2.191   6.881   4.120 -0.2357  0.2368  0.2599
  200DOPC   H6R24817   2.223   6.959   4.192  0.8267  1.0374 -1.0174
  200DOPC   H6S24818   2.236   6.793   4.171 -0.0736 -0.4987 -1.0939
  200DOPC   C2724819   2.038   6.851   4.125 -0.3956 -0.1571  0.2806
  200DOPC   H7R24820   2.021   6.757   4.070  1.7244  1.1025 -2.7773
  200DOPC   H7S24821   1.979   6.927   4.070  1.6798  0.1404 -1.6806
  200DOPC   C2824822   1.992   6.836   4.269 -0.0646 -0.6081  0.7126
  200DOPC   H8R24823   2.038   6.924   4.317 -1.2899  0.9208 -0.7628
  200DOPC   H8S24824   2.038   6.743   4.310  0.9906  0.7500  2.7378
  200DOPC   C2924825   1.841   6.824   4.286  0.0280 -0.2061 -0.1108
  200DOPC   H9R24826   1.784   6.881   4.211 -0.9105  1.4543  1.7799
  200DOPC  C21024827   1.776   6.733   4.364  0.5604  0.2766 -0.0431
  200DOPC  H10R24828   1.667   6.723   4.359  0.4895  0.9712  0.0960
  200DOPC  C21124829   1.835   6.650   4.472  0.1756  0.1052  0.6967
  200DOPC  H11R24830   1.784   6.661   4.570  1.3483  2.1511  1.1317
  200DOPC  H11S24831   1.944   6.668   4.483  0.6250 -2.8118  1.9443
  200DOPC  C21224832   1.811   6.501   4.440  0.2474  0.0073 -0.3810
  200DOPC  H12R24833   1.877   6.433   4.499 -1.8817 -1.2084  0.7318
  200DOPC  H12S24834   1.830   6.485   4.332 -0.1424 -0.3192 -0.4025
  200DOPC  C21324835   1.673   6.445   4.481 -0.2039  0.2731 -0.4484
  200DOPC  H13R24836   1.652   6.364   4.407  0.7161 -0.2228 -0.1813
  200DOPC  H13S24837   1.600   6.526   4.458 -1.5099 -1.1985 -1.7824
  200DOPC  C21424838   1.661   6.408   4.626 -0.3187 -0.4324 -0.3427
  200DOPC  H14R24839   1.718   6.472   4.697 -2.4685 -0.5211  1.5761
  200DOPC  H14S24840   1.705   6.308   4.640  0.9589  0.2498  0.7337
  200DOPC  C21524841   1.521   6.394   4.681 -0.1854  0.1020  0.4976
  200DOPC  H15R24842   1.470   6.328   4.607  1.0523  0.5333 -0.7722
  200DOPC  H15S24843   1.478   6.496   4.683  0.3590  0.4133 -1.4173
  200DOPC  C21624844   1.512   6.322   4.815  0.3904 -0.0883  0.6917
  200DOPC  H16R24845   1.418   6.343   4.871 -0.2529  1.1187 -0.7606
  200DOPC  H16S24846   1.592   6.367   4.878  0.9484  0.9466 -0.7122
  200DOPC  C21724847   1.560   6.174   4.812  0.5469  0.1823  0.0317
  200DOPC  H17R24848   1.669   6.158   4.800  0.1553 -3.0568  0.0009
  200DOPC  H17S24849   1.507   6.129   4.726 -1.4378 -0.0945  1.3310
  200DOPC  C21824850   1.531   6.093   4.936  0.0309  0.5659 -0.5014
  200DOPC  H18R24851   1.420   6.081   4.942  0.2749 -1.2178  1.2561
  200DOPC  H18S24852   1.570   6.142   5.028 -1.2029  0.1599  0.2660
  200DOPC  H18T24853   1.573   5.990   4.935  1.4045  1.0264  1.9855
  200DOPC   C3324854   2.578   7.338   3.853  0.0734 -0.1727 -0.0112
  200DOPC   H3X24855   2.511   7.426   3.853  1.0247  0.6063 -1.6626
  200DOPC   H3Y24856   2.663   7.357   3.922 -0.1868 -0.7684  0.4793
  200DOPC   C3424857   2.510   7.214   3.903 -0.4577 -0.1059 -0.8252
  200DOPC   H4X24858   2.568   7.121   3.887  1.3145  0.2872  2.4434
  200DOPC   H4Y24859   2.418   7.202   3.842  0.2726  1.2331 -2.2685
  200DOPC   C3524860   2.467   7.223   4.059 -0.3546  0.3316  0.5385
  200DOPC   H5X24861   2.379   7.154   4.059 -0.8097  0.7398 -2.8663
  200DOPC   H5Y24862   2.444   7.323   4.101 -2.9952  0.3635 -0.7351
  200DOPC   C3624863   2.566   7.157   4.161 -0.1832 -0.3302 -0.1411
  200DOPC   H6X24864   2.514   7.142   4.258 -0.1438  2.6165  0.4252
  200DOPC   H6Y24865   2.597   7.060   4.118 -2.0740 -0.6143 -0.9646
  200DOPC   C3724866   2.691   7.249   4.190 -0.5678 -0.6210  0.3802
  200DOPC   H7X24867   2.756   7.268   4.102 -0.6073 -0.8099  0.3103
  200DOPC   H7Y24868   2.652   7.350   4.218 -0.6545 -0.3643 -0.6213
  200DOPC   C3824869   2.769   7.203   4.313 -0.0458 -0.8397 -0.0020
  200DOPC   H8X24870   2.705   7.217   4.403  1.8114 -2.8997  1.7364
  200DOPC   H8Y24871   2.845   7.283   4.328 -2.6904  1.6825  0.8492
  200DOPC   C3924872   2.832   7.069   4.301  0.5298  0.6500  0.7175
  200DOPC   H9X24873   2.857   7.033   4.200  2.0531  0.0344  1.2871
  200DOPC  C31024874   2.859   6.993   4.409  0.3661 -0.2597 -0.1498
  200DOPC  H10X24875   2.909   6.896   4.393  0.5732 -0.0265 -0.9344
  200DOPC  C31124876   2.845   7.033   4.556 -0.2183  0.2905  0.0151
  200DOPC  H11X24877   2.784   7.122   4.580  0.0803  0.4465  0.2026
  200DOPC  H11Y24878   2.945   7.065   4.594 -0.8483  0.8836  1.2039
  200DOPC  C31224879   2.779   6.914   4.637 -1.1625 -0.0973  0.5514
  200DOPC  H12X24880   2.812   6.814   4.600 -2.0290 -0.2880  0.2689
  200DOPC  H12Y24881   2.670   6.927   4.617 -1.1659  0.4003  0.8800
  200DOPC  C31324882   2.801   6.918   4.790  0.4803 -0.9542  0.1467
  200DOPC  H13X24883   2.819   7.023   4.822  1.6881 -1.5271  1.4809
  200DOPC  H13Y24884   2.713   6.871   4.840  0.9277 -0.3669  1.5560
  200DOPC  C31424885   2.915   6.831   4.844 -0.4724  0.1320 -0.5642
  200DOPC  H14X24886   2.926   6.740   4.780 -0.2674 -0.3731  0.1771
  200DOPC  H14Y24887   3.018   6.873   4.844 -0.7733  0.9291 -2.1433
  200DOPC  C31524888   2.885   6.767   4.982  0.0116  0.2322  0.1991
  200DOPC  H15X24889   2.957   6.687   5.008  0.8503  0.9758  0.2223
  200DOPC  H15Y24890   2.785   6.718   4.981 -0.3356  0.9428 -0.8913
  200DOPC  C31624891   2.883   6.886   5.089 -0.3311  0.9790  0.3828
  200DOPC  H16X24892   2.974   6.942   5.063 -1.0516  2.6483  1.2961
  200DOPC  H16Y24893   2.792   6.947   5.073 -2.5969 -1.7564  1.7886
  200DOPC  C31724894   2.897   6.831   5.232 -0.4109  0.2738 -0.4546
  200DOPC  H17X24895   2.974   6.751   5.229 -0.6774 -0.1834  2.3137
  200DOPC  H17Y24896   2.932   6.914   5.298 -0.2711 -0.2084  0.0850
  200DOPC  C31824897   2.765   6.790   5.291  0.3220  0.3682 -0.3431
  200DOPC  H18X24898   2.687   6.869   5.284 -0.5186 -0.3531  0.5485
  200DOPC  H18Y24899   2.709   6.704   5.247  1.9618 -0.8854 -0.0722
  200DOPC  H18Z24900   2.768   6.769   5.400  0.0380  1.2603 -0.1520
  201SOD    SOD24901   5.436   6.874   7.434  0.2325  0.0346  0.2712
  202SOD    SOD24902   6.930   4.550   0.966 -0.4953  0.3552  0.3435
  203SOD    SOD24903   6.224   3.291   7.644 -0.1560  0.5907 -0.0877
  204SOD    SOD24904   0.672   7.040   3.113  0.2240  0.3846 -0.3974
  205SOD    SOD24905   3.158   4.313   7.780 -0.1178  0.3300  0.5401
  206SOD    SOD24906   1.086   5.092   1.222 -0.3691 -0.0207 -0.0245
  207SOD    SOD24907   2.025   2.147   2.448  0.6490 -0.4760 -0.3555
  208SOD    SOD24908   1.147   4.138   9.111 -0.0996  0.3836 -0.1149
  209SOD    SOD24909   0.599   2.413   2.063 -0.1781 -0.0825 -0.0628
  210SOD    SOD24910   4.532   1.331   8.947 -0.1069 -0.0105  0.0714
  211SOD    SOD24911   0.572   5.165   7.171 -0.1419 -0.1083 -0.0860
  212SOD    SOD24912   6.626   4.686   8.793 -0.0103  0.3803 -0.0817
  213SOD    SOD24913   5.349   4.342   0.781 -0.4340  0.1447  0.0515
  214SOD    SOD24914   5.896   5.680   8.915 -0.1935 -0.3605  0.2773
  215SOD    SOD24915   4.617   5.495   7.092  0.4968 -0.0691  0.1829
  216SOD    SOD24916   2.063   5.619   8.664 -0.1367  0.2455 -0.4902
  217SOD    SOD24917   2.806   2.991   2.209  0.0347 -0.0742 -0.1104
  218SOD    SOD24918   0.696   3.354   8.276  0.2154 -0.3434  0.2148
  219SOD    SOD24919   3.637   5.415   7.498  0.0739 -0.0117 -0.2852
  220SOD    SOD24920   6.534   1.978   1.639 -0.3061 -0.1631  0.0199
  221SOD    SOD24921   7.586   6.730   2.177 -0.0026 -0.3508  0.2807
  222SOD    SOD24922   5.295   5.379   6.894  0.2020  0.2351 -0.5671
  223SOD    SOD24923   4.934   6.284   1.927 -0.2961 -0.1691  0.0791
  224SOD    SOD24924   5.643   3.875   2.656  0.4009  0.0893 -0.1751
  225SOD    SOD24925   2.072   0.521   2.407  0.0252  0.2496 -0.3649
  226SOD    SOD24926   0.935   0.557   7.648  0.5548  0.0454 -0.0617
  227CLA    CLA24927   6.839   0.224   1.252 -0.2955 -0.1428 -0.3185
  228CLA    CLA24928   5.960   7.644   2.738  0.4481 -0.0818  0.0256
  229CLA    CLA24929   4.279   5.260   1.330  0.1448 -0.2080  0.4576
  230CLA    CLA24930   2.590   4.356   8.494  0.0881 -0.2506  0.1879
  231CLA    CLA24931   1.697   5.534   6.998  0.1776  0.2341  0.1877
  232CLA    CLA24932   1.957   4.162   8.756 -0.2047  0.4891  0.4623
  233CLA    CLA24933   3.415   1.210   7.701 -0.1565  0.2002 -0.2361
  234CLA    CLA24934   7.570   0.973   7.784 -0.1330  0.0160 -0.1610
  235CLA    CLA24935   4.954   6.946   1.491 -0.1751 -0.0517 -0.4323
  236CLA    CLA24936   6.270   3.599   8.485 -0.0152 -0.2657  0.0969
  237CLA    CLA24937   0.747   1.509   8.852 -0.1642 -0.2099  0.2227
  238CLA    CLA24938   4.099   6.140   1.633 -0.3295  0.2291  0.1556
  239CLA    CLA24939   0.426   5.671   1.728 -0.0426  0.0763  0.2041
  240CLA    CLA24940   0.943   5.381   8.728  0.4903 -0.6099  0.2331
  241CLA    CLA24941   0.239   1.641   1.833 -0.4442 -0.2314  0.1789
  242CLA    CLA24942   6.287   5.645   8.060 -0.5224 -0.2280  0.3395
  243CLA    CLA24943   4.635   4.709   1.682 -0.0139 -0.0854 -0.0537
  244CLA    CLA24944   6.483   4.664   1.628  0.2057 -0.1317 -0.6443
  245CLA    CLA24945   1.360   1.329   1.294 -0.2989  0.5070  0.4325
  246CLA    CLA24946   4.219   3.585   7.498 -0.0645 -0.0031 -0.1352
  247CLA    CLA24947   4.791   1.979   2.133 -0.0105 -0.3637 -0.1879
  248CLA    CLA24948   7.593   4.449   1.944  0.2099 -0.1502 -0.1553
  249CLA    CLA24949   5.341   3.485   2.179 -0.0669 -0.0276  0.0746
  250CLA    CLA24950   5.194   5.610   7.938 -0.0385  0.1436  0.0186
  251CLA    CLA24951   4.789   2.164   8.297 -0.2754  0.3293 -0.4837
  252CLA    CLA24952   1.942   0.062   2.487 -0.1816 -0.3693 -0.0820
  253TIP3   OH224953   0.599   6.646   9.228 -0.8216  0.2823 -0.4546
  253TIP3    H124954   0.629   6.617   9.142 -3.6308  1.4890 -1.9741
  253TIP3    H224955   0.623   6.739   9.232  0.2091 -0.0044  0.5533
  254TIP3   OH224956   6.527   6.743   7.400  0.0957 -0.2632  0.3454
  254TIP3    H124957   6.604   6.694   7.372 -0.8628 -1.6628  0.0695
  254TIP3    H224958   6.528   6.823   7.347  0.3645 -1.1124 -0.9471
  255TIP3   OH224959   2.538   6.124   6.851 -0.2884  0.4713 -0.3319
  255TIP3    H124960   2.513   6.070   6.777  1.6448  0.1557 -0.8019
  255TIP3    H224961   2.631   6.141   6.838 -0.1632  1.3424  1.4349
  256TIP3   OH224962   6.563   5.601   7.007 -0.1628 -0.4009 -0.0991
  256TIP3    H124963   6.571   5.659   6.931  2.4594 -1.3644 -0.6590
  256TIP3    H224964   6.577   5.659   7.082 -0.3094  0.1440 -0.4839
  257TIP3   OH224965   7.060   1.605   8.948  0.4020  0.4533  0.1910
  257TIP3    H124966   7.145   1.561   8.942  1.1408  1.5792  1.7730
  257TIP3    H224967   7.039   1.627   8.857  0.6370 -1.9096 -0.5089
  258TIP3   OH224968   6.932   1.316   7.372 -0.0811  0.4264 -0.0173
  258TIP3    H124969   6.938   1.253   7.444 -0.0947 -0.8636 -1.1009
  258TIP3    H224970   6.849   1.362   7.387 -1.7634 -2.0909 -0.9147
  259TIP3   OH224971   6.406   7.359   8.391  0.1636 -0.0421 -0.0390
  259TIP3    H124972   6.384   7.267   8.381 -2.1495  0.4876 -0.3791
  259TIP3    H224973   6.487   7.359   8.441  0.2051 -2.2421 -0.0092
  260TIP3   OH224974   7.664   2.850   8.012  0.3165 -0.4583  0.6129
  260TIP3    H124975   7.618   2.838   7.929 -2.2833  1.3599  1.6546
  260TIP3    H224976   7.597   2.835   8.079  0.8550  3.1145  2.2110
  261TIP3   OH224977   7.041   3.243   8.129  0.0908 -0.0901 -0.1987
  261TIP3    H124978   7.009   3.332   8.142 -0.8371 -0.7919  3.4037
  261TIP3    H224979   6.969   3.187   8.160  1.9567 -1.9543  1.0197
  262TIP3   OH224980   2.267   5.964   8.997  0.1538  0.7371 -0.1697
  262TIP3    H124981   2.320   5.916   9.062 -2.3090 -1.5758  0.2945
  262TIP3    H224982   2.196   6.003   9.049 -1.1395 -0.0836 -1.2653
  263TIP3   OH224983   5.224   4.258   8.302 -0.4521 -0.0043  0.6247
  263TIP3    H124984   5.216   4.353   8.305  0.2774  0.0546  0.8188
  263TIP3    H224985   5.238   4.232   8.393  1.3349 -0.1005  0.3667
  264TIP3   OH224986   7.417   6.450   8.785 -0.3305 -0.0036  0.1524
  264TIP3    H124987   7.467   6.531   8.773  0.1593 -0.6003 -2.7257
  264TIP3    H224988   7.480   6.388   8.821 -0.2163  0.4156  0.6804
  265TIP3   OH224989   0.259   3.004   7.139 -0.4674 -0.4620  0.0811
  265TIP3    H124990   0.297   3.080   7.183 -1.1257 -1.3055  2.2170
  265TIP3    H224991   0.225   2.949   7.210 -1.8161 -1.7931 -1.5085
  266TIP3   OH224992   2.515   0.686   7.745 -0.0925  0.1137  0.5603
  266TIP3    H124993   2.605   0.682   7.712 -0.0816  0.9491  0.4846
  266TIP3    H224994   2.479   0.599   7.724  0.2908  0.2082 -0.5915
  267TIP3   OH224995   0.113   3.685   8.392 -0.3559 -0.1838 -0.1037
  267TIP3    H124996   0.080   3.659   8.306  0.6291 -1.7007 -0.0783
  267TIP3    H224997   0.155   3.605   8.426 -1.6430  0.0428  2.2560
  268TIP3   OH224998   3.805   5.855   8.830 -0.3654 -0.1401  0.6334
  268TIP3    H124999   3.853   5.872   8.910  0.9102 -1.3428  0.1525
  268TIP3    H225000   3.848   5.909   8.764  0.7862 -1.6551  0.0757
  269TIP3   OH225001   2.376   1.034   7.979 -0.0417  0.6736  0.3864
  269TIP3    H125002   2.401   0.942   7.965  1.2402  1.0638 -0.0244
  269TIP3    H225003   2.348   1.037   8.070 -2.4223 -0.5985 -0.2063
  270TIP3   OH225004   6.677   4.224   7.004  0.1594  0.3905 -0.1821
  270TIP3    H125005   6.605   4.206   6.943 -0.4918  1.6060  0.1893
  270TIP3    H225006   6.635   4.230   7.090  0.8235  0.3205  0.1519
  271TIP3   OH225007   1.134   3.481   8.021 -0.0472  0.1222 -0.1911
  271TIP3    H125008   1.135   3.555   7.960 -1.4860  1.4947  1.3342
  271TIP3    H225009   1.094   3.410   7.971 -0.7194  1.0517 -1.0240
  272TIP3   OH225010   5.986   7.303   8.508  0.3604 -0.4092 -0.0508
  272TIP3    H125011   5.945   7.340   8.586 -1.2678 -1.6015 -0.2713
  272TIP3    H225012   6.026   7.222   8.539 -1.5379 -1.6426 -0.6363
  273TIP3   OH225013   5.005   5.396   8.430  0.2197  0.0664  0.3204
  273TIP3    H125014   4.996   5.310   8.388  0.0442  0.2079  0.0640
  273TIP3    H225015   5.069   5.443   8.376 -0.0116  0.2509  0.2052
  274TIP3   OH225016   6.516   0.377   8.601 -0.5285  0.2998 -0.2168
  274TIP3    H125017   6.603   0.415   8.590 -1.1205  1.7361 -0.2111
  274TIP3    H225018   6.462   0.450   8.631 -1.3412 -0.9910  1.6610
  275TIP3   OH225019   1.556   6.803   8.605  0.5813 -0.6444 -0.4453
  275TIP3    H125020   1.587   6.715   8.626  0.4837 -0.6398 -0.2826
  275TIP3    H225021   1.622   6.838   8.545  0.2422 -1.1120 -1.1168
  276TIP3   OH225022   6.684   2.376   7.730 -0.2181  0.0870  0.1976
  276TIP3    H125023   6.765   2.409   7.770 -0.1868 -0.1187  0.3011
  276TIP3    H225024   6.665   2.439   7.660  0.8029 -0.6403 -0.7619
  277TIP3   OH225025   4.047   5.985   7.162 -0.0705 -0.2228 -0.5443
  277TIP3    H125026   4.059   5.893   7.186  0.1247 -0.5386 -1.7398
  277TIP3    H225027   4.126   6.029   7.194 -0.0420 -0.5285 -0.1964
  278TIP3   OH225028   0.795   6.044   7.339  0.2097  0.2467 -0.3944
  278TIP3    H125029   0.862   6.095   7.384  0.4696 -0.4782  0.0594
  278TIP3    H225030   0.713   6.072   7.379  0.4526 -0.4839  0.6368
  279TIP3   OH225031   5.355   3.624   8.020 -0.2481  0.6261 -0.6614
  279TIP3    H125032   5.446   3.635   7.990 -0.2619 -0.5643 -1.2193
  279TIP3    H225033   5.303   3.676   7.958  0.1839  3.0591  0.9199
  280TIP3   OH225034   7.319   2.382   7.129  0.0486 -0.3352  0.3784
  280TIP3    H125035   7.330   2.327   7.207  0.0368  1.9929  2.1370
  280TIP3    H225036   7.409   2.397   7.098  0.2587  0.7674  1.4802
  281TIP3   OH225037   2.736   7.152   9.239  0.4731  0.5968  0.2058
  281TIP3    H125038   2.818   7.109   9.263 -0.5688 -2.6708 -1.5519
  281TIP3    H225039   2.695   7.175   9.323  1.3895 -1.3799  1.2487
  282TIP3   OH225040   7.220   6.616   7.283 -0.0226 -0.6000  0.1608
  282TIP3    H125041   7.313   6.601   7.269 -0.4288 -0.8501 -2.6862
  282TIP3    H225042   7.184   6.633   7.196 -2.2186  2.1159  1.4317
  283TIP3   OH225043   6.533   2.959   7.650  0.2025  0.1968 -0.1241
  283TIP3    H125044   6.502   2.868   7.647 -0.0348  0.2807 -0.3052
  283TIP3    H225045   6.504   2.991   7.736 -0.7480  0.4506 -0.5177
  284TIP3   OH225046   7.192   5.889   0.867 -0.3064 -0.2874  0.6567
  284TIP3    H125047   7.269   5.871   0.813 -0.0014 -1.2047  1.3618
  284TIP3    H225048   7.210   5.974   0.908  0.0203 -0.1751  0.2832
  285TIP3   OH225049   2.311   4.631   1.153 -0.1000 -0.4008  0.7417
  285TIP3    H125050   2.259   4.573   1.096  0.3733  1.3507 -1.6397
  285TIP3    H225051   2.247   4.694   1.186 -0.2599 -1.0295  1.6583
  286TIP3   OH225052   3.673   2.982   1.580 -0.1551 -0.5863 -0.8437
  286TIP3    H125053   3.725   2.964   1.502  0.1943 -0.4420 -0.6423
  286TIP3    H225054   3.735   2.979   1.653 -0.5864 -1.3896 -0.4857
  287TIP3   OH225055   7.481   1.511   0.757 -0.1473  0.1790 -0.7856
  287TIP3    H125056   7.532   1.451   0.701  0.2941 -0.8143  0.6241
  287TIP3    H225057   7.520   1.501   0.844 -0.6824  1.8480 -0.3295
  288TIP3   OH225058   7.222   0.467   1.527  0.1259 -0.1095  0.0957
  288TIP3    H125059   7.310   0.476   1.491 -0.0817  1.5593 -0.0712
  288TIP3    H225060   7.165   0.471   1.450 -0.1283 -0.4947  0.2639
  289TIP3   OH225061   6.663   0.435   1.583 -0.1761 -0.3955 -0.0255
  289TIP3    H125062   6.743   0.465   1.627 -1.0031  0.0659  1.1922
  289TIP3    H225063   6.691   0.357   1.535  1.5218  1.0375 -1.4991
  290TIP3   OH225064   5.949   2.271   1.651  0.1840  0.1046  0.4552
  290TIP3    H125065   5.925   2.344   1.707 -0.9238 -1.0715  1.5972
  290TIP3    H225066   5.866   2.229   1.629  0.6787 -0.0736 -1.2634
  291TIP3   OH225067   4.726   1.246   1.263  0.2483  0.2324  0.2500
  291TIP3    H125068   4.779   1.293   1.199 -1.7379 -0.3253 -1.9155
  291TIP3    H225069   4.647   1.300   1.273 -0.1225 -0.4394  1.1214
  292TIP3   OH225070   5.503   3.282   0.968 -0.1177 -0.2665  0.1113
  292TIP3    H125071   5.417   3.245   0.953 -0.0175  0.1800 -1.8231
  292TIP3    H225072   5.486   3.364   1.014 -0.8361  0.3146 -1.1395
  293TIP3   OH225073   4.862   1.918   2.998  0.3410  0.2329  0.0157
  293TIP3    H125074   4.952   1.950   2.986  0.6988 -1.6225 -3.8565
  293TIP3    H225075   4.812   1.962   2.930 -1.5869  0.5509  1.5565
  294TIP3   OH225076   7.518   2.925   1.857  0.2726  0.5877 -0.2181
  294TIP3    H125077   7.472   3.004   1.828 -1.4009 -0.4322 -0.4481
  294TIP3    H225078   7.497   2.860   1.790  2.1402  0.0755 -0.3671
  295TIP3   OH225079   6.325   4.716   2.779 -0.0210 -0.0332 -0.3836
  295TIP3    H125080   6.331   4.812   2.776  2.8583 -0.1441 -2.2068
  295TIP3    H225081   6.319   4.690   2.687 -0.9899 -1.6408  0.0867
  296TIP3   OH225082   3.029   3.579   1.699  0.6784  0.2276  0.4030
  296TIP3    H125083   3.101   3.642   1.709 -0.5029  1.4173  1.9660
  296TIP3    H225084   3.007   3.583   1.606  1.4398  1.2036  0.2436
  297TIP3   OH225085   4.970   1.548   1.836  0.5935  0.0883 -0.0658
  297TIP3    H125086   5.031   1.621   1.837  0.5774  0.1125 -0.6361
  297TIP3    H225087   5.025   1.470   1.840  0.6269  0.1220  0.1519
  298TIP3   OH225088   3.790   3.685   2.471 -0.1141 -0.3629 -0.1039
  298TIP3    H125089   3.710   3.635   2.490  0.5139 -0.7934  1.6630
  298TIP3    H225090   3.785   3.760   2.530  0.8034 -0.4304  0.0727
  299TIP3   OH225091   1.634   4.052   2.351 -0.5641 -0.1711  0.0591
  299TIP3    H125092   1.637   4.079   2.442 -0.9889 -1.0056  0.3247
  299TIP3    H225093   1.725   4.030   2.329 -0.5580 -0.5612  0.4648
  300TIP3   OH225094   7.218   7.672   0.631 -0.5496  0.6458 -0.5020
  300TIP3    H125095   7.154   7.720   0.684  0.5832  1.4547  0.1621
  300TIP3    H225096   7.182   7.583   0.626 -1.2732  0.8431  0.6481
  301TIP3   OH225097   3.133   1.763   0.987  0.0402  0.1400 -0.1333
  301TIP3    H125098   3.118   1.772   0.893  0.0212 -1.7331 -0.3328
  301TIP3    H225099   3.046   1.755   1.025  0.1065 -3.3056 -0.4715
  302TIP3   OH225100   4.770   7.178   1.373  0.0780 -0.2608 -0.4993
  302TIP3    H125101   4.835   7.111   1.396  0.8347  0.8242  0.7286
  302TIP3    H225102   4.807   7.259   1.408 -1.3705  0.6006 -0.8844
  303TIP3   OH225103   0.276   6.978   2.384 -0.0406 -0.0954  0.2513
  303TIP3    H125104   0.328   7.031   2.444 -2.6600  0.2163  2.4773
  303TIP3    H225105   0.340   6.936   2.326  2.4673  1.5033  1.6850
  304TIP3   OH225106   3.841   3.468   2.803 -0.6138  0.1245 -0.4098
  304TIP3    H125107   3.808   3.413   2.874 -0.7557  2.1837  1.2384
  304TIP3    H225108   3.769   3.472   2.740 -0.5423 -1.6342 -0.6326
  305TIP3   OH225109   1.799   4.971   0.985  0.4492 -0.5236 -0.6507
  305TIP3    H125110   1.713   5.009   0.964  1.2519  0.8080 -1.7402
  305TIP3    H225111   1.793   4.947   1.077 -0.0671  2.5940  0.2415
  306TIP3   OH225112   0.612   5.367   1.057 -0.3265 -0.0822 -0.3317
  306TIP3    H125113   0.593   5.284   1.101  0.1099  0.6021  1.2510
  306TIP3    H225114   0.529   5.392   1.017 -0.4826 -1.2320 -0.7685
  307TIP3   OH225115   4.018   1.013   0.512  0.0218  0.3514 -0.0701
  307TIP3    H125116   4.103   1.029   0.471  0.0691 -1.3254 -0.6908
  307TIP3    H225117   3.964   1.087   0.485  0.6373  0.3008 -1.5275
  308TIP3   OH225118   0.432   3.410   1.997  0.0185 -0.4739 -0.1932
  308TIP3    H125119   0.491   3.346   2.036 -0.0509 -0.2503  0.2803
  308TIP3    H225120   0.400   3.462   2.071  0.0364  0.0765 -0.5680
  309TIP3   OH225121   6.748   0.003   2.315 -0.2065 -0.3546  0.1476
  309TIP3    H125122   6.706  -0.048   2.245 -0.5227  1.1782 -0.8310
  309TIP3    H225123   6.840   0.004   2.292  0.0749 -1.8039  1.0620
  310TIP3   OH225124   7.120   5.988   1.525 -0.7969 -0.1186 -0.5179
  310TIP3    H125125   7.133   5.930   1.450 -0.6971  0.4620 -0.9544
  310TIP3    H225126   7.207   5.994   1.566 -0.2092  1.6386 -1.8894
  311TIP3   OH225127   4.792   0.296   2.246  0.3323  0.0763  0.2867
  311TIP3    H125128   4.783   0.389   2.265 -0.9807 -0.1602  0.9524
  311TIP3    H225129   4.761   0.286   2.156 -3.0545 -0.1653  1.3302
  312TIP3   OH225130   5.549   4.470   0.753 -0.4119  0.2530  0.4641
  312TIP3    H125131   5.631   4.472   0.704 -1.2218 -1.1610 -1.0659
  312TIP3    H225132   5.516   4.560   0.747  0.6057  0.6426  0.4121
  313TIP3   OH225133   5.031   6.353   1.274  0.2167  0.0839  0.6006
  313TIP3    H125134   5.032   6.447   1.294 -2.9939  0.3216  0.2069
  313TIP3    H225135   4.959   6.318   1.327  0.3551 -1.8775 -0.4094
  314TIP3   OH225136   7.121   4.676   1.798 -0.1326  0.0802  0.1062
  314TIP3    H125137   7.197   4.626   1.826  1.0169  0.4858 -2.0762
  314TIP3    H225138   7.089   4.631   1.721 -0.6952  1.2077 -0.3481
  315TIP3   OH225139   3.809   7.090   1.241 -0.6807  0.0879 -0.1320
  315TIP3    H125140   3.792   6.995   1.237 -3.0250  0.4442  0.0265
  315TIP3    H225141   3.723   7.130   1.233  0.0909  2.2065  1.3129
  316TIP3   OH225142   7.542   7.651   2.128 -0.1771 -0.2476 -0.3888
  316TIP3    H125143   7.583   7.707   2.062 -0.9916 -0.1648 -0.8388
  316TIP3    H225144   7.594   7.571   2.128 -0.4898 -0.4688 -1.5415
  317TIP3   OH225145   5.420   2.272   1.254  0.3542  0.0459  0.5275
  317TIP3    H125146   5.447   2.199   1.199  1.5609  0.5098  0.4787
  317TIP3    H225147   5.336   2.299   1.218 -0.1916 -1.3953  0.6342
  318TIP3   OH225148   0.832   3.554   1.698 -0.2299 -0.1349  0.1709
  318TIP3    H125149   0.798   3.577   1.611 -2.5448 -3.2210  0.0932
  318TIP3    H225150   0.896   3.485   1.681  0.9780  0.7776  0.8448
  319TIP3   OH225151   1.539   7.162   0.780 -0.1360 -0.5994  0.4088
  319TIP3    H125152   1.448   7.193   0.783  0.2278  0.4608  1.5754
  319TIP3    H225153   1.558   7.136   0.870  0.6920 -0.9182  0.1494
  320TIP3   OH225154   6.847   1.112   3.110 -0.0173  0.3152  0.0961
  320TIP3    H125155   6.893   1.164   3.045 -0.3947 -2.4005 -2.6213
  320TIP3    H225156   6.778   1.169   3.142  1.1595  2.2959 -0.7262
  321TIP3   OH225157   7.421   2.366   0.914  0.2221  0.4640  0.3094
  321TIP3    H125158   7.426   2.285   0.965  0.6818  1.6811  2.3572
  321TIP3    H225159   7.492   2.358   0.850 -1.1218 -1.6290 -1.0374
  322TIP3   OH225160   0.319   5.818   2.269 -0.0135  0.4277  0.4762
  322TIP3    H125161   0.319   5.855   2.358  2.1416  2.9928 -0.4528
  322TIP3    H225162   0.383   5.747   2.273 -1.7251 -1.1628  1.4726
  323TIP3   OH225163   1.095   7.425   8.091 -0.2364  0.1172 -0.0949
  323TIP3    H125164   1.120   7.501   8.143  0.7738 -1.3937  1.7427
  323TIP3    H225165   1.068   7.360   8.155  0.4065 -1.5962 -1.4857
  324TIP3   OH225166   2.477   7.204   7.918  0.1245  0.0481  0.0826
  324TIP3    H125167   2.507   7.168   7.835 -0.3946 -0.4289  0.0949
  324TIP3    H225168   2.540   7.172   7.983  1.1923  1.3563 -0.2688
  325TIP3   OH225169   2.373   7.372   9.557 -0.4842  0.3768  0.6641
  325TIP3    H125170   2.330   7.432   9.496 -1.3716  0.0298  0.9295
  325TIP3    H225171   2.442   7.424   9.599 -0.6471  0.9462  0.2309
  326TIP3   OH225172   6.633   0.697   9.193  0.3141  0.3607 -0.6214
  326TIP3    H125173   6.694   0.761   9.228 -0.1385  0.9935 -0.9764
  326TIP3    H225174   6.576   0.747   9.135  1.8530 -0.8835 -3.3549
  327TIP3   OH225175   4.277   0.279   9.526 -1.3614 -0.3861 -0.3410
  327TIP3    H125176   4.187   0.310   9.516 -1.6149 -0.8537  0.4321
  327TIP3    H225177   4.269   0.198   9.576 -0.5645 -0.8022 -0.8674
  328TIP3   OH225178   2.386   1.837   8.432 -0.6204  0.4472  0.2370
  328TIP3    H125179   2.386   1.893   8.354 -0.2361 -0.0346 -0.1077
  328TIP3    H225180   2.447   1.767   8.412  1.0636  1.3977  1.7521
  329TIP3   OH225181   7.060   6.427   6.276  0.1462  0.1021  0.3632
  329TIP3    H125182   7.049   6.334   6.295  0.4322  0.1652  0.8475
  329TIP3    H225183   6.974   6.465   6.293 -0.3835 -0.2966 -1.2367
  330TIP3   OH225184   2.476   3.645   9.378  0.2836  0.0452 -0.3995
  330TIP3    H125185   2.569   3.658   9.362  0.5171 -0.8154  0.2189
  330TIP3    H225186   2.444   3.599   9.300  0.8398 -1.6074  0.3112
  331TIP3   OH225187   0.833   3.452   6.786  0.1531  0.6283  0.0630
  331TIP3    H125188   0.803   3.410   6.867 -0.9678 -0.0073 -0.6499
  331TIP3    H225189   0.862   3.380   6.731 -1.5524  0.7567 -1.0789
  332TIP3   OH225190   4.334   6.434   8.138  0.2833  0.0055 -0.3940
  332TIP3    H125191   4.289   6.488   8.073  1.1267  2.1793  0.7364
  332TIP3    H225192   4.421   6.420   8.102 -0.0029 -0.8546 -0.7879
  333TIP3   OH225193   4.145   6.465   8.693  0.6416  0.0247  0.1872
  333TIP3    H125194   4.107   6.538   8.742  1.2086  1.7321 -1.7558
  333TIP3    H225195   4.236   6.462   8.722  0.2190 -1.0820  1.5057
  334TIP3   OH225196   2.844   2.315   9.295 -0.7260  0.2608  0.2077
  334TIP3    H125197   2.787   2.386   9.326 -1.9652 -0.2945 -0.7434
  334TIP3    H225198   2.905   2.358   9.234  0.7049  1.0699  2.1015
  335TIP3   OH225199   3.114   4.943   9.500 -0.3941 -0.1593 -0.0559
  335TIP3    H125200   3.063   4.903   9.430  0.7853 -0.9393 -0.4981
  335TIP3    H225201   3.144   4.870   9.554  0.1389  0.2817  0.2713
  336TIP3   OH225202   2.946   1.587   9.020 -0.5735 -0.0947  0.4795
  336TIP3    H125203   2.969   1.607   8.930  1.7238 -0.5506  0.9120
  336TIP3    H225204   2.864   1.635   9.035 -0.8433  0.2343 -1.7146
  337TIP3   OH225205   7.441   6.112   7.968  0.1548  0.0241 -0.8216
  337TIP3    H125206   7.421   6.089   8.059  1.8728  0.1270 -0.3921
  337TIP3    H225207   7.378   6.182   7.947 -1.0081 -0.7652 -0.1148
  338TIP3   OH225208   6.187   3.365   9.110  0.2041 -0.4422 -0.2664
  338TIP3    H125209   6.211   3.458   9.114  0.4136 -0.5250  0.4932
  338TIP3    H225210   6.197   3.343   9.017  1.6715 -0.0966 -0.2222
  339TIP3   OH225211   5.228   7.007   7.687  1.0633  0.4038  0.4132
  339TIP3    H125212   5.322   6.993   7.700  0.6810 -1.6955  1.5003
  339TIP3    H225213   5.205   6.948   7.616  0.4925  0.5342  0.4870
  340TIP3   OH225214   1.275   3.120   7.728  0.0813 -0.2423 -0.1440
  340TIP3    H125215   1.342   3.107   7.662 -0.1776  0.7733 -0.6273
  340TIP3    H225216   1.299   3.061   7.799  0.2603 -1.4886 -1.2144
  341TIP3   OH225217   1.905   4.887   9.152 -0.0716 -0.1071  0.0348
  341TIP3    H125218   1.981   4.836   9.178 -0.3982 -0.3660  0.5074
  341TIP3    H225219   1.852   4.827   9.099  0.2267  0.1844 -0.5966
  342TIP3   OH225220   6.386   1.423   7.405 -0.3147 -0.7738  0.4202
  342TIP3    H125221   6.346   1.510   7.400 -0.2590 -0.8194 -2.8289
  342TIP3    H225222   6.320   1.368   7.447 -1.7925  0.1274 -0.6465
  343TIP3   OH225223   0.962   6.748   9.622  0.0484 -0.4925 -0.3117
  343TIP3    H125224   0.893   6.744   9.689  0.5608  1.8913  0.4401
  343TIP3    H225225   1.028   6.807   9.658  1.6500 -1.2725 -1.7988
  344TIP3   OH225226   4.866   3.707   9.083  0.0246 -0.3131 -0.4899
  344TIP3    H125227   4.877   3.796   9.050  1.5623 -0.6422 -0.9408
  344TIP3    H225228   4.793   3.713   9.144  2.1891  2.0184  2.1461
  345TIP3   OH225229   7.121   0.452   8.940 -0.7570 -0.2326 -0.4019
  345TIP3    H125230   7.081   0.437   8.855  1.1081 -2.0480 -1.0404
  345TIP3    H225231   7.203   0.496   8.921 -0.3607 -0.5725  0.4548
  346TIP3   OH225232   5.940   6.212   9.120  0.6880  1.0691  0.3608
  346TIP3    H125233   6.005   6.266   9.075  0.6412  0.5589 -0.3452
  346TIP3    H225234   5.859   6.263   9.117  0.3005  0.4433 -1.4986
  347TIP3   OH225235   7.563   4.666   7.165  0.1412 -0.0213 -0.1405
  347TIP3    H125236   7.496   4.601   7.145  0.2196 -0.2345  0.2927
  347TIP3    H225237   7.641   4.635   7.118  0.7417 -1.3015  1.5841
  348TIP3   OH225238   5.297   1.634   7.468 -0.2483 -0.1057 -0.0511
  348TIP3    H125239   5.335   1.562   7.418  1.4304 -0.6394  1.8521
  348TIP3    H225240   5.299   1.708   7.408 -0.8326 -1.3271 -1.6376
  349TIP3   OH225241   3.661   1.411   6.751  0.0322  0.6504 -0.0062
  349TIP3    H125242   3.681   1.318   6.743  2.1783  1.1134 -0.8287
  349TIP3    H225243   3.583   1.415   6.807 -0.1650 -1.6187 -0.0426
  350TIP3   OH225244   4.009   4.857   9.083 -0.3278  0.0360 -0.1166
  350TIP3    H125245   3.980   4.890   8.998 -1.9161 -1.2391 -0.1229
  350TIP3    H225246   3.928   4.831   9.127  0.6965 -2.6936  0.3494
  351TIP3   OH225247   5.823   4.828   7.255  0.0595 -0.2433 -0.4966
  351TIP3    H125248   5.915   4.836   7.228 -0.0736  0.5404 -0.7572
  351TIP3    H225249   5.775   4.820   7.172 -0.1494 -0.0951 -0.3901
  352TIP3   OH225250   0.058   1.357   8.890 -0.1074 -0.3338  0.2931
  352TIP3    H125251   0.024   1.416   8.822  1.3593 -0.0857 -0.2640
  352TIP3    H225252  -0.000   1.282   8.887 -0.3650 -0.1099 -0.9112
  353TIP3   OH225253   5.689   6.897   7.467  0.3178 -0.1764  0.1374
  353TIP3    H125254   5.704   6.951   7.545  1.0076 -0.4260  0.1845
  353TIP3    H225255   5.740   6.939   7.398 -0.0030 -0.1618 -0.0932
  354TIP3   OH225256   1.016   2.722   7.774 -0.5782 -0.3223 -0.4988
  354TIP3    H125257   1.091   2.756   7.726 -0.8313  1.2115  0.0980
  354TIP3    H225258   0.942   2.733   7.714 -1.0352  2.3489  0.4047
  355TIP3   OH225259   6.484   3.426   9.248 -0.3069 -0.1539  0.3732
  355TIP3    H125260   6.410   3.470   9.207  2.3697  2.0993 -2.4961
  355TIP3    H225261   6.497   3.347   9.195  1.3013  1.2326 -1.4754
  356TIP3   OH225262   5.919   5.482   7.215  0.6009  0.1206  0.1078
  356TIP3    H125263   5.949   5.566   7.183  1.5798 -0.1505  0.2938
  356TIP3    H225264   5.965   5.469   7.298 -0.2060 -0.1992  0.5172
  357TIP3   OH225265   4.300   1.195   7.169  0.3520  0.2290 -0.7201
  357TIP3    H125266   4.265   1.227   7.252 -1.3056  0.2593 -1.3920
  357TIP3    H225267   4.278   1.263   7.106 -0.1721 -0.6866 -1.5446
  358TIP3   OH225268   5.501   0.445   6.940 -0.5161  0.3491 -0.6055
  358TIP3    H125269   5.557   0.461   6.864  0.1142  0.8009 -0.0624
  358TIP3    H225270   5.503   0.350   6.951  1.2218  0.4405  0.1743
  359TIP3   OH225271   5.954   6.576   8.820  0.1013 -0.2852 -0.3013
  359TIP3    H125272   6.029   6.554   8.764  0.4557  1.1473 -0.4265
  359TIP3    H225273   5.886   6.601   8.758 -0.5844 -1.8224 -0.1978
  360TIP3   OH225274   1.971   5.713   9.150 -0.0612 -0.1931  0.3519
  360TIP3    H125275   1.884   5.719   9.109 -0.2005  0.0474  0.6695
  360TIP3    H225276   2.030   5.690   9.079 -0.4556 -0.7991  0.2178
  361TIP3   OH225277   5.693   5.447   7.011 -0.3288  0.2392 -0.6030
  361TIP3    H125278   5.723   5.388   6.941 -0.4781 -2.2194  1.2518
  361TIP3    H225279   5.771   5.466   7.062 -0.5622  0.3285 -0.2796
  362TIP3   OH225280   4.575   2.539   9.233 -0.1346 -0.0642  0.1915
  362TIP3    H125281   4.523   2.458   9.238 -1.3210  0.7374  1.2438
  362TIP3    H225282   4.610   2.551   9.321 -1.3089  1.4163  0.4892
  363TIP3   OH225283   0.808   5.979   7.875 -0.0637  0.6278 -0.4212
  363TIP3    H125284   0.901   5.983   7.898 -0.1802  1.4547 -0.0589
  363TIP3    H225285   0.771   5.914   7.935  0.4586 -0.4801 -1.2563
  364TIP3   OH225286   0.024   2.212   6.923  0.5621 -0.0030  0.3034
  364TIP3    H125287  -0.037   2.139   6.914  0.7219 -0.2171  0.8853
  364TIP3    H225288  -0.008   2.278   6.862  0.3755 -0.5306 -0.1782
  365TIP3   OH225289   5.489   3.355   8.428 -0.2876  0.0056 -0.0844
  365TIP3    H125290   5.431   3.363   8.503 -0.8379  2.6755 -0.6924
  365TIP3    H225291   5.488   3.442   8.387  1.9576 -0.6455 -1.7331
  366TIP3   OH225292   3.651   0.916   8.426 -0.4017 -0.2181  0.1514
  366TIP3    H125293   3.636   0.997   8.377  0.1842  0.4987  1.1411
  366TIP3    H225294   3.739   0.888   8.401  1.0591  1.6207  2.7437
  367TIP3   OH225295   4.518   6.163   7.538 -0.0028  0.2268  0.4644
  367TIP3    H125296   4.512   6.112   7.457 -0.1872  1.1925 -0.1397
  367TIP3    H225297   4.474   6.108   7.603  0.1278 -0.5524 -0.0840
  368TIP3   OH225298   2.245   6.412   8.098 -0.1023 -0.1157 -0.2163
  368TIP3    H125299   2.208   6.423   8.186  2.2373 -0.7431  0.9342
  368TIP3    H225300   2.269   6.320   8.093  0.8406  0.1522 -1.0462
  369TIP3   OH225301   4.753   0.529   6.778  0.4172 -0.0142 -0.2601
  369TIP3    H125302   4.723   0.439   6.792 -0.8682  0.3649 -0.4891
  369TIP3    H225303   4.776   0.533   6.686 -0.3231  0.1158 -0.4412
  370TIP3   OH225304   3.261   5.411   7.347  0.2147  0.1608  0.0895
  370TIP3    H125305   3.173   5.430   7.381 -0.2941  1.6638 -1.8300
  370TIP3    H225306   3.292   5.495   7.313  2.2565 -0.4288  0.3820
  371TIP3   OH225307   0.299   1.376   6.951 -0.0731 -0.3224  0.0521
  371TIP3    H125308   0.390   1.392   6.974 -0.3166 -0.3857  1.1279
  371TIP3    H225309   0.286   1.282   6.965 -0.3999 -0.2454  0.2865
  372TIP3   OH225310   1.583   1.774   9.270  0.2705 -0.6052  0.3572
  372TIP3    H125311   1.655   1.781   9.207  1.1781 -0.5789  1.3848
  372TIP3    H225312   1.612   1.707   9.332 -1.0619 -1.3819  0.1738
  373TIP3   OH225313   7.114   4.578   7.422  0.1503  0.2212 -0.0543
  373TIP3    H125314   7.138   4.628   7.344  1.2620 -1.0057 -0.5398
  373TIP3    H225315   7.157   4.493   7.410  0.4942  0.0609  1.9659
  374TIP3   OH225316   4.515   5.788   8.904  0.4351 -0.6318 -0.8580
  374TIP3    H125317   4.562   5.726   8.958 -0.9104  0.0762  1.2609
  374TIP3    H225318   4.423   5.779   8.931 -0.0356  1.0184 -1.7324
  375TIP3   OH225319   4.640   1.405   9.140  0.3316  0.0742 -0.4505
  375TIP3    H125320   4.725   1.363   9.142  0.3702  0.1412 -0.6219
  375TIP3    H225321   4.620   1.425   9.231  0.1576 -0.6235 -0.3321
  376TIP3   OH225322   1.398   5.000   8.612  0.5500  0.2676  0.5596
  376TIP3    H125323   1.309   4.991   8.577  0.6732 -1.0885  0.5255
  376TIP3    H225324   1.392   4.965   8.701  1.2733 -0.9838  0.1497
  377TIP3   OH225325   3.480   5.104   8.364  0.4495  0.3697 -0.0345
  377TIP3    H125326   3.474   5.013   8.334  0.2489  0.6233 -0.7956
  377TIP3    H225327   3.527   5.149   8.294  0.2350  0.9269  0.1710
  378TIP3   OH225328   1.870   5.145   9.086 -0.4450 -0.4347  0.0768
  378TIP3    H125329   1.867   5.051   9.105  1.4491 -0.3330  1.1153
  378TIP3    H225330   1.861   5.187   9.171  0.3409  0.2711 -0.1749
  379TIP3   OH225331   2.168   1.971   8.562  0.0268 -0.3945  1.0080
  379TIP3    H125332   2.159   2.011   8.476  1.6977  1.0154  1.4344
  379TIP3    H225333   2.224   1.894   8.547 -0.8199 -0.9569  0.6484
  380TIP3   OH225334   1.297   0.016   6.976  0.4515 -0.5163 -0.0410
  380TIP3    H125335   1.260   0.102   6.955 -1.1410 -0.9703  0.7371
  380TIP3    H225336   1.387   0.020   6.943 -0.2418  0.6718 -1.9746
  381TIP3   OH225337   3.382   2.829   7.715  0.0094 -0.1051  0.5031
  381TIP3    H125338   3.349   2.860   7.800  0.4258  1.9881 -0.0288
  381TIP3    H225339   3.308   2.843   7.655 -0.2452 -1.4728  0.4734
  382TIP3   OH225340   0.341   4.258   7.942  0.3366 -0.0671 -0.1777
  382TIP3    H125341   0.381   4.183   7.985  0.3442 -0.6060 -1.0936
  382TIP3    H225342   0.295   4.221   7.866  0.2828  0.8415 -0.6093
  383TIP3   OH225343   0.829   0.503   7.966  0.2080 -0.3868  0.2109
  383TIP3    H125344   0.844   0.597   7.951  0.3819 -0.2264  1.2679
  383TIP3    H225345   0.826   0.495   8.061  0.9664 -1.5830  0.1524
  384TIP3   OH225346   6.593   1.936   7.942 -0.8225 -0.3611 -0.3890
  384TIP3    H125347   6.565   1.915   8.031  0.2804 -0.9608 -0.1645
  384TIP3    H225348   6.590   1.853   7.895 -0.1280 -0.3069 -0.5469
  385TIP3   OH225349   1.893   0.026   7.286  0.0287 -0.2770 -0.6958
  385TIP3    H125350   1.909  -0.066   7.266  0.5956  0.0230 -1.6713
  385TIP3    H225351   1.979   0.062   7.306  0.1855  0.5514 -2.5914
  386TIP3   OH225352   3.455   0.300   9.321  0.0085  0.1713 -0.2058
  386TIP3    H125353   3.417   0.214   9.337  1.3845 -0.7252 -1.5223
  386TIP3    H225354   3.430   0.351   9.398 -0.7932 -1.3957  0.6371
  387TIP3   OH225355   3.675   7.081   9.296  0.5053  0.2315 -0.0651
  387TIP3    H125356   3.663   7.151   9.359 -1.6581  0.9201 -1.1239
  387TIP3    H225357   3.689   7.125   9.212  1.4577 -0.6374 -0.3893
  388TIP3   OH225358   5.374   3.376   7.697  0.4113 -0.5217  0.6012
  388TIP3    H125359   5.443   3.344   7.754  0.3782  0.2820  1.1060
  388TIP3    H225360   5.396   3.468   7.680 -0.7211 -0.1445  1.0809
  389TIP3   OH225361   6.325   3.089   8.284  0.0594 -0.9734  0.0743
  389TIP3    H125362   6.415   3.060   8.269  0.2524 -0.7196  0.7140
  389TIP3    H225363   6.334   3.178   8.319 -0.5672  0.4632 -3.0747
  390TIP3   OH225364   1.914   7.327   7.763 -0.0317 -0.1643 -0.0653
  390TIP3    H125365   2.004   7.344   7.791  0.7993 -0.1717 -2.5067
  390TIP3    H225366   1.886   7.253   7.818  1.5526 -0.3566  0.5546
  391TIP3   OH225367   7.639   4.832   7.702 -0.3758  0.1778 -0.1520
  391TIP3    H125368   7.546   4.854   7.690 -0.1090  0.9637 -0.8937
  391TIP3    H225369   7.677   4.913   7.737  0.2989  0.3304 -1.2227
  392TIP3   OH225370   2.745   3.305   8.865 -0.1961  0.0392  0.2839
  392TIP3    H125371   2.840   3.302   8.867 -0.2124 -0.8983  0.0300
  392TIP3    H225372   2.717   3.255   8.942 -0.4797  0.2327  0.3104
  393TIP3   OH225373   4.044   6.593   7.457  0.2113 -0.1779 -0.4145
  393TIP3    H125374   4.050   6.551   7.372  1.1106  1.5873 -1.2645
  393TIP3    H225375   4.131   6.583   7.496  0.9816  2.2133 -1.3381
  394TIP3   OH225376   5.454   4.227   7.413  0.0688  0.2677 -0.6461
  394TIP3    H125377   5.480   4.308   7.457 -1.2275  0.5678 -0.3886
  394TIP3    H225378   5.487   4.236   7.324  2.1100 -0.0390  0.0166
  395TIP3   OH225379   0.558   3.699   8.604  0.1753  0.5021 -0.3521
  395TIP3    H125380   0.490   3.647   8.647  0.7139  0.1662  0.1049
  395TIP3    H225381   0.510   3.766   8.555 -0.6315 -1.4135 -2.3383
  396TIP3   OH225382   3.510   5.662   9.494 -0.4169 -0.0591  0.3720
  396TIP3    H125383   3.551   5.578   9.514 -0.6003  0.2505  2.1511
  396TIP3    H225384   3.416   5.643   9.493 -0.5389  0.3497  2.0645
  397TIP3   OH225385   2.852   4.891   8.027  0.8193  0.2239 -0.3403
  397TIP3    H125386   2.933   4.844   8.047 -0.6042 -1.6679  1.4188
  397TIP3    H225387   2.803   4.832   7.970  0.8825  1.6415 -1.9579
  398TIP3   OH225388   7.269   2.658   7.925 -0.3667  0.0175 -0.3533
  398TIP3    H125389   7.253   2.567   7.899 -1.2005  0.0457  0.0295
  398TIP3    H225390   7.293   2.652   8.018 -0.8958  0.2229 -0.1994
  399TIP3   OH225391   6.430   5.762   9.461 -0.4011 -0.5920 -0.4549
  399TIP3    H125392   6.506   5.735   9.513 -0.4163  0.4737  0.1475
  399TIP3    H225393   6.466   5.823   9.397 -0.9786  1.4571  1.0698
  400TIP3   OH225394   6.705   2.589   7.526 -0.3601 -0.1231  0.5342
  400TIP3    H125395   6.717   2.664   7.468  0.0010 -0.0745  0.6672
  400TIP3    H225396   6.792   2.548   7.531  0.0723  0.8792  2.4076
  401TIP3   OH225397   5.438   5.978   7.331 -0.2963 -0.2206 -0.0107
  401TIP3    H125398   5.379   5.987   7.256  0.5956  1.0896 -0.6004
  401TIP3    H225399   5.467   5.887   7.328  0.6632  0.0930 -2.0180
  402TIP3   OH225400   2.284   4.562   8.102  0.4251 -0.0881 -1.1461
  402TIP3    H125401   2.217   4.515   8.052 -1.1927  0.4020  0.4393
  402TIP3    H225402   2.237   4.636   8.140  2.0521  0.6671 -0.5185
  403TIP3   OH225403   5.942   5.192   7.700 -0.2637  0.6437 -0.0571
  403TIP3    H125404   5.881   5.141   7.752 -1.2849  1.9690  0.1070
  403TIP3    H225405   6.019   5.202   7.757 -0.8143  0.8897  0.6695
  404TIP3   OH225406   5.156   7.146   7.944 -0.2256  0.6914  0.1211
  404TIP3    H125407   5.161   7.092   7.865 -0.7882 -0.6210  0.9459
  404TIP3    H225408   5.103   7.221   7.919 -3.0379 -1.1845 -0.0128
  405TIP3   OH225409   4.957   1.347   9.026 -0.5078  0.2060  0.2796
  405TIP3    H125410   4.970   1.317   8.936 -1.4977  0.8574 -0.0885
  405TIP3    H225411   4.946   1.442   9.020 -1.6918  0.1366  0.9462
  406TIP3   OH225412   4.243   0.210   7.899 -0.4664 -0.1625  0.2727
  406TIP3    H125413   4.225   0.303   7.913  0.9556  0.1889 -0.1460
  406TIP3    H225414   4.198   0.166   7.971 -0.0568  0.9545  1.2325
  407TIP3   OH225415   1.064   3.362   7.435 -0.2568 -0.3234 -0.2437
  407TIP3    H125416   1.152   3.375   7.400 -0.2021 -1.0592 -0.3985
  407TIP3    H225417   1.011   3.338   7.359 -0.8083  1.0082 -0.3091
  408TIP3   OH225418   3.571   5.773   7.793 -0.1761 -0.0429 -0.1997
  408TIP3    H125419   3.592   5.822   7.713  1.4346  0.7737  0.6783
  408TIP3    H225420   3.656   5.749   7.829 -0.8964 -0.9782  0.9361
  409TIP3   OH225421   4.639   5.848   9.683  0.3595  0.6220  0.2378
  409TIP3    H125422   4.680   5.807   9.759  1.7783 -0.0638 -0.8615
  409TIP3    H225423   4.703   5.912   9.652 -0.2315  0.9424 -0.3706
  410TIP3   OH225424   3.457   7.143   8.872  0.3656 -0.6303  0.2895
  410TIP3    H125425   3.466   7.050   8.891 -4.6854 -1.4193  0.1445
  410TIP3    H225426   3.408   7.178   8.946  0.1116  1.3952 -0.7757
  411TIP3   OH225427   0.157   1.895   8.913 -0.1086 -0.0958  0.6530
  411TIP3    H125428   0.137   1.875   8.821  0.2899 -0.0251  0.5478
  411TIP3    H225429   0.231   1.956   8.909  0.9512 -1.3074  1.0478
  412TIP3   OH225430   2.762   6.723   7.213 -0.1731 -0.2091  0.6498
  412TIP3    H125431   2.707   6.716   7.136  1.9822  0.1709 -1.0323
  412TIP3    H225432   2.758   6.816   7.236  1.2814  0.2575 -0.7562
  413TIP3   OH225433   5.791   5.075   7.036  0.7781  0.2524 -0.1791
  413TIP3    H125434   5.810   4.986   7.006  1.5407  0.3881 -0.1218
  413TIP3    H225435   5.793   5.129   6.957 -2.0469 -0.1091 -0.5945
  414TIP3   OH225436   4.712   6.747   9.278 -0.2745 -0.2182  0.3048
  414TIP3    H125437   4.765   6.767   9.201 -0.0691  1.1719  0.7769
  414TIP3    H225438   4.741   6.660   9.306  1.2220  0.1886  0.0955
  415TIP3   OH225439   0.426   5.758   8.853 -0.5211  0.4951  0.4061
  415TIP3    H125440   0.429   5.765   8.949 -0.9320 -0.5995  0.5099
  415TIP3    H225441   0.504   5.709   8.830 -0.9822 -0.1860  0.2797
  416TIP3   OH225442   2.964   5.137   9.624  0.2442  0.2020  0.0282
  416TIP3    H125443   3.001   5.137   9.713 -0.7315 -0.1134  0.4512
  416TIP3    H225444   3.021   5.079   9.574  1.1487  0.8371  0.2947
  417TIP3   OH225445   0.468   0.436   7.496  0.2750 -0.0893  0.3140
  417TIP3    H125446   0.475   0.374   7.423 -1.8587 -0.5724  0.4483
  417TIP3    H225447   0.456   0.521   7.454  3.4648  0.4123  0.1242
  418TIP3   OH225448   6.659   4.711   9.015  0.3754 -0.0292 -0.0539
  418TIP3    H125449   6.732   4.684   9.071  0.3970 -1.0188 -0.5364
  418TIP3    H225450   6.605   4.766   9.070  1.4222  0.6140  0.3584
  419TIP3   OH225451   4.745   5.188   7.542 -0.0297 -0.4162  0.3934
  419TIP3    H125452   4.652   5.175   7.559  0.0037 -1.6882 -0.2428
  419TIP3    H225453   4.773   5.107   7.499  1.0087  0.6054 -0.9322
  420TIP3   OH225454   4.869   0.972   8.463  0.0371 -0.4161 -0.6761
  420TIP3    H125455   4.866   0.994   8.370 -2.8697  0.0729 -0.5353
  420TIP3    H225456   4.880   0.877   8.465 -0.2472 -0.4741 -1.5055
  421TIP3   OH225457   7.231   1.674   7.171  0.3764  0.5754 -0.5288
  421TIP3    H125458   7.158   1.631   7.127 -0.1698  0.9035  0.0397
  421TIP3    H225459   7.265   1.607   7.230 -1.3216  1.2626  1.3512
  422TIP3   OH225460   1.340   3.963   8.748 -0.0352 -0.3195 -0.3067
  422TIP3    H125461   1.360   3.869   8.753 -0.0366 -0.2738  0.5927
  422TIP3    H225462   1.284   3.970   8.670  1.6356 -0.7496 -1.6081
  423TIP3   OH225463   6.220   2.688   7.123  0.5030  0.0565 -0.2864
  423TIP3    H125464   6.255   2.681   7.212  0.0101  0.2611 -0.0756
  423TIP3    H225465   6.126   2.702   7.134  0.5156  0.6498 -0.8260
  424TIP3   OH225466   7.424   7.606   8.524  0.0771 -0.0743  0.0687
  424TIP3    H125467   7.395   7.615   8.433 -1.2193  1.6341  0.6057
  424TIP3    H225468   7.459   7.517   8.529 -1.5569 -0.8831 -1.6384
  425TIP3   OH225469   4.145   4.031   7.593  0.9031  0.2132  0.3621
  425TIP3    H125470   4.100   4.070   7.518 -0.9692  0.7781  1.7085
  425TIP3    H225471   4.143   4.099   7.660  0.6730 -0.9979  1.6182
  426TIP3   OH225472   6.007   0.534   8.191  0.2124  0.1808 -0.3160
  426TIP3    H125473   6.078   0.490   8.144  0.6914  0.8116 -0.1979
  426TIP3    H225474   5.949   0.567   8.122  0.6927  0.7401 -0.4606
  427TIP3   OH225475   2.997   6.015   8.183  0.1828 -0.0073  0.3709
  427TIP3    H125476   3.077   6.023   8.131 -0.2253 -0.3167 -0.3156
  427TIP3    H225477   2.926   6.035   8.121 -0.3362 -0.7590  0.7116
  428TIP3   OH225478   3.344   2.941   9.201  0.6079 -0.3812  0.6918
  428TIP3    H125479   3.259   2.944   9.157  1.2496  1.9265 -0.5783
  428TIP3    H225480   3.323   2.957   9.294 -0.2813  2.0736  0.1567
  429TIP3   OH225481   5.693   0.145   8.633  0.5395 -0.0894 -0.5241
  429TIP3    H125482   5.598   0.146   8.634  0.4939  2.3433 -1.6086
  429TIP3    H225483   5.718   0.114   8.720 -1.2623  0.7217  0.3225
  430TIP3   OH225484   1.894   3.705   7.083 -0.4334  0.0529  0.6562
  430TIP3    H125485   1.965   3.643   7.093 -0.5042  0.2186  2.8055
  430TIP3    H225486   1.936   3.791   7.089 -0.3349  0.2869 -2.2856
  431TIP3   OH225487   7.081   4.778   7.224  0.5768  0.4097 -0.2963
  431TIP3    H125488   7.096   4.812   7.136 -2.1939  0.4218 -0.8718
  431TIP3    H225489   7.032   4.847   7.268 -0.1053 -0.5131  0.4443
  432TIP3   OH225490   4.238   0.668   7.570 -0.1498 -0.2378  0.0615
  432TIP3    H125491   4.226   0.747   7.519 -0.1055  1.0023  1.8713
  432TIP3    H225492   4.299   0.615   7.520 -1.0073  0.3762 -1.7039
  433TIP3   OH225493   4.449   5.408   7.681 -0.0192 -0.2599 -0.3820
  433TIP3    H125494   4.437   5.475   7.748 -0.2247 -3.3261  2.9516
  433TIP3    H225495   4.531   5.364   7.706 -0.9464 -2.5552 -1.1560
  434TIP3   OH225496   7.131   3.390   8.683  0.4464  0.5540  0.5945
  434TIP3    H125497   7.144   3.295   8.685 -0.5363  0.3484 -0.9793
  434TIP3    H225498   7.137   3.413   8.590 -0.0561  1.9225  0.8818
  435TIP3   OH225499   7.561   6.072   7.513  0.3765  0.1227 -1.2466
  435TIP3    H125500   7.521   6.110   7.435 -0.7904 -0.3620 -0.9044
  435TIP3    H225501   7.490   6.068   7.577  1.4258  0.9379  0.0049
  436TIP3   OH225502   4.505   2.441   7.097 -0.3510  0.1697 -0.0665
  436TIP3    H125503   4.489   2.430   7.003 -0.0265  0.1045 -0.1147
  436TIP3    H225504   4.481   2.532   7.115 -0.5348  0.1455 -0.1870
  437TIP3   OH225505   0.349   6.834   9.107 -0.3513 -0.0198  0.3315
  437TIP3    H125506   0.304   6.762   9.153 -1.5376  0.4301 -0.0903
  437TIP3    H225507   0.434   6.840   9.150 -1.7595  1.0571  3.2374
  438TIP3   OH225508   0.145   3.362   8.095  0.0662  0.3200  0.5486
  438TIP3    H125509   0.161   3.337   8.004  0.2828  0.7087  0.4764
  438TIP3    H225510   0.077   3.302   8.125  1.5665 -1.3564  0.8306
  439TIP3   OH225511   4.512   7.345   7.170  0.4273 -0.0121  0.1500
  439TIP3    H125512   4.587   7.317   7.117  0.6411  1.9770 -0.7035
  439TIP3    H225513   4.467   7.410   7.115 -1.0382 -0.0115  1.2799
  440TIP3   OH225514   7.186   5.716   9.470 -0.1440  1.0188 -0.2793
  440TIP3    H125515   7.121   5.762   9.417  0.0525  0.2937 -1.1666
  440TIP3    H225516   7.270   5.740   9.432 -0.0448 -0.1617 -0.8340
  441TIP3   OH225517   5.193   5.683   7.638  0.2938  0.3302 -0.1824
  441TIP3    H125518   5.191   5.664   7.732  0.9425 -0.0690 -0.2415
  441TIP3    H225519   5.103   5.707   7.617 -0.1342 -0.7766  0.3010
  442TIP3   OH225520   4.523   2.253   8.463 -0.3578  0.1222  0.0969
  442TIP3    H125521   4.601   2.244   8.407  0.5385 -0.3686  1.3578
  442TIP3    H225522   4.451   2.264   8.402  0.6268 -0.0074 -1.1427
  443TIP3   OH225523   6.572   0.663   8.422 -0.5792 -0.2587 -0.9380
  443TIP3    H125524   6.653   0.701   8.390 -0.6180 -0.0507 -0.7906
  443TIP3    H225525   6.520   0.646   8.343  0.5384 -2.5929 -1.2657
  444TIP3   OH225526   7.596   2.378   7.591  0.8653 -0.1028 -0.0699
  444TIP3    H125527   7.636   2.459   7.621 -0.1073  0.0247  0.9474
  444TIP3    H225528   7.548   2.345   7.667  0.0465 -0.8638 -0.8843
  445TIP3   OH225529   3.857   6.903   9.414 -0.3553  0.1193  0.4042
  445TIP3    H125530   3.849   6.835   9.347  1.5738  0.9712 -0.7608
  445TIP3    H225531   3.787   6.965   9.393 -0.0219  0.1773 -0.5960
  446TIP3   OH225532   3.073   4.515   7.866  0.3284 -0.1558 -0.5131
  446TIP3    H125533   3.096   4.560   7.946  1.6653 -0.2679 -0.8186
  446TIP3    H225534   3.042   4.584   7.807 -3.6389 -0.3503  0.9966
  447TIP3   OH225535   1.667   4.538   8.644 -0.3847  0.0941 -0.3030
  447TIP3    H125536   1.662   4.628   8.676 -0.4394  0.0291 -0.1312
  447TIP3    H225537   1.753   4.506   8.673 -0.4230  0.0440 -0.2464
  448TIP3   OH225538   1.347   1.605   8.953 -0.0653  0.1751  0.0686
  448TIP3    H125539   1.294   1.618   9.032 -0.2079  0.2440 -0.0379
  448TIP3    H225540   1.285   1.615   8.881  0.4024  1.8718 -0.1331
  449TIP3   OH225541   1.184   6.879   9.456  0.0345 -0.7051 -0.1187
  449TIP3    H125542   1.232   6.955   9.423  0.2927 -1.6308 -2.0525
  449TIP3    H225543   1.099   6.883   9.412 -0.5129 -0.7753  0.8917
  450TIP3   OH225544   1.261   5.786   8.649  0.0523 -0.1742  0.3513
  450TIP3    H125545   1.262   5.832   8.734  0.8125 -1.5527  1.1229
  450TIP3    H225546   1.270   5.694   8.672  0.4457 -0.5612 -1.2589
  451TIP3   OH225547   1.669   4.803   8.779 -0.8400  0.1230  0.0765
  451TIP3    H125548   1.706   4.884   8.815  0.3045 -0.3937  0.0836
  451TIP3    H225549   1.578   4.805   8.807 -0.1859  0.0705  2.4580
  452TIP3   OH225550   6.412   7.434   7.652  0.5574  0.2137 -0.1873
  452TIP3    H125551   6.418   7.512   7.707 -0.2646 -0.4240  0.8370
  452TIP3    H225552   6.327   7.441   7.609  0.1870 -0.4357  0.4212
  453TIP3   OH225553   1.205   5.333   9.047 -0.5611 -0.2896 -0.0677
  453TIP3    H125554   1.266   5.393   9.004 -1.7456 -0.0385 -1.4691
  453TIP3    H225555   1.182   5.269   8.979 -1.7913 -0.4266  0.4563
  454TIP3   OH225556   6.323   6.948   7.578 -0.2955 -1.1382 -0.8019
  454TIP3    H125557   6.360   6.891   7.646 -0.1140 -2.2164 -1.7757
  454TIP3    H225558   6.392   6.953   7.511 -0.2101  0.4411 -0.6443
  455TIP3   OH225559   0.427   5.062   7.299  0.3492  0.6029 -0.1500
  455TIP3    H125560   0.440   5.045   7.393  2.1418 -0.6741 -0.5749
  455TIP3    H225561   0.356   5.002   7.274  1.1041 -0.3886  0.0377
  456TIP3   OH225562   6.619   0.443   9.290 -0.2559  0.3258  0.0005
  456TIP3    H125563   6.611   0.527   9.245 -1.5168 -1.0342 -2.5914
  456TIP3    H225564   6.703   0.408   9.260 -0.1157  0.2971  0.4183
  457TIP3   OH225565   2.230   5.549   7.703 -0.0458  0.4414 -0.7560
  457TIP3    H125566   2.223   5.613   7.632  1.1405  2.6085  0.9794
  457TIP3    H225567   2.321   5.554   7.732 -0.3838 -0.7331  0.6302
  458TIP3   OH225568   0.782   3.098   8.596 -0.1463  0.5738  0.2037
  458TIP3    H125569   0.694   3.065   8.619 -0.5267  1.4319  0.0251
  458TIP3    H225570   0.770   3.139   8.511  0.7270 -0.4306 -0.4199
  459TIP3   OH225571   6.909   3.487   7.760 -0.5443 -0.4659  0.1580
  459TIP3    H125572   6.985   3.465   7.706  0.8799 -1.2871  2.3371
  459TIP3    H225573   6.921   3.579   7.783 -0.0396 -0.6497  0.6755
  460TIP3   OH225574   3.712   6.793   7.833 -0.0414  0.1209  0.1178
  460TIP3    H125575   3.804   6.776   7.854 -0.4402 -0.7503  1.2636
  460TIP3    H225576   3.672   6.707   7.830 -0.8111  0.4911 -0.4498
  461TIP3   OH225577   1.110   5.543   7.300  0.0523 -0.1695  0.0602
  461TIP3    H125578   1.035   5.487   7.284  0.2604 -0.9485  1.5904
  461TIP3    H225579   1.178   5.510   7.241  0.0511 -1.3147  0.6612
  462TIP3   OH225580   7.332   1.509   7.363 -0.5682 -0.2943  0.3963
  462TIP3    H125581   7.326   1.560   7.444  1.4667  2.0880 -0.8129
  462TIP3    H225582   7.370   1.426   7.391 -1.7306 -0.3138  2.1197
  463TIP3   OH225583   2.008   0.887   8.872  0.1648  0.5742 -0.0857
  463TIP3    H125584   2.043   0.814   8.820  1.5358  1.3951 -0.3694
  463TIP3    H225585   1.943   0.847   8.929  0.7054 -0.8273 -0.4138
  464TIP3   OH225586   0.943   6.948   9.925 -0.2469 -0.5602 -0.3673
  464TIP3    H125587   0.981   7.011   9.986 -0.5693 -1.4806  0.8420
  464TIP3    H225588   0.987   6.964   9.842 -0.3870  1.2850 -0.1070
  465TIP3   OH225589   1.595   3.931   9.157 -0.0658 -0.1407 -0.2444
  465TIP3    H125590   1.686   3.958   9.142  0.2720 -0.4644  1.1168
  465TIP3    H225591   1.597   3.836   9.151 -0.6330 -0.0919 -1.7338
  466TIP3   OH225592   6.289   1.175   9.226  0.0640  0.1029  0.2185
  466TIP3    H125593   6.231   1.230   9.278  0.3044  1.0689 -0.5072
  466TIP3    H225594   6.230   1.115   9.180 -0.2236 -0.0538  0.7881
  467TIP3   OH225595   1.112   3.996   9.281 -0.5921 -0.7195  0.7466
  467TIP3    H125596   1.092   3.902   9.277  0.0217 -0.9068  1.8753
  467TIP3    H225597   1.190   4.002   9.335 -0.1221  0.3863 -0.0107
  468TIP3   OH225598   7.516   6.184   7.260 -0.4989  0.2623 -0.1364
  468TIP3    H125599   7.477   6.153   7.179 -1.2428  0.4213  0.1553
  468TIP3    H225600   7.459   6.255   7.289 -0.2271  0.2255  0.5063
  469TIP3   OH225601   6.564   7.200   7.925 -0.2675  0.5317  1.1149
  469TIP3    H125602   6.480   7.210   7.881 -0.1267  1.3169  0.9978
  469TIP3    H225603   6.545   7.150   8.004 -0.6727 -0.1382  0.6004
  470TIP3   OH225604   5.190   4.226   7.777 -0.0196  0.2329  0.3982
  470TIP3    H125605   5.125   4.217   7.707  2.4314 -2.1738 -1.8836
  470TIP3    H225606   5.210   4.319   7.780 -0.0555  0.4331 -2.4247
  471TIP3   OH225607   3.667   1.172   8.615  0.3993 -0.0978 -0.2994
  471TIP3    H125608   3.659   1.133   8.702  0.4303  1.0830  0.2522
  471TIP3    H225609   3.620   1.112   8.557 -0.0560 -0.6395  0.6084
  472TIP3   OH225610   0.194   1.898   7.531  0.3514 -0.8832  0.0657
  472TIP3    H125611   0.244   1.893   7.613  0.4712  1.7602  0.2413
  472TIP3    H225612   0.211   1.986   7.498 -0.5493 -1.5199 -2.2841
  473TIP3   OH225613   2.278   2.455   9.098 -0.2781 -0.4876  0.0659
  473TIP3    H125614   2.359   2.435   9.144  0.1764 -1.1729 -1.0056
  473TIP3    H225615   2.209   2.433   9.160  0.3251 -1.2354  0.4896
  474TIP3   OH225616   0.311   1.463   8.868 -0.2067 -0.4702 -0.2575
  474TIP3    H125617   0.316   1.536   8.930 -1.9177  0.3581 -1.0043
  474TIP3    H225618   0.226   1.423   8.886 -0.2081 -0.9492 -1.2715
  475TIP3   OH225619   3.167   0.844   7.652  0.2306  0.2588  0.3251
  475TIP3    H125620   3.164   0.871   7.744  0.3605  1.8496 -0.1047
  475TIP3    H225621   3.079   0.863   7.618  0.9563  2.4372 -0.5518
  476TIP3   OH225622   4.998   3.966   9.280  0.4195 -0.0202  0.1125
  476TIP3    H125623   4.925   3.981   9.220  1.3569  2.7264 -0.5061
  476TIP3    H225624   5.035   3.883   9.251 -2.5457 -1.6508  0.6405
  477TIP3   OH225625   4.190   5.898   9.120 -0.3639 -0.0936 -0.2657
  477TIP3    H125626   4.214   5.822   9.067 -0.6614 -0.1910 -0.2591
  477TIP3    H225627   4.171   5.966   9.055  1.4515  0.4649 -0.2677
  478TIP3   OH225628   5.616   1.300   8.332  0.0497 -0.4539 -0.2052
  478TIP3    H125629   5.615   1.304   8.428  0.7340 -0.1431 -0.2049
  478TIP3    H225630   5.554   1.230   8.311 -0.7308  0.0262  0.4222
  479TIP3   OH225631   6.469   6.189   8.080 -0.4058 -0.1250  0.2789
  479TIP3    H125632   6.498   6.243   8.006 -2.0514  0.6771  0.1848
  479TIP3    H225633   6.374   6.187   8.073 -0.5471 -0.6874  1.9457
  480TIP3   OH225634   5.196   1.710   8.347 -0.2777  0.0489  0.2843
  480TIP3    H125635   5.235   1.778   8.402 -0.5529  0.9619 -0.6353
  480TIP3    H225636   5.128   1.754   8.298 -0.2865 -0.8355 -0.5299
  481TIP3   OH225637   0.388   4.527   8.013  0.5613 -0.3881  0.1808
  481TIP3    H125638   0.327   4.538   8.086  0.6377 -1.5824  0.4460
  481TIP3    H225639   0.376   4.436   7.985 -0.0112  0.2283 -1.7916
  482TIP3   OH225640   2.045   7.446   9.031 -0.2526  0.1009 -0.0705
  482TIP3    H125641   2.063   7.539   9.044  1.4132  0.4235 -3.4748
  482TIP3    H225642   2.127   7.403   9.054  0.1905 -0.0657 -1.8110
  483TIP3   OH225643   5.501   3.757   7.226  0.0609 -0.7650  0.1377
  483TIP3    H125644   5.535   3.836   7.184  0.2470 -0.0236  1.6272
  483TIP3    H225645   5.460   3.708   7.155 -0.6217  0.9725 -0.7167
  484TIP3   OH225646   3.681   1.150   7.470  0.1979 -0.3128  0.3300
  484TIP3    H125647   3.749   1.185   7.527  0.2922 -1.2916  0.8355
  484TIP3    H225648   3.607   1.133   7.528  0.1694 -0.9769  0.1116
  485TIP3   OH225649   4.225   4.695   7.866  0.0078  0.2050  0.1614
  485TIP3    H125650   4.275   4.696   7.785  0.9716  1.2790  0.7359
  485TIP3    H225651   4.139   4.730   7.842  0.2760  0.4913 -0.3973
  486TIP3   OH225652   1.487   5.609   7.335  0.5767 -0.2306  0.0242
  486TIP3    H125653   1.505   5.519   7.363 -1.5485 -0.8011 -0.2910
  486TIP3    H225654   1.447   5.600   7.249  1.1470  1.1089 -0.4101
  487TIP3   OH225655   6.084   4.103   8.521 -0.3244 -0.1097 -0.2390
  487TIP3    H125656   6.151   4.134   8.582 -1.2074 -0.1830  0.7842
  487TIP3    H225657   6.111   4.139   8.436  1.5506 -0.9470 -0.0627
  488TIP3   OH225658   7.303   6.320   7.345  0.7769  0.4689  0.6979
  488TIP3    H125659   7.267   6.388   7.288 -1.7423  0.8390  2.5478
  488TIP3    H225660   7.326   6.366   7.425  1.4236 -0.4865  1.0736
  489TIP3   OH225661   2.644   7.504   9.592  0.2170 -0.3107  0.2957
  489TIP3    H125662   2.728   7.459   9.597 -0.6305 -1.8609  1.6279
  489TIP3    H225663   2.656   7.583   9.645  0.4038 -1.3436  1.8697
  490TIP3   OH225664   6.878   4.748   6.437  0.1833 -0.0975  0.2226
  490TIP3    H125665   6.860   4.797   6.517  0.0054 -0.6132  0.5007
  490TIP3    H225666   6.931   4.808   6.384  0.7453  0.0578  0.9451
  491TIP3   OH225667   6.033   0.837   7.033 -0.0333  0.0679  0.0111
  491TIP3    H125668   6.106   0.895   7.054 -1.1576  1.1313  1.2345
  491TIP3    H225669   5.963   0.896   7.005 -0.5388 -0.8881 -0.7969
  492TIP3   OH225670   5.113   5.477   6.803 -0.1282  0.4025 -0.0291
  492TIP3    H125671   5.084   5.565   6.777 -0.2125  0.5934  0.6935
  492TIP3    H225672   5.033   5.425   6.802 -0.2883  0.6284  0.7345
  493TIP3   OH225673   4.370   7.141   7.830  0.3893  0.1094 -0.3177
  493TIP3    H125674   4.274   7.137   7.826  0.4403 -0.2663 -2.0371
  493TIP3    H225675   4.398   7.111   7.744  2.0236  2.0208 -0.5161
  494TIP3   OH225676   1.020   5.774   8.195  0.0518 -0.0507 -0.1217
  494TIP3    H125677   0.961   5.838   8.234  1.1956  1.8018 -1.3133
  494TIP3    H225678   1.051   5.722   8.269 -1.0796  0.5981  0.8405
  495TIP3   OH225679   4.157   4.421   9.253  0.3167 -0.1654  0.1387
  495TIP3    H125680   4.241   4.376   9.263  0.8704  0.5194 -1.2339
  495TIP3    H225681   4.179   4.514   9.257 -0.6718  0.0441  1.8342
  496TIP3   OH225682   6.475   2.690   7.627  0.2233 -0.2632  0.0051
  496TIP3    H125683   6.556   2.658   7.586  0.4170  0.7752 -0.4513
  496TIP3    H225684   6.409   2.626   7.600  0.7011 -0.5832 -0.4417
  497TIP3   OH225685   6.571   3.664   8.505 -0.7791  0.1381  0.6215
  497TIP3    H125686   6.483   3.625   8.506  0.0832 -1.9687  0.3629
  497TIP3    H225687   6.611   3.635   8.587 -0.9159  2.6849  1.6713
  498TIP3   OH225688   4.287   5.555   9.551 -0.4015  0.2824  0.0052
  498TIP3    H125689   4.199   5.569   9.518  0.4710  3.0074 -1.4918
  498TIP3    H225690   4.279   5.565   9.646 -1.6946  0.5749 -0.1243
  499TIP3   OH225691   0.213   6.036   9.713  0.5541 -0.3108 -0.2728
  499TIP3    H125692   0.201   5.979   9.788 -0.4076  0.0557 -0.1365
  499TIP3    H225693   0.126   6.072   9.695  1.2343  1.6661  0.0892
  500TIP3   OH225694   3.533   3.072   8.351 -0.2431 -1.0031  0.3472
  500TIP3    H125695   3.540   3.167   8.338  1.6163 -1.0951  0.3805
  500TIP3    H225696   3.442   3.058   8.378 -0.4029  0.8310  0.9081
  501TIP3   OH225697   0.195   3.786   8.643 -0.8081  0.0165  0.0191
  501TIP3    H125698   0.178   3.730   8.566 -0.0898 -2.6620  1.6679
  501TIP3    H225699   0.263   3.846   8.613  1.2297 -2.5273 -0.8940
  502TIP3   OH225700   5.311   6.455   7.685  0.3773  0.7441  0.2193
  502TIP3    H125701   5.268   6.467   7.770  0.3278  0.8854  0.1737
  502TIP3    H225702   5.387   6.401   7.705 -0.5320 -0.6378  0.0983
  503TIP3   OH225703   2.881   5.367   8.598 -0.0017  0.4645  0.4010
  503TIP3    H125704   2.800   5.324   8.573 -0.0727  0.4204  0.6979
  503TIP3    H225705   2.938   5.359   8.521 -0.3447  0.6688  0.1255
  504TIP3   OH225706   5.120   6.048   9.382 -0.1142  0.2935  0.0352
  504TIP3    H125707   5.082   5.979   9.437 -0.2578  0.6231  0.3587
  504TIP3    H225708   5.073   6.041   9.299  1.4478 -1.4790 -0.7618
  505TIP3   OH225709   2.729   1.115   7.455 -0.1999 -0.5204 -0.1693
  505TIP3    H125710   2.802   1.085   7.400  0.6549 -0.6950  1.0369
  505TIP3    H225711   2.704   1.199   7.417  1.3685  0.0772  0.0473
  506TIP3   OH225712   1.273   6.995   9.222 -0.0356  0.5561  0.0870
  506TIP3    H125713   1.346   6.933   9.225  0.6796  1.2851 -1.4452
  506TIP3    H225714   1.202   6.946   9.181  0.9234  1.0708 -2.3362
  507TIP3   OH225715   4.314   4.241   6.829  0.1815 -0.2378 -0.2328
  507TIP3    H125716   4.255   4.189   6.775 -0.7134  0.2960  0.2006
  507TIP3    H225717   4.287   4.332   6.814 -0.7398 -0.1191  1.7971
  508TIP3   OH225718   5.427   5.208   8.116 -0.4396  0.5329 -0.1124
  508TIP3    H125719   5.442   5.242   8.028 -1.5503 -0.6959 -0.8141
  508TIP3    H225720   5.333   5.218   8.130 -0.2031  1.2001  1.1615
  509TIP3   OH225721   7.135   5.310   9.006  0.0207 -0.3766 -0.2032
  509TIP3    H125722   7.112   5.324   8.914 -0.7954  0.6847  0.1354
  509TIP3    H225723   7.212   5.253   9.004  1.0129  0.9483 -1.5946
  510TIP3   OH225724   2.612   4.450   9.621  0.2512  0.1312  0.3981
  510TIP3    H125725   2.521   4.439   9.597  0.2296  0.6876  0.2162
  510TIP3    H225726   2.627   4.383   9.688 -0.0615 -0.5059 -0.1451
  511TIP3   OH225727   6.908   3.253   6.503  0.8625 -0.3278 -0.2121
  511TIP3    H125728   6.829   3.205   6.529  1.8900 -1.3589  1.1771
  511TIP3    H225729   6.909   3.330   6.560  0.7443 -0.2015 -0.3810
  512TIP3   OH225730   2.955   1.781   8.548 -0.1776  0.1793  0.0761
  512TIP3    H125731   2.939   1.853   8.487  1.5894  1.6765  1.2930
  512TIP3    H225732   2.885   1.787   8.612 -0.1065  0.7490  0.1006
  513TIP3   OH225733   1.412   4.776   7.740  0.2105  0.1914  0.0740
  513TIP3    H125734   1.329   4.732   7.727  0.6354 -0.8118  0.6705
  513TIP3    H225735   1.403   4.821   7.824 -0.1231  1.0559 -0.4036
  514TIP3   OH225736   5.932   2.506   9.288  0.8513  0.2378  0.3878
  514TIP3    H125737   5.950   2.412   9.293  0.4324  0.1155 -0.3229
  514TIP3    H225738   5.839   2.513   9.307  0.5797  0.3672 -0.9437
  515TIP3   OH225739   6.934   6.346   6.956  0.1751 -0.5676 -0.9228
  515TIP3    H125740   6.956   6.370   6.866 -0.2002  1.6072 -0.4893
  515TIP3    H225741   7.001   6.388   7.009 -0.1805 -0.9936 -0.1106
  516TIP3   OH225742   0.350   4.260   7.273 -0.0584 -0.1893 -0.1030
  516TIP3    H125743   0.400   4.312   7.210  0.3584  1.8822  1.8108
  516TIP3    H225744   0.406   4.184   7.290  0.2403 -0.3167 -1.4922
  517TIP3   OH225745   2.808   6.115   9.350 -0.3779  0.1503  0.3247
  517TIP3    H125746   2.772   6.076   9.270 -0.4456  0.1068  0.3757
  517TIP3    H225747   2.769   6.064   9.421  0.7701 -0.7391  0.3444
  518TIP3   OH225748   6.055   3.969   6.823  0.3905  0.4412 -0.3663
  518TIP3    H125749   6.136   4.016   6.841  0.6142  0.8032 -2.1643
  518TIP3    H225750   6.082   3.893   6.772 -0.4331  0.9272 -1.5760
  519TIP3   OH225751   0.801   4.653   8.675  0.9392 -0.3483 -0.3642
  519TIP3    H125752   0.724   4.602   8.699  1.7554 -0.5049  2.2682
  519TIP3    H225753   0.767   4.739   8.653 -0.0706 -0.6125  0.0814
  520TIP3   OH225754   1.892   4.523   8.042  0.6193  0.5909 -0.3387
  520TIP3    H125755   1.866   4.494   8.130  1.5756  2.3811  0.5869
  520TIP3    H225756   1.881   4.445   7.987 -0.9368 -0.3256  1.1519
  521TIP3   OH225757   4.776   7.616   9.408  0.2512  0.0769 -0.2365
  521TIP3    H125758   4.702   7.665   9.371  0.8199  0.8296 -0.3918
  521TIP3    H225759   4.794   7.659   9.492  2.1159  1.5456 -1.3168
  522TIP3   OH225760   4.646   0.816   8.713  0.2417 -0.1194 -0.2976
  522TIP3    H125761   4.628   0.907   8.692  1.3693 -0.0061 -0.8521
  522TIP3    H225762   4.585   0.795   8.783  0.1708  1.1450  0.0429
  523TIP3   OH225763   2.414   2.413   7.408 -0.2976 -0.4339 -0.0507
  523TIP3    H125764   2.326   2.450   7.407  0.4371  1.4037  0.1486
  523TIP3    H225765   2.401   2.322   7.434 -2.0703 -0.0287  0.6261
  524TIP3   OH225766   3.438   5.318   7.545 -0.1739 -0.1092  0.3647
  524TIP3    H125767   3.385   5.339   7.622 -0.3429  1.5249 -0.1654
  524TIP3    H225768   3.379   5.332   7.471  0.8199  1.2937 -0.2120
  525TIP3   OH225769   5.552   5.687   9.073 -0.4011  0.1958 -0.2363
  525TIP3    H125770   5.572   5.696   8.980 -1.0685  0.6804 -0.3447
  525TIP3    H225771   5.470   5.736   9.084 -1.6909 -1.9484  0.1219
  526TIP3   OH225772   2.901   4.507   6.728 -0.2059  0.1526 -0.1863
  526TIP3    H125773   2.940   4.507   6.816 -0.1864  4.4004  0.0210
  526TIP3    H225774   2.847   4.428   6.726 -0.5856  0.0928  3.8509
  527TIP3   OH225775   4.684   5.785   9.174 -0.6575  0.1578  0.2363
  527TIP3    H125776   4.604   5.782   9.226 -0.3952 -0.1412  0.6240
  527TIP3    H225777   4.702   5.694   9.150  0.4268  0.0119  1.4895
  528TIP3   OH225778   1.967   0.056   8.983 -0.0018 -0.6154 -0.5426
  528TIP3    H125779   1.948   0.128   9.043 -0.9283 -2.2015  1.1496
  528TIP3    H225780   1.885   0.040   8.937 -0.2188 -1.5015  0.1313
  529TIP3   OH225781   3.242   3.714   7.891 -0.4955 -0.1805  0.6489
  529TIP3    H125782   3.193   3.643   7.850 -1.8811  0.7890  0.5617
  529TIP3    H225783   3.289   3.756   7.819 -3.6679  2.1220 -0.2696
  530TIP3   OH225784   3.390   3.144   7.542  0.0050  0.6633 -0.0409
  530TIP3    H125785   3.317   3.134   7.604  0.9655 -1.7776  0.8192
  530TIP3    H225786   3.462   3.179   7.595  0.3011  0.3001 -0.2003
  531TIP3   OH225787   7.593   3.494   7.776 -0.0439 -0.3122  0.3247
  531TIP3    H125788   7.562   3.438   7.847 -1.1237 -0.7643 -0.4715
  531TIP3    H225789   7.567   3.447   7.696  0.4797  0.5451 -0.3645
  532TIP3   OH225790   6.768   7.462   9.100  0.0437  0.3349  0.3372
  532TIP3    H125791   6.859   7.436   9.118  0.0088  0.9807  1.5731
  532TIP3    H225792   6.776   7.535   9.039  0.1703 -1.8940 -2.5632
  533TIP3   OH225793   3.063   5.191   7.684  0.2015 -0.6514  0.3937
  533TIP3    H125794   3.082   5.274   7.728 -1.6692  0.0614 -0.0645
  533TIP3    H225795   3.064   5.213   7.591 -1.0254 -0.9562  0.2957
  534TIP3   OH225796   4.979   5.692   6.700 -0.1528  0.1188 -0.1813
  534TIP3    H125797   4.968   5.765   6.639 -0.2577  1.3551  1.2699
  534TIP3    H225798   4.948   5.725   6.784  2.6822 -0.5240  1.2401
  535TIP3   OH225799   4.367   6.125   7.798  0.3190 -0.8894 -0.1090
  535TIP3    H125800   4.278   6.127   7.764  0.4104 -0.8388 -0.3504
  535TIP3    H225801   4.386   6.215   7.824  0.0048 -1.0525  0.7316
  536TIP3   OH225802   0.481   2.870   7.496 -0.0241 -0.2135  0.2599
  536TIP3    H125803   0.486   2.901   7.406 -0.0601  1.2815  0.7531
  536TIP3    H225804   0.542   2.797   7.500  0.0575 -0.2259 -0.9409
  537TIP3   OH225805   7.468   2.972   8.359 -0.9114 -0.3408  0.2096
  537TIP3    H125806   7.497   2.929   8.439  0.2297  1.2980  0.7256
  537TIP3    H225807   7.434   2.901   8.304  0.2162 -1.7671  1.2993
  538TIP3   OH225808   7.491   2.103   7.542  0.3561  0.0012 -0.2751
  538TIP3    H125809   7.532   2.038   7.599 -0.2568  0.8621  1.2178
  538TIP3    H225810   7.445   2.161   7.602 -0.0180  1.1766 -1.6486
  539TIP3   OH225811   3.456   1.402   6.941 -0.0288  0.6763  0.8226
  539TIP3    H125812   3.368   1.413   6.905 -0.3118 -0.4495  1.1353
  539TIP3    H225813   3.451   1.320   6.991  0.8970  1.1547  1.7397
  540TIP3   OH225814   6.506   0.876   7.308  0.3776 -0.1287 -0.5232
  540TIP3    H125815   6.435   0.831   7.353  0.4303  1.1126  0.8540
  540TIP3    H225816   6.514   0.829   7.225 -0.9199 -1.3451 -0.0115
  541TIP3   OH225817   3.207   2.235   8.222 -0.1530  0.0468  0.2554
  541TIP3    H125818   3.114   2.255   8.212 -0.3382 -0.1536  1.4753
  541TIP3    H225819   3.238   2.223   8.132 -0.9823  1.5291 -0.2679
  542TIP3   OH225820   4.280   2.141   9.479  0.0488  0.6200 -0.0070
  542TIP3    H125821   4.288   2.101   9.565  0.9330  0.7301 -0.0316
  542TIP3    H225822   4.349   2.101   9.427 -0.5017  0.5211 -0.6876
  543TIP3   OH225823   6.318   0.193   6.516  0.5451  0.3497 -0.1139
  543TIP3    H125824   6.249   0.195   6.583  0.3569 -2.6361 -0.0780
  543TIP3    H225825   6.288   0.255   6.450 -2.2001 -0.7568 -0.0512
  544TIP3   OH225826   2.927   6.896   7.545 -0.0061  0.4210  0.1508
  544TIP3    H125827   2.860   6.828   7.547  1.1822 -0.7976  0.4926
  544TIP3    H225828   2.879   6.978   7.557 -1.3825 -0.4258  0.7196
  545TIP3   OH225829   3.456   1.880   7.119  0.6500 -0.2715 -0.2448
  545TIP3    H125830   3.380   1.871   7.060 -0.1864  2.5723  0.2122
  545TIP3    H225831   3.531   1.854   7.066 -0.3982 -0.7093 -1.5656
  546TIP3   OH225832   6.842   4.737   7.552 -0.0605  0.2342 -0.2751
  546TIP3    H125833   6.820   4.828   7.574 -0.2369  0.2143 -0.3680
  546TIP3    H225834   6.910   4.744   7.486  0.5411  0.2960  0.3338
  547TIP3   OH225835   6.141   2.073   7.209  0.0246  0.2461  0.1452
  547TIP3    H125836   6.130   2.157   7.164 -1.8317  0.2651  0.5819
  547TIP3    H225837   6.060   2.061   7.259  0.2451 -1.8074  0.0905
  548TIP3   OH225838   6.675   6.926   8.874 -0.4303  0.5713 -0.1922
  548TIP3    H125839   6.672   6.952   8.782 -0.4728  1.4286  0.0449
  548TIP3    H225840   6.763   6.949   8.903 -0.4738  0.4647  0.0280
  549TIP3   OH225841   5.804   3.311   7.944  0.2266 -0.0201  0.3037
  549TIP3    H125842   5.756   3.376   7.997 -1.0655 -0.1663 -0.6553
  549TIP3    H225843   5.780   3.227   7.982  0.6645 -0.0413  0.5489
  550TIP3   OH225844   0.088   2.176   7.481  0.0998 -0.0795  0.5977
  550TIP3    H125845   0.110   2.260   7.440  2.6777 -1.1310 -0.3900
  550TIP3    H225846  -0.006   2.181   7.498 -0.5659  1.6234 -2.7679
  551TIP3   OH225847   3.965   7.483   9.687 -0.6966  0.1566  0.6652
  551TIP3    H125848   3.889   7.530   9.653 -0.6491 -0.4100 -0.2475
  551TIP3    H225849   3.974   7.406   9.630  1.7272  1.1846 -0.4959
  552TIP3   OH225850   2.363   1.789   8.026  0.0733 -0.0921 -0.3864
  552TIP3    H125851   2.433   1.757   7.970  0.0167  0.9515 -1.0695
  552TIP3    H225852   2.284   1.746   7.994 -0.1099  1.1875 -1.7305
  553TIP3   OH225853   6.223   6.011   9.035 -0.5689 -0.7359  0.2915
  553TIP3    H125854   6.242   6.041   9.123  1.5409 -0.9231 -0.0640
  553TIP3    H225855   6.232   6.088   8.980 -1.2442 -0.7580  0.1326
  554TIP3   OH225856   0.084   5.945   8.219  0.5927  0.1496  0.1573
  554TIP3    H125857   0.171   5.919   8.188  0.3432  1.0001 -1.3275
  554TIP3    H225858   0.023   5.890   8.170  0.2765 -1.7759  2.5091
  555TIP3   OH225859   2.882   0.732   9.018  0.2040 -0.0096  0.2445
  555TIP3    H125860   2.863   0.775   8.935  0.6803 -1.5866 -0.7079
  555TIP3    H225861   2.962   0.682   9.003  0.3986 -0.1966  1.7078
  556TIP3   OH225862   5.725   5.978   9.037  0.0829 -0.4545  0.0078
  556TIP3    H125863   5.704   6.008   9.126  0.3148 -2.5862  0.8300
  556TIP3    H225864   5.821   5.979   9.034  0.0698  0.1585 -0.4441
  557TIP3   OH225865   0.969   5.674   8.862 -0.4491 -0.1082 -0.5968
  557TIP3    H125866   0.987   5.749   8.805 -2.2769  0.3308 -0.6630
  557TIP3    H225867   0.989   5.598   8.808  1.1702  0.3008 -0.6230
  558TIP3   OH225868   5.818   5.133   9.542  0.2212 -0.1713  0.3838
  558TIP3    H125869   5.765   5.175   9.610 -0.4601  0.7511 -0.6804
  558TIP3    H225870   5.764   5.136   9.464  2.2971  1.9916 -1.1076
  559TIP3   OH225871   0.448   2.956   8.245 -0.0889 -0.3191 -0.4437
  559TIP3    H125872   0.471   2.890   8.180  0.5281 -0.2317 -0.3237
  559TIP3    H225873   0.353   2.961   8.242 -0.0576 -0.1656 -1.4799
  560TIP3   OH225874   1.365   7.051   9.796 -0.2093  0.0327  0.1830
  560TIP3    H125875   1.436   7.037   9.734 -1.4877 -4.3754 -0.6353
  560TIP3    H225876   1.405   7.036   9.882  0.2742 -0.1994 -0.0807
  561TIP3   OH225877   5.621   4.407   7.908 -0.5029 -0.0434 -0.1495
  561TIP3    H125878   5.662   4.406   7.822  0.0090  0.2026  0.0903
  561TIP3    H225879   5.679   4.460   7.963  0.0171 -1.4850  0.7635
  562TIP3   OH225880   1.045   0.372   9.432 -0.4940  0.0946 -0.2826
  562TIP3    H125881   1.112   0.440   9.439  0.0641 -0.3264 -1.3640
  562TIP3    H225882   1.082   0.296   9.477 -1.4752  0.7164  1.7098
  563TIP3   OH225883   0.629   6.067   9.494 -0.2021 -0.0566 -0.1509
  563TIP3    H125884   0.722   6.092   9.496  0.1829 -1.2012 -1.9709
  563TIP3    H225885   0.629   5.972   9.504 -1.0610 -0.2334 -1.5388
  564TIP3   OH225886   4.961   6.787   7.519  0.2516 -0.1098  0.3258
  564TIP3    H125887   4.922   6.701   7.511  2.0417 -0.9784  0.4580
  564TIP3    H225888   4.941   6.815   7.609 -1.6632  0.3331 -0.2042
  565TIP3   OH225889   4.962   4.052   8.056  0.0591 -0.1988  0.1518
  565TIP3    H125890   5.027   3.984   8.073 -0.8965 -1.0427  0.4804
  565TIP3    H225891   4.919   4.025   7.975  1.0777  1.1303 -0.9069
  566TIP3   OH225892   5.149   5.916   7.418  0.6388  0.4906 -0.4939
  566TIP3    H125893   5.220   5.854   7.432  0.3160  0.2269  0.0365
  566TIP3    H225894   5.074   5.878   7.464  0.1411  0.7452 -1.0624
  567TIP3   OH225895   0.198   5.621   9.268 -0.2090 -0.3042  0.0134
  567TIP3    H125896   0.216   5.711   9.293  2.1521  0.0504 -2.4564
  567TIP3    H225897   0.265   5.569   9.313  2.3851  0.0413 -3.0895
  568TIP3   OH225898   5.284   4.038   7.551 -0.0106  0.0098 -0.4048
  568TIP3    H125899   5.351   4.100   7.522 -0.5075  0.8705  0.2336
  568TIP3    H225900   5.312   4.011   7.638 -1.2989  1.6643  0.5872
  569TIP3   OH225901   0.596   7.503   9.265 -0.2084  0.1796 -0.1421
  569TIP3    H125902   0.669   7.546   9.219 -0.1183 -0.8308 -0.9710
  569TIP3    H225903   0.569   7.567   9.331  1.7693  0.3587  0.5489
  570TIP3   OH225904   1.982   4.193   8.138 -0.1895 -0.5367 -0.4183
  570TIP3    H125905   1.893   4.226   8.149 -0.2997 -1.2382  1.0893
  570TIP3    H225906   1.990   4.124   8.204  0.6110 -2.3407 -2.3347
  571TIP3   OH225907   2.093   6.915   8.392 -0.0200 -0.0072  0.7532
  571TIP3    H125908   2.175   6.939   8.350 -0.0827 -0.8858  0.0957
  571TIP3    H225909   2.028   6.920   8.322 -0.3390 -0.3048  1.0229
  572TIP3   OH225910   2.568   3.775   7.810  0.1910  0.4112  0.5123
  572TIP3    H125911   2.622   3.829   7.751 -0.1132  0.6545  0.4544
  572TIP3    H225912   2.510   3.727   7.752  1.5726 -1.2586  0.4366
  573TIP3   OH225913   6.079   0.278   8.713 -0.3831  0.1068 -0.3601
  573TIP3    H125914   6.159   0.314   8.751 -1.9322  1.6333  1.7323
  573TIP3    H225915   6.092   0.183   8.712  1.1098  0.2698  0.7610
  574TIP3   OH225916   6.950   0.140   8.068  0.0456 -0.1435  0.1526
  574TIP3    H125917   6.858   0.115   8.064 -0.6118  1.9058  0.8182
  574TIP3    H225918   6.996   0.062   8.098 -1.3290 -1.4678 -1.0512
  575TIP3   OH225919   2.597   5.398   8.004  0.2830  0.3257  0.3221
  575TIP3    H125920   2.543   5.338   8.056  1.5869  0.4792  1.9494
  575TIP3    H225921   2.685   5.361   8.008  0.8152  1.4936  0.0165
  576TIP3   OH225922   1.928   6.390   8.022  0.0719  0.6875 -0.5107
  576TIP3    H125923   1.915   6.407   7.929  1.3861  0.9700 -0.6587
  576TIP3    H225924   1.840   6.394   8.059 -0.5635 -0.1392 -1.8392
  577TIP3   OH225925   1.267   4.650   9.195 -0.2336  0.2052  0.6059
  577TIP3    H125926   1.343   4.626   9.248 -0.1637  0.9780  0.8573
  577TIP3    H225927   1.285   4.611   9.109  0.2860  0.0954  0.7635
  578TIP3   OH225928   0.038   3.627   8.116 -0.2879 -0.0283 -0.4271
  578TIP3    H125929   0.111   3.575   8.083 -0.3844 -0.2090 -0.3607
  578TIP3    H225930  -0.038   3.569   8.107 -0.4417  0.1994 -0.6016
  579TIP3   OH225931   2.647   0.648   8.461  0.1748 -0.2341 -0.4063
  579TIP3    H125932   2.673   0.561   8.492 -1.4143 -0.8150 -0.6350
  579TIP3    H225933   2.568   0.669   8.510  0.4363  1.0197 -0.4894
  580TIP3   OH225934   4.821   5.034   9.393 -0.0592 -0.2597  0.3319
  580TIP3    H125935   4.908   5.070   9.409 -0.2524  0.6090 -0.5053
  580TIP3    H225936   4.761   5.106   9.409 -0.5826 -0.6677  0.2439
  581TIP3   OH225937   2.804   2.959   7.752 -0.1147  0.0053 -0.5005
  581TIP3    H125938   2.876   2.900   7.773 -0.4948 -0.7495 -1.2287
  581TIP3    H225939   2.804   2.962   7.656 -0.0136  1.3172 -0.4733
  582TIP3   OH225940   4.541   5.718   7.036 -0.3765 -0.0670  0.5317
  582TIP3    H125941   4.479   5.768   7.088 -0.7549 -0.6287  0.6221
  582TIP3    H225942   4.550   5.768   6.954  0.0168  0.6706  1.0133
  583TIP3   OH225943   2.784   1.207   6.728  0.1922  0.1251  0.6884
  583TIP3    H125944   2.811   1.293   6.761 -2.1096  0.3780  2.1202
  583TIP3    H225945   2.716   1.178   6.789 -0.0152 -2.1439 -0.5099
  584TIP3   OH225946   3.301   4.945   6.865  0.0683  0.2556 -0.2986
  584TIP3    H125947   3.345   4.861   6.855  0.0445  0.1997  0.0617
  584TIP3    H225948   3.269   4.966   6.777  0.7195  0.2513 -0.5395
  585TIP3   OH225949   2.382   7.108   8.448 -0.5418  0.1539 -0.1173
  585TIP3    H125950   2.410   7.035   8.504 -0.6935 -0.5810 -0.9756
  585TIP3    H225951   2.340   7.066   8.373 -2.1183  1.1665  0.1480
  586TIP3   OH225952   6.031   3.155   7.530 -0.3158 -0.3161 -0.4023
  586TIP3    H125953   5.982   3.086   7.484 -0.5435 -1.0179  0.8485
  586TIP3    H225954   6.054   3.115   7.614 -2.7401  1.9721  1.5043
  587TIP3   OH225955   2.513   7.319   7.651 -0.0820  0.4345  0.2359
  587TIP3    H125956   2.554   7.393   7.696 -2.2259  1.1567  1.1534
  587TIP3    H225957   2.485   7.354   7.567 -1.9535  1.0097  1.0498
  588TIP3   OH225958   3.727   5.368   8.007 -0.2217 -0.1809  0.2614
  588TIP3    H125959   3.731   5.321   8.090 -1.8824  1.7802  1.5523
  588TIP3    H225960   3.781   5.446   8.021  0.5778 -0.4862 -0.9996
  589TIP3   OH225961   7.649   5.361   7.492 -0.2488 -0.3118  0.2064
  589TIP3    H125962   7.664   5.453   7.474  0.1191 -0.7041 -1.7058
  589TIP3    H225963   7.733   5.319   7.475 -0.8291 -1.2013 -0.6009
  590TIP3   OH225964   4.979   2.572   7.565  0.3583  0.2280  0.0417
  590TIP3    H125965   5.013   2.570   7.476 -0.2327 -1.9299 -0.1887
  590TIP3    H225966   4.897   2.621   7.559 -0.4539 -1.1835 -0.9476
  591TIP3   OH225967   4.305   4.335   8.787 -0.2893 -0.0798 -1.1062
  591TIP3    H125968   4.268   4.319   8.874 -1.1228  0.5367 -1.3391
  591TIP3    H225969   4.394   4.365   8.804 -0.1652 -0.7517 -0.5046
  592TIP3   OH225970   7.048   7.120   7.421  0.8492  0.4044 -0.3375
  592TIP3    H125971   6.980   7.087   7.362  2.7673  0.0326 -2.5032
  592TIP3    H225972   7.023   7.087   7.507 -1.0457 -0.7141 -1.2400
  593TIP3   OH225973   5.581   0.655   8.478 -0.0958  0.2276 -0.0943
  593TIP3    H125974   5.592   0.694   8.564  1.6489 -1.0604  0.3267
  593TIP3    H225975   5.671   0.640   8.447 -0.6946  0.0028 -1.8233
  594TIP3   OH225976   7.486   6.113   6.995  0.0230  0.0906  0.7740
  594TIP3    H125977   7.555   6.174   6.969 -0.0224 -0.1588  0.0593
  594TIP3    H225978   7.511   6.029   6.956  0.0916 -0.3624  1.7602
  595TIP3   OH225979   4.890   3.294   8.797 -0.2589  0.3575 -0.2149
  595TIP3    H125980   4.861   3.365   8.854 -1.2243 -1.2084  1.3548
  595TIP3    H225981   4.808   3.256   8.764  0.2451 -0.0366 -1.0391
  596TIP3   OH225982   2.064   6.093   9.132 -0.2966  0.0555 -0.2292
  596TIP3    H125983   1.971   6.073   9.142 -0.1793 -1.0168 -1.1442
  596TIP3    H225984   2.070   6.187   9.149 -1.3665 -0.0733  0.9644
  597TIP3   OH225985   0.652   3.862   7.408 -0.5574 -0.0467  0.2291
  597TIP3    H125986   0.742   3.837   7.428 -0.0650  2.4666  1.5759
  597TIP3    H225987   0.598   3.800   7.457  0.4562 -0.6715  0.5702
  598TIP3   OH225988   7.095   7.088   8.081 -0.5481 -0.2202  0.4172
  598TIP3    H125989   7.157   7.079   8.009 -0.2162 -1.3285  0.8198
  598TIP3    H225990   7.031   7.152   8.050 -0.9313 -1.3504 -1.2268
  599TIP3   OH225991   2.360   0.890   7.601 -0.2322  0.5372 -0.1753
  599TIP3    H125992   2.388   0.858   7.687  0.4628 -0.4823 -0.7605
  599TIP3    H225993   2.403   0.832   7.539 -5.4657 -2.8842 -1.2268
  600TIP3   OH225994   2.513   1.572   7.873 -0.3296 -0.1505 -0.4475
  600TIP3    H125995   2.445   1.612   7.819  0.7622 -0.0247 -1.7643
  600TIP3    H225996   2.484   1.481   7.883 -1.4024  0.2367  0.2381
  601TIP3   OH225997   4.921   0.750   9.144  0.1014  0.2169 -0.0230
  601TIP3    H125998   4.912   0.683   9.213  2.1031 -1.8714 -1.6290
  601TIP3    H225999   5.015   0.768   9.140 -0.1332  1.3267 -1.2815
  602TIP3   OH226000   1.943   5.119   7.929  0.4865 -0.4087 -0.0232
  602TIP3    H126001   1.969   5.084   7.844 -0.5515  0.2089 -0.6121
  602TIP3    H226002   1.848   5.108   7.932  0.1343  2.0157 -0.1359
  603TIP3   OH226003   1.767   1.299   8.714  0.2558 -0.0565  0.0788
  603TIP3    H126004   1.780   1.296   8.809  0.3489 -0.2963  0.0578
  603TIP3    H226005   1.806   1.218   8.682 -0.1463 -0.1692 -0.1223
  604TIP3   OH226006   2.986   5.790   6.927 -0.5812 -0.1237  0.4148
  604TIP3    H126007   2.939   5.874   6.928  1.3103  1.0043  1.7564
  604TIP3    H226008   2.981   5.761   6.836 -0.3330  2.0561 -0.3624
  605TIP3   OH226009   6.451   0.014   8.894 -0.0085  0.5269  0.2881
  605TIP3    H126010   6.494  -0.057   8.942 -2.2411 -0.9495  0.2625
  605TIP3    H226011   6.521   0.077   8.878  1.9727 -1.3843  0.8116
  606TIP3   OH226012   1.256   3.374   7.240  0.2971  1.1575 -0.3352
  606TIP3    H126013   1.318   3.310   7.275  0.4291  0.1448 -2.2867
  606TIP3    H226014   1.299   3.459   7.251  0.5729  0.8295  1.3215
  607TIP3   OH226015   4.200   4.829   8.361 -0.2716 -0.1148  0.2311
  607TIP3    H126016   4.230   4.833   8.270 -1.7880  2.0375 -0.2454
  607TIP3    H226017   4.129   4.765   8.360  0.5747 -1.0662  0.1927
  608TIP3   OH226018   3.822   3.285   9.078 -0.1988 -0.4861  0.5499
  608TIP3    H126019   3.861   3.233   9.149 -2.4379 -0.2927  2.0387
  608TIP3    H226020   3.732   3.300   9.107 -0.3207  2.2415 -0.9392
  609TIP3   OH226021   4.997   7.069   9.600 -0.4215 -0.6616 -0.4190
  609TIP3    H126022   4.982   7.148   9.549 -3.7313  0.1360  1.4917
  609TIP3    H226023   5.017   7.102   9.688 -2.1269 -1.8737  0.4716
  610TIP3   OH226024   2.510   5.950   9.650  0.3238  0.1284  0.0568
  610TIP3    H126025   2.589   5.997   9.624  0.4902 -1.3403 -2.4066
  610TIP3    H226026   2.538   5.858   9.658 -0.4633  0.0262  2.4962
  611TIP3   OH226027   5.848   6.718   7.789 -0.9733 -0.1734 -0.4235
  611TIP3    H126028   5.847   6.782   7.718  0.0031  0.4035  0.0684
  611TIP3    H226029   5.915   6.749   7.849 -0.8936 -1.3475  0.1257
  612TIP3   OH226030   3.119   7.563   7.540 -0.3437  0.0411 -0.2253
  612TIP3    H126031   3.115   7.470   7.562 -1.6891  0.1526  0.0613
  612TIP3    H226032   3.140   7.564   7.446  1.4434 -0.4976  0.1336
  613TIP3   OH226033   2.662   4.682   7.329  0.4153  0.7105 -0.0415
  613TIP3    H126034   2.709   4.758   7.293  0.6121  0.3317 -0.5996
  613TIP3    H226035   2.603   4.655   7.259  1.0652 -0.2579 -0.2303
  614TIP3   OH226036   2.986   7.311   7.488 -0.1418 -0.0040 -0.4933
  614TIP3    H126037   2.909   7.279   7.536  0.1310 -1.7138 -1.1375
  614TIP3    H226038   2.949   7.360   7.414 -0.5921  0.0116 -0.2660
  615TIP3   OH226039   0.142   7.162   7.243  0.1355  0.1606 -0.4987
  615TIP3    H126040   0.133   7.074   7.206  1.1593  0.8873 -2.5842
  615TIP3    H226041   0.057   7.203   7.229 -0.9871 -0.9843  2.1248
  616TIP3   OH226042   4.995   5.165   8.285  0.2728 -0.3554 -0.3337
  616TIP3    H126043   4.992   5.116   8.367 -2.6569  0.8139  0.3519
  616TIP3    H226044   4.929   5.123   8.230  0.4346  0.4501 -1.1606
  617TIP3   OH226045   7.619   3.880   7.033 -0.0570  0.1117 -0.2933
  617TIP3    H126046   7.644   3.970   7.010 -0.5312  0.1843 -0.5438
  617TIP3    H226047   7.651   3.827   6.960  2.4222 -0.2876  0.9721
  618TIP3   OH226048   2.180   0.371   8.476  0.1610 -0.6653  0.0043
  618TIP3    H126049   2.268   0.339   8.456 -0.2333 -2.0321  0.3407
  618TIP3    H226050   2.122   0.310   8.431 -0.6460 -1.2304  1.7428
  619TIP3   OH226051   1.132   5.470   8.071  0.0526  0.0553  0.1956
  619TIP3    H126052   1.050   5.444   8.111  0.6504 -1.6061  0.4189
  619TIP3    H226053   1.187   5.498   8.144  0.1424 -0.1455  0.2063
  620TIP3   OH226054   5.165   0.390   7.815  0.1080  0.0651  0.1415
  620TIP3    H126055   5.113   0.403   7.894 -1.5354  0.4309 -0.9399
  620TIP3    H226056   5.226   0.464   7.814  0.2609 -0.0347  1.1335
  621TIP3   OH226057   0.499   5.647   8.195  0.0000  0.0086 -0.2096
  621TIP3    H126058   0.588   5.644   8.160  0.2209  1.6602  0.1136
  621TIP3    H226059   0.508   5.623   8.287  0.3310  1.3987  0.1416
  622TIP3   OH226060   6.047   6.360   8.649 -0.1789 -0.1613 -0.4765
  622TIP3    H126061   5.961   6.318   8.640 -0.7959  1.2212 -1.5598
  622TIP3    H226062   6.098   6.327   8.576 -0.1017 -0.2689 -0.3750
  623TIP3   OH226063   6.188   4.890   8.906  0.1463  0.2509  0.1218
  623TIP3    H126064   6.187   4.937   8.990 -1.4004  0.8948 -0.2247
  623TIP3    H226065   6.099   4.858   8.895  0.7444 -1.2588 -0.5145
  624TIP3   OH226066   7.669   4.531   6.515  0.6767 -0.6824  0.5760
  624TIP3    H126067   7.689   4.438   6.503  1.5140 -0.2891 -1.4681
  624TIP3    H226068   7.574   4.537   6.504  0.3952 -1.4627  2.2652
  625TIP3   OH226069   5.729   2.276   8.249 -0.1966 -0.2573  0.4724
  625TIP3    H126070   5.652   2.247   8.200 -2.3023  1.8692  2.2500
  625TIP3    H226071   5.736   2.213   8.321 -1.3001  0.3686  1.1665
  626TIP3   OH226072   1.332   4.129   8.230 -0.1560 -0.0855 -0.5611
  626TIP3    H126073   1.295   4.048   8.194 -2.0488  0.3247  0.3091
  626TIP3    H226074   1.308   4.196   8.167 -0.3593  0.0785 -0.3155
  627TIP3   OH226075   6.043   7.169   8.035 -0.9826  0.0140  0.3070
  627TIP3    H126076   6.022   7.139   8.123 -0.8169  0.3853  0.4772
  627TIP3    H226077   6.079   7.257   8.048 -0.3008 -0.2024 -0.0631
  628TIP3   OH226078   6.070   5.096   9.436  0.4360  0.2528 -0.2771
  628TIP3    H126079   6.123   5.162   9.481  1.4609  1.0248 -2.5123
  628TIP3    H226080   5.982   5.108   9.471  0.6405  2.6463 -0.4301
  629TIP3   OH226081   0.485   4.396   7.083 -0.5829  0.0426 -0.6395
  629TIP3    H126082   0.478   4.490   7.063 -1.2710 -0.0570 -0.8851
  629TIP3    H226083   0.551   4.364   7.021  1.5783  0.8236  1.1120
  630TIP3   OH226084   2.784   0.917   8.521  0.0420  0.0399 -0.1830
  630TIP3    H126085   2.694   0.893   8.543  0.8668 -1.4416  1.9655
  630TIP3    H226086   2.796   0.885   8.431 -1.5044  0.0856 -0.4318
  631TIP3   OH226087   0.919   0.051   9.802 -0.2285  0.2377 -0.0206
  631TIP3    H126088   0.902  -0.043   9.799 -0.4657  0.2588  0.4649
  631TIP3    H226089   0.839   0.091   9.766  0.5784  0.2096 -1.9331
  632TIP3   OH226090   7.324   2.766   8.808 -0.0710 -0.0918 -0.1521
  632TIP3    H126091   7.277   2.781   8.890  2.0266  2.4287  0.7453
  632TIP3    H226092   7.379   2.690   8.826  0.7798  0.7562  1.0815
  633TIP3   OH226093   6.446   0.975   8.235  0.0865 -0.2055 -0.1921
  633TIP3    H126094   6.480   0.962   8.323  0.9412 -0.2354 -0.5144
  633TIP3    H226095   6.490   1.054   8.203 -0.5143  0.0313 -0.4470
  634TIP3   OH226096   1.037   1.805   9.213 -0.3050 -0.4593 -0.4800
  634TIP3    H126097   1.006   1.716   9.232  2.3106 -1.6998 -1.5096
  634TIP3    H226098   1.127   1.793   9.182  0.3541  2.6344 -0.0796
  635TIP3   OH226099   7.183   5.589   7.547 -0.1213 -0.0256  0.2545
  635TIP3    H126100   7.220   5.676   7.531 -0.8369  0.9798  3.2690
  635TIP3    H226101   7.100   5.590   7.501  1.0046 -0.1644 -1.9001
  636TIP3   OH226102   3.934   3.499   7.145  0.2538 -0.4266  0.2610
  636TIP3    H126103   3.994   3.425   7.133 -0.2743 -0.8141  0.0017
  636TIP3    H226104   3.847   3.463   7.130  0.1362  0.8679 -3.0648
  637TIP3   OH226105   6.668   4.819   9.437  0.3495 -0.1222 -0.0855
  637TIP3    H126106   6.740   4.874   9.406  0.6318 -0.6000 -0.2910
  637TIP3    H226107   6.696   4.729   9.416 -1.1638 -0.2044 -2.0416
  638TIP3   OH226108   5.925   3.863   8.516 -0.0702 -0.9035 -0.8472
  638TIP3    H126109   5.945   3.956   8.516 -2.0429 -0.4360 -1.5122
  638TIP3    H226110   5.965   3.830   8.597 -1.7997  1.0978  0.9426
  639TIP3   OH226111   6.841   2.046   7.646 -0.3964  0.4406  0.2771
  639TIP3    H126112   6.782   2.121   7.649 -0.7898  0.1030  1.5721
  639TIP3    H226113   6.804   1.989   7.578  0.3229  1.7075 -1.2608
  640TIP3   OH226114   2.216   5.996   8.389 -0.3136  0.9407 -0.2216
  640TIP3    H126115   2.140   6.034   8.345  0.3522 -0.1896 -2.4725
  640TIP3    H226116   2.288   6.008   8.327  1.0147  0.6061  1.2084
  641TIP3   OH226117   6.205   1.506   7.082  0.5000 -0.8358  0.6372
  641TIP3    H126118   6.171   1.556   7.008  0.7664 -1.1686  0.2842
  641TIP3    H226119   6.165   1.419   7.074 -1.4044 -0.1781  2.2876
  642TIP3   OH226120   6.871   3.944   9.193 -0.0881 -0.0597  0.5579
  642TIP3    H126121   6.897   3.882   9.261  0.1325  0.9786  1.4406
  642TIP3    H226122   6.935   4.015   9.198 -1.1074  0.8941  0.4868
  643TIP3   OH226123   0.343   0.228   8.795  0.1632  0.7658 -0.0142
  643TIP3    H126124   0.353   0.287   8.869  2.4863 -1.8286  2.0022
  643TIP3    H226125   0.433   0.202   8.773 -0.6642 -1.4061 -1.2050
  644TIP3   OH226126   6.189   5.757   7.237 -0.1957 -0.0954 -0.0262
  644TIP3    H126127   6.194   5.699   7.160 -0.0307 -2.0292  1.3741
  644TIP3    H226128   6.227   5.840   7.206 -0.5529 -0.6515 -2.1507
  645TIP3   OH226129   6.053   7.369   7.288  0.3941  0.2611 -0.1143
  645TIP3    H126130   6.145   7.366   7.314  0.8045 -0.1290 -1.4953
  645TIP3    H226131   6.054   7.349   7.194 -0.9229  1.9911 -0.5682
  646TIP3   OH226132   0.341   7.566   7.274 -0.4829 -0.2486  0.3987
  646TIP3    H126133   0.399   7.620   7.221  0.4559 -2.0113 -0.4597
  646TIP3    H226134   0.255   7.607   7.266 -0.5694 -0.8488 -3.1773
  647TIP3   OH226135   0.652   2.853   8.420  0.0656 -0.6376 -0.0256
  647TIP3    H126136   0.603   2.907   8.358 -0.9885 -1.0968  0.3970
  647TIP3    H226137   0.586   2.813   8.476  1.0515  1.0771  2.5343
  648TIP3   OH226138   2.959   1.441   6.991  0.1029  0.5859 -0.1856
  648TIP3    H126139   2.873   1.416   6.957  0.8885 -2.6590 -0.1237
  648TIP3    H226140   2.942   1.475   7.078 -1.0666 -1.1012  0.2790
  649TIP3   OH226141   6.620   3.445   8.757 -0.8425 -0.4510 -0.3938
  649TIP3    H126142   6.666   3.486   8.830 -1.1418  0.4871 -0.7218
  649TIP3    H226143   6.529   3.476   8.766 -1.4253 -2.2145  0.2040
  650TIP3   OH226144   3.973   2.504   8.101  0.4747  0.3610  0.2088
  650TIP3    H126145   3.991   2.452   8.179  2.6546  0.4341 -0.1679
  650TIP3    H226146   3.980   2.595   8.130  1.0621  0.3889  0.0021
  651TIP3   OH226147   3.460   0.151   7.894 -0.0343 -0.7327  0.5383
  651TIP3    H126148   3.449   0.092   7.969 -1.3182 -1.2608 -0.0213
  651TIP3    H226149   3.389   0.127   7.835  0.1051  0.6276 -0.2239
  652TIP3   OH226150   6.488   4.759   9.760  0.2225  0.8050  0.2813
  652TIP3    H126151   6.405   4.714   9.775 -0.0893  1.2909  0.0327
  652TIP3    H226152   6.511   4.739   9.670 -0.7710  2.4913 -0.3874
  653TIP3   OH226153   0.621   3.774   7.141  0.0124  0.0640  0.1930
  653TIP3    H126154   0.688   3.821   7.091 -0.1450  1.1483  0.9694
  653TIP3    H226155   0.625   3.813   7.229 -1.3466 -0.1386  0.3681
  654TIP3   OH226156   5.407   1.420   7.283  0.4446 -0.1567 -0.0722
  654TIP3    H126157   5.433   1.358   7.351  2.2254 -0.3625 -0.8990
  654TIP3    H226158   5.444   1.386   7.202 -0.1090  1.0182 -0.8582
  655TIP3   OH226159   7.248   0.573   8.698  0.1795 -0.6287 -0.3715
  655TIP3    H126160   7.241   0.507   8.629  0.1078 -1.1549  0.1300
  655TIP3    H226161   7.161   0.614   8.701 -0.3944 -1.8615  0.6355
  656TIP3   OH226162   4.903   0.478   9.576 -0.4372 -0.8328  0.9658
  656TIP3    H126163   4.862   0.435   9.651  0.1168 -2.9304  0.1384
  656TIP3    H226164   4.985   0.513   9.610 -0.9260 -0.3415  1.6745
  657TIP3   OH226165   4.212   5.046   8.994 -0.0408 -0.6396 -0.7654
  657TIP3    H126166   4.161   4.975   9.033 -0.1041 -0.5543 -0.6936
  657TIP3    H226167   4.235   5.102   9.067 -0.2844 -0.4016 -0.8715
  658TIP3   OH226168   4.403   7.095   7.553 -0.6968 -0.6229 -0.3159
  658TIP3    H126169   4.398   7.027   7.485  1.8613  0.9119 -2.2404
  658TIP3    H226170   4.380   7.176   7.507  0.6601  0.4017  0.7409
  659TIP3   OH226171   1.124   4.358   9.217  0.1533  0.2767  0.0938
  659TIP3    H126172   1.163   4.440   9.185  0.4170  0.9143  1.9492
  659TIP3    H226173   1.067   4.385   9.289 -0.9907 -1.0306 -0.2757
  660TIP3   OH226174   2.467   3.307   8.040  0.8263 -0.2208 -0.5861
  660TIP3    H126175   2.519   3.338   8.114 -1.3246  2.1403  0.0706
  660TIP3    H226176   2.513   3.340   7.963  1.5003 -0.1510 -0.1630
  661TIP3   OH226177   1.105   7.054   8.649  0.1932 -0.1881  0.0821
  661TIP3    H126178   1.172   7.009   8.598  0.3804  1.2584 -1.0186
  661TIP3    H226179   1.042   7.085   8.584 -0.2630  0.5606  0.8527
  662TIP3   OH226180   4.335   2.188   7.359 -0.0220  0.3180 -0.1825
  662TIP3    H126181   4.368   2.135   7.286  1.0499  2.4272 -1.3437
  662TIP3    H226182   4.412   2.204   7.414 -1.0898 -2.5212  2.4172
  663TIP3   OH226183   4.286   1.601   9.340  0.6623  0.5194 -0.0568
  663TIP3    H126184   4.205   1.642   9.372  0.1023  1.0708 -2.0211
  663TIP3    H226185   4.267   1.507   9.340 -0.3964  0.6929 -1.4328
  664TIP3   OH226186   2.860   3.442   8.411  0.1349  0.6476 -0.2283
  664TIP3    H126187   2.811   3.518   8.444  2.6505  1.4308  2.1219
  664TIP3    H226188   2.942   3.479   8.379  0.8742 -0.9492 -0.2550
  665TIP3   OH226189   6.311   7.271   7.852 -0.1462 -0.7862  0.2427
  665TIP3    H126190   6.250   7.321   7.907  1.3926  0.4539  0.9294
  665TIP3    H226191   6.324   7.326   7.775  1.8268  0.1363  1.1592
  666TIP3   OH226192   7.363   0.277   7.965  0.0899  0.0327  0.1667
  666TIP3    H126193   7.291   0.324   7.923  0.0944 -1.0027 -1.0865
  666TIP3    H226194   7.326   0.192   7.989  0.7388 -0.3159 -0.0230
  667TIP3   OH226195   7.185   4.053   7.958 -0.4604 -0.2854  0.1647
  667TIP3    H126196   7.218   4.139   7.986  1.7188 -1.6879  2.3499
  667TIP3    H226197   7.207   4.048   7.865  1.7543  0.5764  0.5819
  668TIP3   OH226198   3.807   2.908   7.248 -0.1318  0.1963  0.8969
  668TIP3    H126199   3.713   2.912   7.231  0.0890 -0.5715 -0.5988
  668TIP3    H226200   3.827   2.992   7.290 -1.0595  1.4190 -0.9998
  669TIP3   OH226201   3.663   0.471   8.332 -0.2288 -0.4166 -0.2196
  669TIP3    H126202   3.737   0.468   8.272  0.8755 -1.9522  1.1013
  669TIP3    H226203   3.596   0.522   8.287  1.3030  0.2549 -1.8326
  670TIP3   OH226204   5.274   6.265   9.259  0.5173  0.2055  0.1303
  670TIP3    H126205   5.335   6.303   9.321  0.7710  0.1230 -0.0668
  670TIP3    H226206   5.229   6.196   9.308 -0.1304  0.9239  0.5646
  671TIP3   OH226207   3.400   7.254   6.808  0.0368  0.2699  0.5559
  671TIP3    H126208   3.333   7.306   6.853  0.0982  1.3333 -0.5205
  671TIP3    H226209   3.482   7.284   6.846 -0.0149 -0.1321  0.9925
  672TIP3   OH226210   3.268   5.573   9.049 -0.4280 -0.0304  0.3100
  672TIP3    H126211   3.197   5.616   9.001  0.2737  0.6865 -0.1109
  672TIP3    H226212   3.291   5.497   8.996 -1.4035 -0.7434  0.8559
  673TIP3   OH226213   4.566   3.336   6.982 -0.3313 -0.1851 -0.4120
  673TIP3    H126214   4.600   3.382   6.906  2.4880 -1.1180  0.1559
  673TIP3    H226215   4.615   3.372   7.056 -2.2571 -0.0336  0.8517
  674TIP3   OH226216   6.554   5.773   7.881 -0.3260  0.0813  0.4664
  674TIP3    H126217   6.509   5.741   7.959 -0.3953  0.2170  0.4824
  674TIP3    H226218   6.510   5.855   7.860  1.0817  1.1627  1.5423
  675TIP3   OH226219   6.664   5.939   8.631  0.1237  0.4104 -0.2765
  675TIP3    H126220   6.636   5.989   8.555 -1.0928  0.5956  0.2825
  675TIP3    H226221   6.592   5.878   8.648  0.3265  0.4618  0.8155
  676TIP3   OH226222   3.859   2.532   8.924 -0.4229 -0.1724 -0.5678
  676TIP3    H126223   3.794   2.474   8.884  0.0550 -2.4083  1.5593
  676TIP3    H226224   3.857   2.508   9.017  2.1985  0.9055 -0.1434
  677TIP3   OH226225   6.255   3.517   7.574 -1.0276  0.0366  0.3180
  677TIP3    H126226   6.346   3.544   7.586 -0.8229  0.4931 -1.7836
  677TIP3    H226227   6.204   3.598   7.584 -0.8030  0.5374 -1.9804
  678TIP3   OH226228   4.891   7.275   7.864  0.1020  0.5364 -0.1193
  678TIP3    H126229   4.935   7.280   7.779  0.3684 -0.6162 -0.0533
  678TIP3    H226230   4.863   7.366   7.881  0.5476  0.8856 -1.1584
  679TIP3   OH226231   5.014   1.341   8.099 -0.4052 -0.0147  0.2676
  679TIP3    H126232   4.952   1.342   8.172 -0.7930  2.3772 -0.0035
  679TIP3    H226233   4.960   1.362   8.022  0.0698 -2.0632 -0.7026
  680TIP3   OH226234   1.787   2.514   8.907 -0.4741 -0.2281 -0.2614
  680TIP3    H126235   1.845   2.439   8.919 -1.2864 -0.7526  0.5049
  680TIP3    H226236   1.699   2.479   8.921 -0.9933  0.5630 -1.3318
  681TIP3   OH226237   2.060   7.429   7.310  0.0409  0.4846 -0.4393
  681TIP3    H126238   2.100   7.379   7.381  0.1146 -0.2935 -1.0140
  681TIP3    H226239   2.129   7.438   7.245 -0.6163 -0.6028 -1.3066
  682TIP3   OH226240   1.184   1.116   7.431 -0.1349 -0.1097 -0.0611
  682TIP3    H126241   1.220   1.162   7.506 -1.9549 -0.6691  1.2132
  682TIP3    H226242   1.123   1.052   7.468  0.0102 -1.4430 -1.9314
  683TIP3   OH226243   0.197   0.697   7.885  0.0938 -0.4152 -0.2009
  683TIP3    H126244   0.259   0.675   7.815  0.7685  2.0383 -0.4700
  683TIP3    H226245   0.221   0.639   7.957  2.6801  0.3776 -0.3254
  684TIP3   OH226246   0.529   6.533   8.099  0.1340  0.0246  0.9037
  684TIP3    H126247   0.533   6.457   8.041  0.3409  2.7441 -3.0035
  684TIP3    H226248   0.614   6.535   8.143  0.8637 -0.9661 -0.3976
  685TIP3   OH226249   6.412   2.709   7.325  1.1442  0.2255  0.0496
  685TIP3    H126250   6.486   2.759   7.361 -0.2100  1.9559  0.5470
  685TIP3    H226251   6.382   2.656   7.399  1.7735 -0.3716 -0.1128
  686TIP3   OH226252   1.616   0.383   8.342  0.2210  0.1974 -0.1243
  686TIP3    H126253   1.672   0.314   8.306 -0.2864 -0.8368  1.0069
  686TIP3    H226254   1.617   0.368   8.436 -0.8660  1.0140  0.0341
  687TIP3   OH226255   5.409   6.976   7.206  0.0233 -0.3993  0.3029
  687TIP3    H126256   5.369   7.060   7.185 -2.3886 -1.1576  1.4405
  687TIP3    H226257   5.371   6.915   7.144 -0.5784 -1.1320  1.3541
  688TIP3   OH226258   1.154   6.044   8.749 -0.4402  0.9107  0.1896
  688TIP3    H126259   1.128   6.093   8.671 -0.2899  2.2028  0.9201
  688TIP3    H226260   1.122   6.096   8.822 -0.0691  0.0202  1.0121
  689TIP3   OH226261   2.700   1.456   6.912 -0.0490  0.6010  0.0807
  689TIP3    H126262   2.678   1.513   6.839  0.9081 -1.0189 -1.5592
  689TIP3    H226263   2.632   1.472   6.977 -0.8448  2.1961 -1.0875
  690TIP3   OH226264   6.145   2.163   7.829 -0.0978 -0.1212  0.3158
  690TIP3    H126265   6.082   2.104   7.871  0.3006 -0.3764  0.5545
  690TIP3    H226266   6.230   2.132   7.858  0.0819  1.4954  1.7162
  691TIP3   OH226267   1.548   7.215   8.655 -0.0798  0.5403 -0.2173
  691TIP3    H126268   1.557   7.219   8.560 -0.6573  0.7121 -0.2640
  691TIP3    H226269   1.481   7.148   8.670  0.5658 -0.0514  0.1023
  692TIP3   OH226270   2.565   3.624   8.791  0.2953 -0.1196 -0.0218
  692TIP3    H126271   2.521   3.686   8.734 -0.3925  0.8959  1.5532
  692TIP3    H226272   2.551   3.539   8.749 -0.1499  0.5838 -1.3566
  693TIP3   OH226273   0.187   5.891   8.470 -1.1105  0.3908  0.0570
  693TIP3    H126274   0.169   5.969   8.521  1.9028  1.5409 -0.4393
  693TIP3    H226275   0.161   5.913   8.381 -0.4715  0.7737 -0.0402
  694TIP3   OH226276   0.892   3.938   8.849  0.0219  0.6019 -0.5159
  694TIP3    H126277   0.878   3.844   8.832 -0.5065  0.5859 -0.0413
  694TIP3    H226278   0.960   3.940   8.916  0.8143  0.6037 -1.3006
  695TIP3   OH226279   6.992   6.925   7.179  0.0816  0.1259  0.1947
  695TIP3    H126280   7.086   6.909   7.192  0.4350  1.8651 -0.0222
  695TIP3    H226281   6.989   6.989   7.108 -1.2434  0.5544  0.6228
  696TIP3   OH226282   6.940   1.376   9.087  0.0500  0.1512 -0.4934
  696TIP3    H126283   7.016   1.318   9.079  0.3951 -0.3046  3.6784
  696TIP3    H226284   6.971   1.461   9.056  1.5444 -0.5290 -0.9712
  697TIP3   OH226285   6.619   2.355   7.993  0.1700 -0.3754 -0.8108
  697TIP3    H126286   6.608   2.447   7.968 -0.8727 -0.5921 -1.2107
  697TIP3    H226287   6.700   2.327   7.950 -0.2567 -0.0340 -1.8652
  698TIP3   OH226288   2.207   3.430   8.412  0.0019  0.7264 -0.1716
  698TIP3    H126289   2.212   3.398   8.322 -1.7365  1.9350 -0.7601
  698TIP3    H226290   2.124   3.394   8.445  0.2802  0.8784  0.7110
  699TIP3   OH226291   1.882   4.910   7.071 -0.3723 -0.1898  0.6166
  699TIP3    H126292   1.812   4.966   7.104  0.6483  0.8889  1.0485
  699TIP3    H226293   1.920   4.958   6.998  0.0083 -0.6840  0.4802
  700TIP3   OH226294   7.012   2.557   9.333 -0.5966  0.8730 -0.2835
  700TIP3    H126295   6.952   2.632   9.332 -0.8307  0.6852 -0.6145
  700TIP3    H226296   6.955   2.480   9.336 -0.3405  0.7145  1.4564
  701TIP3   OH226297   4.895   4.730   9.126 -0.2205  0.2863  0.1214
  701TIP3    H126298   4.898   4.711   9.220  2.6957 -0.3656  0.0017
  701TIP3    H226299   4.838   4.662   9.090  1.2690 -1.5566  1.0776
  702TIP3   OH226300   3.884   3.729   6.927  0.4055  0.1537  0.7199
  702TIP3    H126301   3.964   3.684   6.955  0.2426 -1.1289 -0.7267
  702TIP3    H226302   3.813   3.684   6.973  0.3321 -0.3515  0.1235
  703TIP3   OH226303   5.625   7.143   9.096 -0.0753 -0.2049  0.4554
  703TIP3    H126304   5.671   7.064   9.069  1.7638  1.8792 -3.2678
  703TIP3    H226305   5.694   7.208   9.108 -1.6849  2.0024 -1.2760
  704TIP3   OH226306   5.666   6.160   8.808 -0.7051 -0.1264  0.2156
  704TIP3    H126307   5.657   6.108   8.888  0.1419  0.1113  0.4798
  704TIP3    H226308   5.662   6.251   8.839 -2.3752 -0.0004 -0.2642
  705TIP3   OH226309   7.039   0.384   7.255  0.2331  0.3029 -0.3646
  705TIP3    H126310   7.097   0.325   7.205  0.6480 -0.3965  0.8960
  705TIP3    H226311   7.049   0.469   7.212  0.3687 -0.3315 -1.6291
  706TIP3   OH226312   6.911   2.324   8.479  0.0753 -0.8837 -0.1658
  706TIP3    H126313   6.917   2.415   8.508 -1.4746 -0.5507 -0.8043
  706TIP3    H226314   6.992   2.309   8.430  0.5489  0.0019  0.3296
  707TIP3   OH226315   1.661   0.632   9.346  0.4852 -0.4161 -0.4823
  707TIP3    H126316   1.613   0.715   9.353  0.2990 -0.3095 -2.4729
  707TIP3    H226317   1.748   0.651   9.381  0.6637  0.8433 -1.5254
  708TIP3   OH226318   0.337   5.692   8.561  0.0599  0.8024 -0.5606
  708TIP3    H126319   0.287   5.751   8.505  0.2076  1.6684  0.1988
  708TIP3    H226320   0.350   5.741   8.642 -0.7300 -0.6767  0.4990
  709TIP3   OH226321   2.744   4.744   6.980  0.3035  0.1760 -0.1949
  709TIP3    H126322   2.739   4.801   7.057 -1.7862  1.7898 -1.4414
  709TIP3    H226323   2.689   4.669   7.003 -0.0433  0.4900  0.0101
  710TIP3   OH226324   1.998   0.402   7.308  0.1429  0.0299 -0.4064
  710TIP3    H126325   1.908   0.431   7.319 -0.2930 -1.9762  2.6162
  710TIP3    H226326   2.051   0.475   7.339 -0.5689  0.3552  0.0694
  711TIP3   OH226327   5.465   6.709   7.600  0.4901 -0.2999  0.0159
  711TIP3    H126328   5.471   6.733   7.692 -1.1114 -0.6833  0.2610
  711TIP3    H226329   5.442   6.616   7.601 -0.2699 -0.1363 -0.7333
  712TIP3   OH226330   1.806   6.751   9.512 -0.0644 -0.3887  0.4245
  712TIP3    H126331   1.729   6.719   9.558  0.5529 -2.2513  0.2494
  712TIP3    H226332   1.877   6.745   9.576  0.3708 -0.8972 -0.0944
  713TIP3   OH226333   5.641   2.551   8.306  0.1413  0.7982 -0.3914
  713TIP3    H126334   5.728   2.575   8.275  0.6132 -1.4161 -0.9296
  713TIP3    H226335   5.635   2.457   8.292 -2.3047  0.8562 -0.2399
  714TIP3   OH226336   4.717   4.997   6.935 -0.0157 -0.1234  0.2064
  714TIP3    H126337   4.665   5.001   7.016  0.2545  1.0838  0.3412
  714TIP3    H226338   4.793   5.054   6.953  0.0771  0.1130 -0.8740
  715TIP3   OH226339   3.335   5.879   8.713 -0.2517 -0.2258 -0.3847
  715TIP3    H126340   3.329   5.787   8.688  0.5226 -0.4583  0.2279
  715TIP3    H226341   3.318   5.879   8.808 -0.1965  0.2489 -0.3722
  716TIP3   OH226342   0.204   5.449   8.607  0.3924 -0.6277  0.4492
  716TIP3    H126343   0.263   5.524   8.595 -1.4223  0.6036 -1.6188
  716TIP3    H226344   0.147   5.475   8.680  1.7443 -1.4405  1.8574
  717TIP3   OH226345   1.695   6.419   8.169 -0.0614  0.5904  0.5152
  717TIP3    H126346   1.753   6.467   8.228  2.6205 -0.2732 -1.2157
  717TIP3    H226347   1.638   6.485   8.132  1.4654  1.9530  0.4908
  718TIP3   OH226348   4.924   1.335   9.315 -0.4169 -0.2683 -0.2745
  718TIP3    H126349   4.848   1.310   9.367 -0.7893  1.1740 -0.0958
  718TIP3    H226350   4.898   1.318   9.225 -1.8333  2.2447 -0.4208
  719TIP3   OH226351   1.218   5.391   7.759  0.3273  0.0978  0.5058
  719TIP3    H126352   1.126   5.367   7.748  0.7090 -0.9726 -0.6241
  719TIP3    H226353   1.239   5.365   7.849 -0.0126 -1.3466  0.1935
  720TIP3   OH226354   3.381   0.044   9.394  0.1771  0.0432  0.6916
  720TIP3    H126355   3.451   0.002   9.444 -0.7490 -0.2461  1.7997
  720TIP3    H226356   3.326  -0.029   9.364  0.2345  0.2776  0.0015
  721TIP3   OH226357   6.882   5.484   9.389  0.7593 -0.6731 -0.9774
  721TIP3    H126358   6.867   5.526   9.473  0.5467 -1.7780 -0.4489
  721TIP3    H226359   6.859   5.551   9.324 -1.0127 -0.4462 -0.1732
  722TIP3   OH226360   5.797   3.992   8.129 -0.1046 -0.4708 -0.1868
  722TIP3    H126361   5.757   3.920   8.178 -2.9996  1.0417 -0.1338
  722TIP3    H226362   5.735   4.011   8.059  0.7838  1.6897 -0.4720
  723TIP3   OH226363   0.162   0.094   7.936  0.0787  0.2676  0.1172
  723TIP3    H126364   0.221   0.125   7.867  0.4824 -0.4640  0.1233
  723TIP3    H226365   0.075   0.096   7.895  0.3409 -0.3614 -0.4965
  724TIP3   OH226366   7.086   5.609   7.167  0.2935 -0.4902 -0.1040
  724TIP3    H126367   7.111   5.578   7.080 -1.1369 -0.3832 -0.5688
  724TIP3    H226368   7.145   5.682   7.184  0.7221 -0.6430 -0.8894
  725TIP3   OH226369   2.752   0.666   7.637  0.1657  0.0375 -0.3189
  725TIP3    H126370   2.836   0.662   7.591  0.5987  1.0779  0.3553
  725TIP3    H226371   2.696   0.604   7.590  1.3960 -0.9090 -0.5860
  726TIP3   OH226372   5.146   3.337   8.917  0.1695  0.3495  0.2464
  726TIP3    H126373   5.111   3.369   9.000  0.2405  0.2887  0.2993
  726TIP3    H226374   5.071   3.342   8.857 -0.0952 -0.3408  0.5038
  727TIP3   OH226375   3.459   0.612   8.632  0.0868  0.6774 -0.5884
  727TIP3    H126376   3.408   0.685   8.599 -0.6785  0.0139 -0.9191
  727TIP3    H226377   3.538   0.611   8.578 -0.9656 -0.1546 -2.1976
  728TIP3   OH226378   2.843   6.421   7.716 -0.1779  0.0078 -1.0941
  728TIP3    H126379   2.910   6.370   7.762 -0.3279 -1.1641 -2.0989
  728TIP3    H226380   2.761   6.390   7.752 -0.2180  1.1746 -0.1304
  729TIP3   OH226381   6.857   1.737   8.092 -0.6834 -0.4490 -0.4885
  729TIP3    H126382   6.872   1.669   8.027 -2.4567 -2.3267  0.9244
  729TIP3    H226383   6.883   1.697   8.175  0.9965  1.6830  0.0838
  730TIP3   OH226384   0.714   3.241   8.923 -0.9735 -0.6204  0.0460
  730TIP3    H126385   0.694   3.200   8.839 -0.8371  1.3566 -1.0137
  730TIP3    H226386   0.800   3.207   8.946  0.4498  1.1037 -2.2406
  731TIP3   OH226387   5.951   6.446   7.116 -0.0508  0.0927  0.1906
  731TIP3    H126388   6.001   6.445   7.034 -1.0182  1.7146 -0.4577
  731TIP3    H226389   6.018   6.448   7.185  0.7977  1.3833 -0.6390
  732TIP3   OH226390   6.428   0.296   9.379 -0.1778 -0.2621  0.0554
  732TIP3    H126391   6.489   0.367   9.361 -0.0029 -0.1007  1.1911
  732TIP3    H226392   6.482   0.217   9.382  0.0125 -0.1141  1.1004
  733TIP3   OH226393   2.164   4.875   7.483 -0.1815  0.3707  0.2040
  733TIP3    H126394   2.151   4.782   7.466  0.2092  0.5242 -0.9625
  733TIP3    H226395   2.251   4.894   7.449 -1.1920  1.6731 -1.8286
  734TIP3   OH226396   2.823   0.006   8.239 -0.5217 -0.1480  0.0793
  734TIP3    H126397   2.885  -0.065   8.221  0.3898  0.2960  1.3348
  734TIP3    H226398   2.849   0.076   8.179  1.6354  0.8249  1.9796
  735TIP3   OH226399   4.347   1.288   6.864  0.5527  0.1181 -0.1132
  735TIP3    H126400   4.309   1.252   6.784 -0.3144 -1.9147  1.1261
  735TIP3    H226401   4.276   1.337   6.905  0.2183 -0.9060  0.5771
  736TIP3   OH226402   0.097   5.124   8.291  0.0960 -0.4213  0.5255
  736TIP3    H126403   0.181   5.081   8.277 -0.4553 -1.7765  1.1500
  736TIP3    H226404   0.033   5.053   8.280 -1.1911  1.0198 -2.4569
  737TIP3   OH226405   5.964   5.684   9.476  0.2252  0.3233  0.4477
  737TIP3    H126406   6.030   5.700   9.543  0.7482  0.1791 -0.0228
  737TIP3    H226407   5.943   5.770   9.440  0.6570  0.2990  0.1349
  738TIP3   OH226408   2.392   6.570   9.271 -0.2173  0.1954  0.7573
  738TIP3    H126409   2.361   6.636   9.210 -0.1226 -0.8657 -0.4914
  738TIP3    H226410   2.488   6.572   9.262 -0.2237 -0.2456  0.5403
  739TIP3   OH226411   5.614   6.859   8.120 -0.2758  0.1370 -0.0443
  739TIP3    H126412   5.610   6.954   8.122  2.3523  0.3429 -0.3927
  739TIP3    H226413   5.703   6.839   8.149 -1.4942 -2.3611  2.4866
  740TIP3   OH226414   3.881   1.250   7.606 -0.2322  0.5399 -0.1965
  740TIP3    H126415   3.858   1.231   7.697 -0.2808 -1.1459 -0.5400
  740TIP3    H226416   3.942   1.180   7.582 -1.2038  0.2320 -1.8509
  741TIP3   OH226417   6.187   5.856   8.513 -0.0928  0.1445  0.5849
  741TIP3    H126418   6.244   5.871   8.437  0.1440 -0.0634  0.7186
  741TIP3    H226419   6.204   5.765   8.538  0.9167  0.6333  1.7682
  742TIP3   OH226420   0.034   6.099   7.910  0.1721 -0.2833  0.3506
  742TIP3    H126421   0.023   6.148   7.828  0.2189  0.5077  0.8040
  742TIP3    H226422  -0.056   6.080   7.938  0.1363 -0.0491  0.4035
  743TIP3   OH226423   3.245   0.241   7.476  0.2826  0.3026 -0.0144
  743TIP3    H126424   3.174   0.275   7.422  0.2606  2.7916  1.4228
  743TIP3    H226425   3.308   0.314   7.481  0.0130  0.4683  3.6570
  744TIP3   OH226426   2.465   7.487   7.969 -0.2454  0.2801  0.1238
  744TIP3    H126427   2.467   7.443   8.054  0.0824 -0.5034 -0.2819
  744TIP3    H226428   2.483   7.418   7.905 -1.9267  0.5538 -0.7121
  745TIP3   OH226429   2.823   1.587   8.216  0.0621 -0.3985 -0.3748
  745TIP3    H126430   2.789   1.504   8.249  0.8854 -0.3904  0.5218
  745TIP3    H226431   2.801   1.586   8.123 -1.6055 -0.7738 -0.0110
  746TIP3   OH226432   2.062   5.223   8.245  0.2074 -0.6665  0.5034
  746TIP3    H126433   2.117   5.210   8.168  1.8694 -0.9426  1.6845
  746TIP3    H226434   2.057   5.137   8.286 -0.5530 -0.4895  0.7974
  747TIP3   OH226435   3.023   0.600   9.295  0.4641 -0.6447  0.1714
  747TIP3    H126436   2.953   0.624   9.355  0.0510 -2.2164  0.3440
  747TIP3    H226437   3.079   0.540   9.344  1.7174  0.2310 -0.1065
  748TIP3   OH226438   0.307   1.079   8.095  0.0306  0.1377 -0.2556
  748TIP3    H126439   0.276   1.008   8.152  0.7340  1.4881  1.9449
  748TIP3    H226440   0.267   1.061   8.010  0.5469 -3.1214  0.0620
  749TIP3   OH226441   4.420   3.254   8.441  0.2450 -0.1472 -0.4301
  749TIP3    H126442   4.480   3.317   8.402  1.0868 -1.3142 -1.0684
  749TIP3    H226443   4.451   3.169   8.411 -0.3277 -0.9432  1.1212
  750TIP3   OH226444   4.237   6.993   8.292  0.1148  0.4355 -0.0724
  750TIP3    H126445   4.214   7.074   8.336  0.5648  0.6974 -0.2999
  750TIP3    H226446   4.317   7.015   8.244 -0.2044  0.0859 -0.7822
  751TIP3   OH226447   4.549   4.301   7.131 -0.6993  0.4197  0.3205
  751TIP3    H126448   4.582   4.386   7.104 -1.2040  0.3065 -0.7199
  751TIP3    H226449   4.503   4.318   7.213  0.1938  0.9261  0.7346
  752TIP3   OH226450   1.434   7.446   8.546  0.3313  0.4148 -0.2826
  752TIP3    H126451   1.480   7.402   8.617  2.3041  1.7570 -0.6585
  752TIP3    H226452   1.407   7.376   8.487  2.3557 -0.3960 -0.2942
  753TIP3   OH226453   7.265   1.384   6.634 -0.5485  0.2868 -0.4214
  753TIP3    H126454   7.328   1.377   6.563 -1.1074 -1.2858 -0.8060
  753TIP3    H226455   7.318   1.385   6.714  0.0517  1.5273 -0.8128
  754TIP3   OH226456   6.461   4.901   6.634 -0.2548 -0.5743  0.6210
  754TIP3    H126457   6.385   4.943   6.593 -0.0780  0.8287  1.6568
  754TIP3    H226458   6.430   4.813   6.657 -0.6442 -1.0806 -1.5601
  755TIP3   OH226459   5.994   5.345   8.188 -0.0362  0.3610 -0.0050
  755TIP3    H126460   5.954   5.388   8.112 -0.5241  1.3198  0.7760
  755TIP3    H226461   5.935   5.274   8.209  0.4202 -0.3059 -0.8845
  756TIP3   OH226462   4.687   1.170   9.004  0.0729  0.1303  0.0222
  756TIP3    H126463   4.745   1.176   8.928  1.0536 -0.0950  0.7376
  756TIP3    H226464   4.689   1.077   9.028  0.8218  0.4267  1.1315
  757TIP3   OH226465   6.135   2.444   7.909  0.1917  0.1530  0.2379
  757TIP3    H126466   6.046   2.438   7.943  0.4831  0.8334  1.1688
  757TIP3    H226467   6.141   2.374   7.844 -2.6388  3.0551 -3.6553
  758TIP3   OH226468   3.525   3.322   8.270 -0.6982 -0.1083  0.3449
  758TIP3    H126469   3.520   3.302   8.177 -0.9914  1.4537 -0.0079
  758TIP3    H226470   3.542   3.416   8.273  0.4129 -0.3323  1.8689
  759TIP3   OH226471   5.158   4.681   7.148  0.3834  0.5113 -0.0198
  759TIP3    H126472   5.253   4.665   7.154  0.4793  0.3029 -1.5308
  759TIP3    H226473   5.118   4.597   7.171  0.5244  0.7652  1.2218
  760TIP3   OH226474   3.876   1.556   7.707 -0.3121 -0.4486 -0.6451
  760TIP3    H126475   3.967   1.526   7.705 -0.6011 -1.5158  0.6489
  760TIP3    H226476   3.826   1.484   7.666 -0.9047 -1.3974  1.5948
  761TIP3   OH226477   6.831   0.500   9.506  0.0133  0.5634  0.4050
  761TIP3    H126478   6.847   0.408   9.526  0.6167  0.3297 -1.0426
  761TIP3    H226479   6.750   0.500   9.455  0.5556  0.7022 -0.4848
  762TIP3   OH226480   0.040   6.497   9.278  0.5885 -0.5593 -0.3675
  762TIP3    H126481   0.131   6.517   9.256  0.8560 -1.1589  0.1614
  762TIP3    H226482  -0.008   6.512   9.196  0.9105  1.1928 -0.2869
  763TIP3   OH226483   2.513   2.336   9.189  0.1062 -0.3270  0.2929
  763TIP3    H126484   2.561   2.276   9.132  0.1918 -1.2107  1.2788
  763TIP3    H226485   2.580   2.393   9.226  0.0207  0.4447 -0.6680
  764TIP3   OH226486   1.765   1.790   9.065 -1.0852 -0.1058 -0.0145
  764TIP3    H126487   1.860   1.792   9.076 -0.9956 -0.7264 -0.6110
  764TIP3    H226488   1.741   1.882   9.052 -0.4083 -0.0506 -1.0414
  765TIP3   OH226489   1.680   1.856   8.700 -0.0099  0.3786 -0.2542
  765TIP3    H126490   1.764   1.841   8.744  0.0461 -0.8513 -0.7466
  765TIP3    H226491   1.642   1.769   8.692 -0.8317  0.7984 -1.0394
  766TIP3   OH226492   0.254   1.856   9.431  0.2062 -0.7655  0.0065
  766TIP3    H126493   0.282   1.770   9.399  1.1081 -0.1661 -0.8634
  766TIP3    H226494   0.266   1.850   9.526  3.3933 -0.5770 -0.2738
  767TIP3   OH226495   4.476   6.258   9.320 -0.6257  0.6216 -0.4093
  767TIP3    H126496   4.533   6.181   9.320 -0.9846  0.3508 -0.0381
  767TIP3    H226497   4.495   6.301   9.404  0.4139  1.5775 -1.1066
  768TIP3   OH226498   1.844   7.431   7.505  0.0810 -0.3729  0.5263
  768TIP3    H126499   1.921   7.423   7.449  0.6020  1.7977  0.8364
  768TIP3    H226500   1.876   7.415   7.594  0.1196  0.1313  0.6100
  769TIP3   OH226501   5.422   0.537   7.557  0.0431  0.4258  0.6299
  769TIP3    H126502   5.494   0.474   7.546 -0.6685 -0.5566  1.3242
  769TIP3    H226503   5.445   0.610   7.501  0.8397 -0.5306 -0.3459
  770TIP3   OH226504   0.645   1.562   7.887 -0.7499 -0.0131  1.1376
  770TIP3    H126505   0.634   1.474   7.850  0.1722 -0.1968  1.2681
  770TIP3    H226506   0.712   1.602   7.832 -0.3146  0.1802  1.7998
  771TIP3   OH226507   1.826   2.043   8.896 -0.3905 -0.0402 -0.0692
  771TIP3    H126508   1.871   1.992   8.828 -0.2169  0.3066 -0.2181
  771TIP3    H226509   1.733   2.033   8.876 -0.6113 -3.0374  1.8387
  772TIP3   OH226510   3.569   7.535   9.577  0.9070 -0.1423 -0.0541
  772TIP3    H126511   3.586   7.541   9.671 -2.6595  2.3681  0.6320
  772TIP3    H226512   3.650   7.564   9.536  1.4568  2.2076  2.4191
  773TIP3   OH226513   5.748   0.768   7.210 -0.6883 -0.0401  0.0768
  773TIP3    H126514   5.663   0.768   7.166 -0.5919  0.7114 -0.1357
  773TIP3    H226515   5.812   0.776   7.139 -0.5394  1.4090  0.3293
  774TIP3   OH226516   2.675   7.487   6.933 -0.1546 -0.0412  0.1720
  774TIP3    H126517   2.687   7.395   6.911 -1.8936  0.4605 -3.6914
  774TIP3    H226518   2.600   7.489   6.991 -1.9052 -1.0316 -1.8990
  775TIP3   OH226519   0.512   2.155   7.306  0.0641 -0.2621 -0.5944
  775TIP3    H126520   0.514   2.115   7.393  0.6072  0.3204 -0.3286
  775TIP3    H226521   0.455   2.098   7.255 -1.5431  0.2249  0.5631
  776TIP3   OH226522   2.308   5.036   8.395 -0.4792  0.2467 -0.4394
  776TIP3    H126523   2.402   5.040   8.411 -0.4535  1.6898 -0.7742
  776TIP3    H226524   2.269   5.089   8.465 -1.1197 -0.9149  0.1137
  777TIP3   OH226525   6.823   0.992   8.203  0.6809 -0.1599  0.2862
  777TIP3    H126526   6.784   0.915   8.244  1.0423 -1.1864 -1.2136
  777TIP3    H226527   6.813   0.977   8.109 -0.7848  2.4376 -0.0684
  778TIP3   OH226528   0.935   5.459   7.514  0.7734  0.5373 -0.1219
  778TIP3    H126529   0.889   5.433   7.434 -0.2965 -0.0380  0.6562
  778TIP3    H226530   0.883   5.530   7.550  1.3268  0.8849 -0.0020
  779TIP3   OH226531   1.100   5.627   8.414 -0.2470  0.6958  0.0916
  779TIP3    H126532   1.154   5.602   8.489  0.4309  2.1317  0.1156
  779TIP3    H226533   1.011   5.604   8.440  0.1596 -0.2677  0.6933
  780TIP3   OH226534   5.810   3.628   8.426  0.6634 -0.0804 -0.4386
  780TIP3    H126535   5.774   3.598   8.510 -0.0841 -0.8340 -1.0188
  780TIP3    H226536   5.866   3.703   8.450  1.8264 -1.3136  0.9519
  781TIP3   OH226537   2.667   4.107   7.957  0.0208 -0.1263 -0.3034
  781TIP3    H126538   2.638   4.125   8.046 -0.5778  1.0424 -0.7198
  781TIP3    H226539   2.588   4.079   7.910  0.4430 -1.3347 -0.3354
  782TIP3   OH226540   3.584   2.409   8.261  0.2551 -0.2921  0.3879
  782TIP3    H126541   3.628   2.327   8.284 -1.1839 -1.3089 -0.3255
  782TIP3    H226542   3.570   2.403   8.167 -0.7488  0.3232  0.4833
  783TIP3   OH226543   3.444   6.051   7.341  0.4015  0.5122  0.0430
  783TIP3    H126544   3.408   6.136   7.314 -4.1211 -1.0441  0.2713
  783TIP3    H226545   3.429   5.994   7.266  0.4831 -0.7613  0.9668
  784TIP3   OH226546   6.017   6.084   6.428 -0.1256  0.0968 -0.0871
  784TIP3    H126547   6.076   6.025   6.474 -0.4318 -1.3247 -1.4065
  784TIP3    H226548   6.070   6.161   6.410  0.3313  0.2086  1.5706
  785TIP3   OH226549   3.963   4.697   8.378  0.1106 -0.2042  0.0510
  785TIP3    H126550   3.886   4.672   8.328  0.8043  0.1860 -1.2585
  785TIP3    H226551   3.989   4.617   8.424  0.5865 -1.1391 -1.7618
  786TIP3   OH226552   1.931   0.074   8.552 -0.1387 -0.2629  0.7324
  786TIP3    H126553   1.897   0.136   8.617 -0.6911 -1.3278  1.4777
  786TIP3    H226554   1.985   0.014   8.603  1.2256  0.1805 -0.1375
  787TIP3   OH226555   4.235   3.046   9.143 -0.2105 -0.0823 -0.0351
  787TIP3    H126556   4.319   3.050   9.097 -1.0710  0.6267 -1.6295
  787TIP3    H226557   4.196   2.963   9.114 -0.7586  0.3682 -0.6103
  788TIP3   OH226558   3.395   1.978   8.370 -0.7761  0.4615  0.0920
  788TIP3    H126559   3.398   1.884   8.357  1.7645  0.5329 -0.3093
  788TIP3    H226560   3.356   1.990   8.457  2.0103 -1.1963  1.7065
  789TIP3   OH226561   7.160   2.253   7.456  0.1827  0.0541  0.1706
  789TIP3    H126562   7.111   2.181   7.417 -1.5820 -0.3101  2.8213
  789TIP3    H226563   7.250   2.239   7.427 -0.5846 -1.5230 -1.6999
  790TIP3   OH226564   2.986   0.380   7.383  0.1404  0.0022 -0.1700
  790TIP3    H126565   2.981   0.415   7.472  0.4106 -1.1390  0.3083
  790TIP3    H226566   2.917   0.426   7.335 -2.6944 -2.0635  1.5955
  791TIP3   OH226567   2.361   3.572   9.617 -0.4039  0.0788 -0.6097
  791TIP3    H126568   2.425   3.610   9.557 -0.5258 -0.0905 -0.8497
  791TIP3    H226569   2.396   3.485   9.636  0.1101  0.4759  0.2966
  792TIP3   OH226570   6.926   5.381   7.968  0.4633 -0.5871 -0.4695
  792TIP3    H126571   6.923   5.430   8.050  0.7924  0.2968 -0.9602
  792TIP3    H226572   7.017   5.353   7.959  0.6629  0.1874 -1.0023
  793TIP3   OH226573   6.884   6.456   8.770  0.4956  0.7426  0.2013
  793TIP3    H126574   6.977   6.477   8.766  0.4625  0.8142 -2.6125
  793TIP3    H226575   6.848   6.514   8.837  2.0409  2.6577 -0.5276
  794TIP3   OH226576   2.598   0.865   7.458  0.2959  0.2534 -0.6898
  794TIP3    H126577   2.666   0.821   7.406  0.5117  0.3962 -0.5264
  794TIP3    H226578   2.621   0.958   7.454 -0.6532  0.4562 -1.7632
  795TIP3   OH226579   3.030   3.806   8.915  0.4663 -0.0159 -0.0343
  795TIP3    H126580   2.953   3.766   8.876 -0.4879  1.9557 -0.3268
  795TIP3    H226581   3.076   3.734   8.958 -2.4204 -1.0538  1.6385
  796TIP3   OH226582   5.324   4.962   9.489 -0.1199  0.3914 -0.1863
  796TIP3    H126583   5.343   4.876   9.454 -1.3526  0.0218  0.0204
  796TIP3    H226584   5.383   4.971   9.564 -0.5546 -0.6196  0.2941
  797TIP3   OH226585   2.731   5.881   9.483 -0.1249  0.0155 -0.6056
  797TIP3    H126586   2.825   5.866   9.471 -0.0855  0.6880 -1.1638
  797TIP3    H226587   2.692   5.794   9.470  0.4429 -0.3341 -0.0477
  798TIP3   OH226588   5.980   5.917   8.940  0.1362  0.1781 -0.2595
  798TIP3    H126589   6.056   5.947   8.990 -0.3195  2.1285 -0.6554
  798TIP3    H226590   5.996   5.948   8.851 -1.8159  2.1734 -0.0304
  799TIP3   OH226591   1.320   3.383   9.254  0.0439  0.4290  0.1505
  799TIP3    H126592   1.248   3.446   9.246 -1.0787 -0.6628  1.3403
  799TIP3    H226593   1.279   3.297   9.246  1.3597 -0.2034 -0.0907
  800TIP3   OH226594   4.237   1.380   8.628  0.4506  0.4915  0.1151
  800TIP3    H126595   4.311   1.331   8.591 -0.0800  0.0120 -0.3322
  800TIP3    H226596   4.257   1.472   8.607  0.6030  0.3085 -0.5840
  801TIP3   OH226597   3.806   3.802   8.157 -0.5777  0.0400 -0.4066
  801TIP3    H126598   3.773   3.834   8.241 -1.0740 -1.0886 -0.1394
  801TIP3    H226599   3.901   3.806   8.165 -0.6176  1.6840 -0.5101
  802TIP3   OH226600   4.811   6.680   7.993  0.3122 -0.0432 -0.5509
  802TIP3    H126601   4.785   6.604   8.045  2.5997 -0.7753 -0.3498
  802TIP3    H226602   4.817   6.647   7.903 -2.0640  0.8269 -1.1016
  803TIP3   OH226603   4.325   7.201   8.808  0.4031 -0.5120 -0.1598
  803TIP3    H126604   4.418   7.190   8.792  0.3363 -2.6131  0.5115
  803TIP3    H226605   4.314   7.187   8.902 -0.5772 -0.3486 -0.2343
  804TIP3   OH226606   3.011   1.714   7.914  0.1763 -0.4509 -0.2924
  804TIP3    H126607   2.941   1.649   7.912  1.2005 -1.5945 -0.2897
  804TIP3    H226608   3.082   1.671   7.962  0.4833  1.0984  0.6915
  805TIP3   OH226609   0.258   3.893   8.271 -0.2949  0.3391  0.2131
  805TIP3    H126610   0.199   3.821   8.292  0.6573 -0.5054  0.0275
  805TIP3    H226611   0.199   3.964   8.243 -1.2261 -0.4040  0.2303
  806TIP3   OH226612   6.697   3.117   7.523 -0.5358  0.0884  0.1581
  806TIP3    H126613   6.783   3.081   7.544 -0.5302  0.7867  1.4425
  806TIP3    H226614   6.635   3.054   7.559 -0.5797 -0.5108 -0.9357
  807TIP3   OH226615   3.321   3.668   9.184  0.0626  0.2526  0.2066
  807TIP3    H126616   3.356   3.731   9.120 -0.8393  1.5507  0.9533
  807TIP3    H226617   3.239   3.637   9.145  0.8829 -1.1012 -0.5196
  808TIP3   OH226618   5.705   6.844   9.182 -0.6461 -0.3245  0.0280
  808TIP3    H126619   5.788   6.813   9.145 -0.2130  1.2780 -0.4064
  808TIP3    H226620   5.731   6.897   9.257 -1.2993 -0.0734  0.0791
  809TIP3   OH226621   0.890   1.968   9.070 -0.2628  0.4139 -0.1787
  809TIP3    H126622   0.934   1.934   9.148 -1.1917 -0.2494  0.0723
  809TIP3    H226623   0.867   2.058   9.092 -0.1870  0.3492  0.1657
  810TIP3   OH226624   1.682   0.833   7.421  0.5516  0.2563  0.0013
  810TIP3    H126625   1.741   0.862   7.350  1.7585  0.5675  1.0831
  810TIP3    H226626   1.607   0.796   7.376  1.1465  0.7264 -1.4512
  811TIP3   OH226627   6.018   0.303   7.753  0.0482  0.1499 -0.0635
  811TIP3    H126628   6.012   0.277   7.661 -0.7574  1.1111 -0.3001
  811TIP3    H226629   6.088   0.369   7.754 -0.3347  0.5581 -0.0908
  812TIP3   OH226630   4.447   4.391   7.376  0.3780  0.5917 -0.0615
  812TIP3    H126631   4.507   4.465   7.387  2.0129 -0.5460 -0.7674
  812TIP3    H226632   4.495   4.316   7.412 -0.6648 -0.3600 -0.5761
  813TIP3   OH226633   4.220   4.461   8.201  0.0248 -0.6468 -0.2290
  813TIP3    H126634   4.199   4.466   8.108 -1.1098  0.9117  0.0741
  813TIP3    H226635   4.166   4.389   8.234  1.2108 -1.9173 -0.9196
  814TIP3   OH226636   3.364   7.202   7.818 -0.2032 -0.1869 -0.4769
  814TIP3    H126637   3.321   7.147   7.884 -0.5187  0.9150  0.2813
  814TIP3    H226638   3.307   7.197   7.742 -0.3625 -0.7016 -0.3288
  815TIP3   OH226639   3.775   4.109   8.887 -0.5141  0.1931  0.2830
  815TIP3    H126640   3.781   4.080   8.979  0.9497 -0.1638  0.1126
  815TIP3    H226641   3.692   4.073   8.856 -0.0546 -1.5098  0.8851
  816TIP3   OH226642   6.164   5.367   7.428 -0.2010 -0.1291 -0.0043
  816TIP3    H126643   6.167   5.279   7.391  1.6776  0.4570 -1.4341
  816TIP3    H226644   6.253   5.381   7.461 -0.7942  0.8205  1.2835
  817TIP3   OH226645   4.650   0.201   7.574 -0.9662 -0.9704 -0.4531
  817TIP3    H126646   4.707   0.166   7.642 -1.1143 -1.2536 -0.4735
  817TIP3    H226647   4.566   0.216   7.618 -0.5725  0.5133 -0.1416
  818TIP3   OH226648   5.741   6.514   8.529 -0.4251  0.2896  0.0821
  818TIP3    H126649   5.743   6.435   8.476 -0.6548 -0.2463  0.8593
  818TIP3    H226650   5.705   6.486   8.613  0.0376  1.0952  0.5621
  819TIP3   OH226651   2.797   2.369   7.133 -0.1301  0.3596 -0.1123
  819TIP3    H126652   2.855   2.294   7.145 -1.4832 -0.7638 -0.3687
  819TIP3    H226653   2.847   2.443   7.168  1.3302 -0.5980 -0.0599
  820TIP3   OH226654   3.885   4.557   8.903 -0.2223  0.4535  0.0542
  820TIP3    H126655   3.918   4.475   8.864  1.9159  0.1391  2.2607
  820TIP3    H226656   3.947   4.623   8.874 -0.1233  0.6933  0.8060
  821TIP3   OH226657   2.232   0.460   8.753 -0.0909 -0.3392  0.3886
  821TIP3    H126658   2.183   0.414   8.684 -0.9128  1.1948 -0.1099
  821TIP3    H226659   2.172   0.463   8.827  0.6903 -1.7341  1.1280
  822TIP3   OH226660   4.469   2.094   8.159 -0.1619 -0.0345 -0.0037
  822TIP3    H126661   4.421   2.175   8.177  0.7912  1.0509 -2.0223
  822TIP3    H226662   4.562   2.119   8.166  0.2560 -0.0353 -3.6860
  823TIP3   OH226663   2.843   2.457   8.036  0.0029  0.5276  0.1036
  823TIP3    H126664   2.795   2.529   7.994 -1.4278 -0.6325 -0.3484
  823TIP3    H226665   2.855   2.393   7.966  1.9676  0.6267  0.3039
  824TIP3   OH226666   3.373   0.665   9.286 -0.2149 -0.0774 -0.1063
  824TIP3    H126667   3.318   0.697   9.214 -0.4995  2.6536  1.1815
  824TIP3    H226668   3.459   0.704   9.270  0.4012 -1.4138 -0.2029
  825TIP3   OH226669   6.189   2.702   7.840  0.2943  0.1351  0.0679
  825TIP3    H126670   6.171   2.608   7.830 -2.5455  0.5914  0.0478
  825TIP3    H226671   6.187   2.717   7.935 -0.4224  0.3442  0.0254
  826TIP3   OH226672   3.298   4.534   9.475  0.2416 -0.1055  0.1535
  826TIP3    H126673   3.232   4.480   9.432  0.1877  0.9368 -1.1358
  826TIP3    H226674   3.310   4.609   9.417 -0.2005  1.6685  2.2279
  827TIP3   OH226675   2.133   5.243   8.765 -0.1629 -0.6406  0.0930
  827TIP3    H126676   2.054   5.224   8.713 -0.6625 -0.4740  0.7892
  827TIP3    H226677   2.181   5.160   8.765  0.5246 -0.2892 -1.7717
  828TIP3   OH226678   1.865   7.328   9.190  0.0440 -0.2322  0.3665
  828TIP3    H126679   1.802   7.271   9.146  1.1224 -2.0843  1.1266
  828TIP3    H226680   1.933   7.343   9.125 -0.0252 -0.1569  0.3102
  829TIP3   OH226681   7.208   5.521   6.938  0.2389 -0.1558  0.3635
  829TIP3    H126682   7.245   5.440   6.902  2.2317  0.7747  0.2186
  829TIP3    H226683   7.240   5.590   6.881 -0.3658  0.8958  1.2533
  830TIP3   OH226684   1.411   2.049   7.624  0.3632 -0.3049 -0.1377
  830TIP3    H126685   1.356   2.106   7.677  0.6488  1.6156 -1.7996
  830TIP3    H226686   1.437   2.103   7.549  1.7673 -2.2070 -1.1088
  831TIP3   OH226687   4.794   1.991   7.354  0.3379  0.1563  0.4960
  831TIP3    H126688   4.802   1.997   7.258  2.3006  0.9026  0.6639
  831TIP3    H226689   4.809   1.899   7.373  0.1202  0.0347  0.1004
  832TIP3   OH226690   3.230   0.400   8.591  0.2669  0.7973  0.4520
  832TIP3    H126691   3.273   0.391   8.506  0.3264  2.3427  0.2824
  832TIP3    H226692   3.285   0.461   8.640 -0.3883  0.8411  1.1564
  833TIP3   OH226693   4.876   5.719   9.375  0.2479 -0.1660  0.0317
  833TIP3    H126694   4.962   5.689   9.344  0.8993  1.5203  0.0962
  833TIP3    H226695   4.830   5.745   9.296  0.5399  0.7374  0.1496
  834TIP3   OH226696   3.878   6.533   8.581 -0.3200  0.4445  0.0984
  834TIP3    H126697   3.922   6.482   8.649  0.9364  0.1803 -0.8649
  834TIP3    H226698   3.807   6.578   8.627  2.3563  2.8383  2.3389
  835TIP3   OH226699   6.324   7.112   8.322 -0.3413 -0.2372 -0.4163
  835TIP3    H126700   6.232   7.089   8.312 -0.8035 -0.0144  2.4779
  835TIP3    H226701   6.355   7.059   8.395  0.9406  1.8979  0.7043
  836TIP3   OH226702   4.486   4.453   8.613  0.1187 -0.1654 -0.4949
  836TIP3    H126703   4.395   4.427   8.624  0.3101 -1.0697 -0.9439
  836TIP3    H226704   4.525   4.384   8.559  1.1075  0.1279 -0.1905
  837TIP3   OH226705   5.431   4.201   8.104  0.0154  0.0371 -0.2743
  837TIP3    H126706   5.346   4.215   8.147 -0.0502  1.3145 -0.7773
  837TIP3    H226707   5.445   4.281   8.053  0.7659 -0.8420 -1.4926
  838TIP3   OH226708   2.873   5.767   7.177 -0.6547  0.0857  0.2755
  838TIP3    H126709   2.936   5.748   7.107  0.4997 -0.2751  1.3782
  838TIP3    H226710   2.796   5.714   7.154 -0.1341 -0.3792 -0.4768
  839TIP3   OH226711   2.421   6.028   9.307  0.4062  0.2360  0.1595
  839TIP3    H126712   2.449   5.945   9.268 -1.0136  0.4433 -1.4224
  839TIP3    H226713   2.385   6.005   9.392 -0.8721 -0.9250 -0.6640
  840TIP3   OH226714   0.672   1.700   8.136 -0.5872 -0.2534  0.6566
  840TIP3    H126715   0.755   1.680   8.094 -0.1053  1.3656  0.7458
  840TIP3    H226716   0.606   1.654   8.084  0.2788 -0.7856  0.0089
  841TIP3   OH226717   6.053   0.110   9.319 -0.0851 -0.4148 -0.2672
  841TIP3    H126718   6.106   0.137   9.244  0.3384 -1.9609 -0.5445
  841TIP3    H226719   6.092   0.157   9.393 -0.2197  0.7646 -0.9155
  842TIP3   OH226720   3.082   0.245   8.745  0.2942  0.3114 -0.4852
  842TIP3    H126721   3.132   0.312   8.697  2.2741 -0.4717  0.3599
  842TIP3    H226722   3.143   0.214   8.812 -1.0828 -1.3260  0.0635
  843TIP3   OH226723   1.434   5.459   8.957  0.1724  0.2319  0.6127
  843TIP3    H126724   1.482   5.428   9.034  0.4355  0.4226  0.5283
  843TIP3    H226725   1.418   5.552   8.975  2.3440  0.9115 -0.6018
  844TIP3   OH226726   3.469   6.076   8.577 -0.1461 -0.0084  0.6691
  844TIP3    H126727   3.400   6.141   8.570 -0.8831 -0.9095 -1.3739
  844TIP3    H226728   3.427   6.000   8.617 -0.2154 -0.3838 -0.1049
  845TIP3   OH226729   6.042   2.661   9.085 -0.3953 -0.1463  0.0157
  845TIP3    H126730   5.958   2.701   9.062 -0.4970 -0.0036  0.6166
  845TIP3    H226731   6.021   2.599   9.155 -0.0663 -0.4485 -0.1471
  846TIP3   OH226732   7.194   3.433   8.418  0.2918  0.4293 -0.4035
  846TIP3    H126733   7.139   3.457   8.344  0.4068 -0.1607 -0.6832
  846TIP3    H226734   7.234   3.350   8.393  0.5950  0.3929  0.1781
  847TIP3   OH226735   3.959   5.360   9.247  0.5162  0.0392 -0.3439
  847TIP3    H126736   3.930   5.363   9.156 -0.6263  2.0823  0.0250
  847TIP3    H226737   3.901   5.296   9.288  0.1684  0.0620 -0.7874
  848TIP3   OH226738   3.700   3.841   7.768  0.3511  0.1835 -0.0190
  848TIP3    H126739   3.718   3.754   7.803  1.0324 -0.0260 -0.8366
  848TIP3    H226740   3.786   3.874   7.741  0.0153  0.8406 -0.3070
  849TIP3   OH226741   0.952   5.073   9.639  0.3857 -0.1117  0.1079
  849TIP3    H126742   1.010   5.017   9.588 -1.0487 -0.9300 -0.7033
  849TIP3    H226743   0.885   5.014   9.673 -1.5645  1.1345 -1.3401
  850TIP3   OH226744   4.365   3.734   8.245  0.1145  0.1985  0.2470
  850TIP3    H126745   4.401   3.706   8.329  0.5508  0.6379  0.2121
  850TIP3    H226746   4.297   3.670   8.225  2.1598 -1.8543 -0.6372
  851TIP3   OH226747   5.247   2.368   8.537  0.3653 -0.2228  0.4770
  851TIP3    H126748   5.265   2.371   8.443  0.2235 -0.2912  0.4471
  851TIP3    H226749   5.208   2.453   8.556  0.4982 -0.1659  0.4959
  852TIP3   OH226750   6.006   7.609   6.708 -0.0112  0.1124  0.1384
  852TIP3    H126751   6.059   7.537   6.742  1.3460  0.9676 -0.0629
  852TIP3    H226752   5.943   7.567   6.650 -1.3344 -1.2084  2.4078
  853TIP3   OH226753   1.772   4.296   8.967 -0.1733 -0.1630 -0.1541
  853TIP3    H126754   1.835   4.268   8.901  0.3468 -0.0593  0.2988
  853TIP3    H226755   1.686   4.275   8.928  0.0297  1.5828 -1.6468
  854TIP3   OH226756   7.342   4.702   8.360  0.1752 -0.2308  0.1730
  854TIP3    H126757   7.281   4.696   8.433 -0.2282 -0.0179 -0.1397
  854TIP3    H226758   7.371   4.793   8.360  2.2193 -0.8026  1.6759
  855TIP3   OH226759   7.229   1.418   8.883 -0.0361 -0.2605 -0.3526
  855TIP3    H126760   7.201   1.367   8.960  0.1165 -0.5893 -0.5140
  855TIP3    H226761   7.256   1.352   8.819 -0.7497 -0.0143 -0.9215
  856TIP3   OH226762   3.024   1.153   8.876  0.8403  0.4159 -0.1320
  856TIP3    H126763   3.114   1.142   8.905  1.0669 -1.8439 -1.4317
  856TIP3    H226764   2.982   1.204   8.945  3.2513  2.1702  0.1535
  857TIP3   OH226765   0.727   4.301   7.604  0.4380 -0.1742  0.1335
  857TIP3    H126766   0.694   4.386   7.634  1.0789 -0.9007  3.2235
  857TIP3    H226767   0.649   4.246   7.598  0.0249  0.5416 -1.8359
  858TIP3   OH226768   6.319   1.755   6.443 -0.1268 -0.3730  0.1627
  858TIP3    H126769   6.357   1.698   6.376 -1.3287 -0.0937 -0.7867
  858TIP3    H226770   6.290   1.832   6.395  1.3250  1.0140  1.3998
  859TIP3   OH226771   0.338   0.229   9.277  0.0245  0.1006  0.3584
  859TIP3    H126772   0.301   0.286   9.344 -1.2000  0.7426 -0.8220
  859TIP3    H226773   0.359   0.287   9.204  2.4467 -0.4052  0.5590
  860TIP3   OH226774   0.930   1.295   7.922 -0.0596 -0.0258  0.1220
  860TIP3    H126775   0.967   1.208   7.906  0.2791  0.2032 -0.3956
  860TIP3    H226776   0.861   1.281   7.986 -1.5546 -1.0510 -1.6206
  861TIP3   OH226777   6.027   3.382   7.785 -0.1071  0.3679  0.0738
  861TIP3    H126778   6.000   3.424   7.703 -0.0074  1.3300  0.5133
  861TIP3    H226779   5.947   3.343   7.820 -0.0097 -0.6699 -0.8257
  862TIP3   OH226780   4.482   7.012   8.054 -0.0512  0.0383  0.0360
  862TIP3    H126781   4.574   7.031   8.035 -0.0330  0.0312  0.1178
  862TIP3    H226782   4.434   7.051   7.981  0.1979 -2.3308 -1.5153
  863TIP3   OH226783   2.638   1.805   7.765  0.1253 -0.4139 -0.1547
  863TIP3    H126784   2.589   1.724   7.777  0.6360 -1.1015 -2.2757
  863TIP3    H226785   2.603   1.842   7.684  1.4762  0.2996 -0.4318
  864TIP3   OH226786   3.320   6.648   9.260 -0.4496 -0.4244  0.2159
  864TIP3    H126787   3.253   6.650   9.328 -0.5717 -1.2169  0.1329
  864TIP3    H226788   3.366   6.732   9.268 -2.2254  0.6812 -0.5153
  865TIP3   OH226789   4.903   3.846   7.610  0.2948 -0.0355 -0.3567
  865TIP3    H126790   4.984   3.798   7.593  0.9615  0.8717  0.1245
  865TIP3    H226791   4.836   3.779   7.619  1.2288 -0.8961  0.4368
  866TIP3   OH226792   4.070   6.543   9.546  0.1939  0.0490  0.6349
  866TIP3    H126793   4.105   6.455   9.561  1.0377  0.1732 -0.4331
  866TIP3    H226794   3.983   6.529   9.509  0.9028 -0.4044 -0.9502
  867TIP3   OH226795   1.827   1.935   7.335 -0.1775 -0.2177 -0.1703
  867TIP3    H126796   1.778   1.869   7.286 -0.9732 -1.3263  1.9812
  867TIP3    H226797   1.892   1.967   7.273 -1.8497 -0.6811 -2.2847
  868TIP3   OH226798   5.494   6.844   8.437 -0.1254  0.1321  0.0486
  868TIP3    H126799   5.558   6.816   8.371  0.3648  1.2980 -0.0050
  868TIP3    H226800   5.472   6.764   8.485  2.2092 -0.1570  0.7816
  869TIP3   OH226801   2.632   5.339   8.351 -0.0846  0.1755  0.1375
  869TIP3    H126802   2.620   5.348   8.257  1.3224 -2.1103 -0.3292
  869TIP3    H226803   2.691   5.411   8.374 -0.8932  1.1014 -0.5727
  870TIP3   OH226804   2.947   2.027   9.409 -0.4252 -0.3033  0.3338
  870TIP3    H126805   2.922   2.119   9.409 -0.5313 -0.3205 -0.7949
  870TIP3    H226806   2.937   2.000   9.500  0.8065  1.1193  0.9461
  871TIP3   OH226807   1.135   3.519   9.576 -0.2898  0.2511 -0.1870
  871TIP3    H126808   1.060   3.504   9.519  0.9856 -0.0315 -1.8826
  871TIP3    H226809   1.101   3.504   9.665 -2.0442 -0.5782 -0.9369
  872TIP3   OH226810   6.659   7.315   7.620  0.2147  0.1680  0.4089
  872TIP3    H126811   6.670   7.229   7.662  0.3470  0.5314  1.1317
  872TIP3    H226812   6.612   7.367   7.685 -0.0800  0.5713 -0.1253
  873TIP3   OH226813   2.250   1.097   7.729 -0.0003 -0.4339  0.0590
  873TIP3    H126814   2.303   1.067   7.803 -1.3813 -1.7443  0.5682
  873TIP3    H226815   2.283   1.047   7.654  1.1265  0.5955 -0.1550
  874TIP3   OH226816   0.334   1.520   9.738  0.0660 -0.4767 -0.3075
  874TIP3    H126817   0.313   1.541   9.829 -1.2030 -0.3326 -0.6127
  874TIP3    H226818   0.249   1.518   9.693  0.7687  1.9971 -2.0253
  875TIP3   OH226819   0.374   0.726   8.156 -0.3197 -0.1742  0.2660
  875TIP3    H126820   0.453   0.762   8.116 -1.3746  1.0105 -0.8817
  875TIP3    H226821   0.385   0.631   8.149  0.2201 -0.0195 -1.5252
  876TIP3   OH226822   3.793   0.010   8.462 -0.3316 -0.2157  0.2447
  876TIP3    H126823   3.885   0.025   8.485  0.1286  0.6694 -1.9269
  876TIP3    H226824   3.797  -0.055   8.392 -1.3063  0.3128 -0.3158
  877TIP3   OH226825   1.388   6.204   7.746  0.3556  0.6185  0.0864
  877TIP3    H126826   1.343   6.188   7.829  1.1033  0.8071  0.5398
  877TIP3    H226827   1.318   6.211   7.681 -0.1915 -0.9976  0.4430
  878TIP3   OH226828   7.673   3.092   8.668 -0.2919 -0.1845  0.1582
  878TIP3    H126829   7.648   3.165   8.724 -1.2236 -0.9120  0.7148
  878TIP3    H226830   7.591   3.048   8.647  0.2447 -1.0411 -0.2079
  879TIP3   OH226831   7.488   4.439   7.422  0.4626 -0.2124  0.0506
  879TIP3    H126832   7.442   4.448   7.505 -0.9655  1.3784 -0.8582
  879TIP3    H226833   7.518   4.528   7.401  1.2958 -0.6852 -0.8589
  880TIP3   OH226834   3.310   5.609   8.706 -0.0984  0.1483 -0.1434
  880TIP3    H126835   3.273   5.540   8.761  1.7960 -0.9426 -0.1233
  880TIP3    H226836   3.305   5.574   8.617 -0.1678  0.4829 -0.2722
  881TIP3   OH226837   1.210   2.518   7.575 -0.2007 -0.0731 -0.0622
  881TIP3    H126838   1.119   2.541   7.556 -0.1180  0.4465  0.1561
  881TIP3    H226839   1.260   2.559   7.505 -0.1488 -0.4834 -0.2636
  882TIP3   OH226840   1.058   2.423   7.913 -0.2084 -1.3088  0.0692
  882TIP3    H126841   0.969   2.407   7.944 -0.1905  0.1582  0.9889
  882TIP3    H226842   1.055   2.512   7.879  0.7975 -1.4191 -0.3179
  883TIP3   OH226843   3.234   5.366   8.879 -0.1469 -0.5026  0.1325
  883TIP3    H126844   3.318   5.339   8.841  0.2692 -0.4111  0.9672
  883TIP3    H226845   3.214   5.298   8.942 -0.2045 -0.0180  0.6430
  884TIP3   OH226846   7.401   6.807   9.258 -0.1177 -0.4440  0.6057
  884TIP3    H126847   7.338   6.735   9.256 -0.1215 -0.4317  0.0226
  884TIP3    H226848   7.463   6.783   9.326 -1.3680  0.0692  1.9881
  885TIP3   OH226849   7.169   5.216   8.004  0.4982  0.9088 -0.3678
  885TIP3    H126850   7.201   5.146   8.060 -1.9820 -0.6737 -0.7458
  885TIP3    H226851   7.229   5.289   8.019  2.1966 -0.7320  1.3297
  886TIP3   OH226852   6.357   1.938   7.352  0.1835 -0.0360  0.7412
  886TIP3    H126853   6.318   2.008   7.299  1.5642 -0.3097 -0.7112
  886TIP3    H226854   6.303   1.861   7.333  0.0588  0.1070  0.5050
  887TIP3   OH226855   4.806   7.429   8.637 -0.0502 -0.2454 -0.6031
  887TIP3    H126856   4.811   7.422   8.542  1.4756 -2.0687 -0.4308
  887TIP3    H226857   4.892   7.403   8.668 -0.8726 -0.8313  1.3474
  888TIP3   OH226858   6.656   7.304   7.338 -0.4450 -0.2695 -0.1718
  888TIP3    H126859   6.654   7.208   7.335 -2.8138 -0.3278  0.6310
  888TIP3    H226860   6.650   7.325   7.431 -0.7918  0.6443 -0.3874
  889TIP3   OH226861   1.040   1.629   8.902 -0.4113  0.3326  0.2704
  889TIP3    H126862   1.049   1.616   8.807  0.0337 -1.2971  0.5106
  889TIP3    H226863   0.983   1.558   8.930 -0.0889  0.4792  1.3191
  890TIP3   OH226864   6.538   1.249   8.149  0.3903  0.2869 -0.2233
  890TIP3    H126865   6.460   1.264   8.096 -0.1130  1.0446  0.6905
  890TIP3    H226866   6.595   1.323   8.130  1.3307 -0.7433 -1.6017
  891TIP3   OH226867   5.822   0.040   7.399  0.1998 -0.0283 -0.3144
  891TIP3    H126868   5.812   0.083   7.314  2.4278  0.6665 -0.2839
  891TIP3    H226869   5.856   0.108   7.457  0.1011 -0.8702  0.7719
  892TIP3   OH226870   2.977   0.497   8.822  0.1624 -0.0422  0.1106
  892TIP3    H126871   2.885   0.513   8.799 -0.5579 -2.8983  0.6805
  892TIP3    H226872   3.006   0.431   8.760  0.8304 -1.4749  1.8566
  893TIP3   OH226873   4.929   3.674   7.885  0.1633  0.4543 -0.2907
  893TIP3    H126874   4.930   3.592   7.836  0.8610 -0.0839  0.5898
  893TIP3    H226875   4.839   3.705   7.878  0.1520  0.2200 -1.5906
  894TIP3   OH226876   5.161   2.018   7.830 -0.0059 -0.4420 -0.1854
  894TIP3    H126877   5.180   1.937   7.783  0.7188 -0.6907  0.5077
  894TIP3    H226878   5.105   1.991   7.903  0.6934 -0.4209  0.3721
  895TIP3   OH226879   1.231   0.675   9.782  0.1674  0.0198  0.0886
  895TIP3    H126880   1.164   0.625   9.828  0.6019 -0.5165  0.1603
  895TIP3    H226881   1.311   0.622   9.792  0.4464  0.3031 -0.5753
  896TIP3   OH226882   2.010   3.877   8.924 -0.1204 -0.3148 -0.2178
  896TIP3    H126883   1.972   3.964   8.930  0.7123 -0.0283  1.3453
  896TIP3    H226884   2.102   3.893   8.904 -0.1840 -0.8917 -1.0232
  897TIP3   OH226885   7.409   3.790   7.584  0.4172 -0.1116 -0.3393
  897TIP3    H126886   7.327   3.741   7.580  0.9406 -0.9347 -1.6368
  897TIP3    H226887   7.426   3.816   7.493  0.9510  1.1543  0.0920
  898TIP3   OH226888   3.591   1.620   9.058 -0.3837  0.1423  0.2546
  898TIP3    H126889   3.502   1.642   9.031 -0.8703 -0.3976  1.3822
  898TIP3    H226890   3.593   1.524   9.058  0.8910  0.0934 -1.9340
  899TIP3   OH226891   3.255   7.251   8.446  0.1092 -0.0023 -0.4415
  899TIP3    H126892   3.328   7.260   8.507 -0.3687 -0.4973  0.2205
  899TIP3    H226893   3.240   7.156   8.441  0.6820 -0.0460 -1.9863
  900TIP3   OH226894   0.623   6.645   9.569  0.4199  0.7290  0.4942
  900TIP3    H126895   0.619   6.741   9.565  2.8109  0.9460  1.7890
  900TIP3    H226896   0.656   6.626   9.656 -1.6857 -1.4180  0.9277
  901TIP3   OH226897   3.619   4.642   7.604  0.3038 -0.1687  0.0631
  901TIP3    H126898   3.698   4.621   7.652 -0.1527  0.3530  1.0742
  901TIP3    H226899   3.562   4.685   7.668 -0.5614  0.0038 -0.7882
  902TIP3   OH226900   1.684   2.836   7.672  0.4816 -0.4957 -0.2516
  902TIP3    H126901   1.730   2.753   7.687  0.2424 -0.3280  1.5984
  902TIP3    H226902   1.591   2.811   7.671  0.2590 -0.0539  2.3866
  903TIP3   OH226903   6.764   0.348   8.476 -0.5403  0.0081 -0.0112
  903TIP3    H126904   6.785   0.261   8.511  0.8184  0.1698 -0.3894
  903TIP3    H226905   6.792   0.344   8.384  0.4041  1.1337  0.2111
  904TIP3   OH226906   5.258   2.317   7.540  0.2360 -0.0236 -0.3387
  904TIP3    H126907   5.293   2.385   7.482  1.8452 -0.6825 -0.1719
  904TIP3    H226908   5.185   2.280   7.490  1.4045 -0.3825 -1.8663
  905TIP3   OH226909   7.182   1.007   8.931 -0.4182  0.2650 -0.3602
  905TIP3    H126910   7.271   0.972   8.935 -0.9727 -1.3408 -1.0441
  905TIP3    H226911   7.178   1.073   8.999  0.7119 -1.0497  1.0450
  906TIP3   OH226912   0.201   3.930   9.014 -0.8221  0.0192  0.3518
  906TIP3    H126913   0.131   3.864   9.014 -1.0729  0.2788  0.7416
  906TIP3    H226914   0.192   3.975   8.931  1.4689 -2.6335 -1.5245
  907TIP3   OH226915   7.532   6.408   7.983 -0.5334  0.9171  0.0326
  907TIP3    H126916   7.623   6.436   7.986  0.0558 -0.5074 -2.4209
  907TIP3    H226917   7.521   6.356   8.063  2.5891 -3.5750 -2.0188
  908TIP3   OH226918   5.626   2.335   8.525  0.4099 -0.0932  0.3432
  908TIP3    H126919   5.656   2.353   8.615 -1.2606 -0.0834  0.9317
  908TIP3    H226920   5.538   2.370   8.522  0.5726  0.2451 -1.4577
  909TIP3   OH226921   0.899   0.859   9.317  0.2467 -0.4645  0.0259
  909TIP3    H126922   0.935   0.875   9.404  1.2125 -1.2646 -0.2135
  909TIP3    H226923   0.933   0.774   9.292 -1.7439 -1.2337 -0.2682
  910TIP3   OH226924   3.394   3.211   8.778 -0.0961  0.0502  0.4279
  910TIP3    H126925   3.321   3.227   8.718 -0.1470  0.6850  0.6506
  910TIP3    H226926   3.392   3.286   8.838  0.5549 -0.0809  0.6176
  911TIP3   OH226927   6.626   4.070   7.237  0.0548 -0.1786 -0.5083
  911TIP3    H126928   6.669   3.986   7.220 -1.4147 -0.9640 -0.4406
  911TIP3    H226929   6.537   4.059   7.203  0.6988  2.4499 -3.4391
  912TIP3   OH226930   5.642   5.273   9.705  0.1513 -0.2728  0.0954
  912TIP3    H126931   5.693   5.348   9.673  1.5475 -0.7292  1.1546
  912TIP3    H226932   5.578   5.312   9.766 -0.0595  0.1908 -0.4160
  913TIP3   OH226933   3.074   6.017   9.248  0.6060 -0.5601  0.4003
  913TIP3    H126934   3.089   5.945   9.309  0.3702  0.3496  1.5486
  913TIP3    H226935   2.986   6.048   9.268  0.4826 -0.2953 -0.4760
  914TIP3   OH226936   0.300   7.326   8.525 -0.5496 -0.2620  0.3502
  914TIP3    H126937   0.299   7.286   8.612  0.0588  0.1812  0.5691
  914TIP3    H226938   0.319   7.418   8.541 -1.2565 -0.0094 -0.1998
  915TIP3   OH226939   3.860   1.615   7.971  0.0818  0.1117 -0.6856
  915TIP3    H126940   3.869   1.586   7.880  0.5156  2.0407 -1.3206
  915TIP3    H226941   3.917   1.692   7.977 -0.8156  0.7020  0.9037
  916TIP3   OH226942   7.416   3.710   8.291 -0.0841  0.5285 -0.0334
  916TIP3    H126943   7.447   3.635   8.241 -0.5619  1.4713 -1.8229
  916TIP3    H226944   7.424   3.784   8.231 -1.2023  1.6191  1.1047
  917TIP3   OH226945   7.254   3.904   8.419  0.0683 -0.2292  0.0540
  917TIP3    H126946   7.321   3.846   8.384 -1.1091 -1.3473 -0.4269
  917TIP3    H226947   7.172   3.855   8.410 -0.5457  0.1469  2.7507
  918TIP3   OH226948   4.822   4.736   9.409  0.0843  0.2467  0.5881
  918TIP3    H126949   4.785   4.818   9.441 -2.2361 -0.6220  0.3739
  918TIP3    H226950   4.895   4.718   9.467  0.2767  2.1632  0.9973
  919TIP3   OH226951   5.191   1.395   9.340 -0.4220  0.2191  0.0036
  919TIP3    H126952   5.101   1.371   9.360  0.1826 -1.2640  1.1036
  919TIP3    H226953   5.216   1.338   9.268  0.0088 -0.2312  0.5003
  920TIP3   OH226954   1.527   6.901   9.234 -0.4583  0.4546 -0.0869
  920TIP3    H126955   1.574   6.951   9.301 -0.5465  0.2477  0.1319
  920TIP3    H226956   1.586   6.902   9.158  0.5773 -1.0364  0.6496
  921TIP3   OH226957   7.302   0.732   9.363  0.1531  0.3224 -0.0149
  921TIP3    H126958   7.207   0.733   9.369  0.1172 -0.1094 -0.4470
  921TIP3    H226959   7.323   0.647   9.324  0.6362  0.8894 -1.0443
  922TIP3   OH226960   3.503   5.990   8.304 -0.3573 -0.1632  0.2444
  922TIP3    H126961   3.452   6.068   8.283  0.2580 -0.1137 -1.1905
  922TIP3    H226962   3.501   5.985   8.399 -1.3177  0.9787  0.3105
  923TIP3   OH226963   0.645   2.311   8.781  0.0374  0.5053 -0.0499
  923TIP3    H126964   0.559   2.341   8.752 -0.3261  0.2875  0.7905
  923TIP3    H226965   0.626   2.240   8.843  0.7347  2.1095  2.1122
  924TIP3   OH226966   4.140   6.289   9.052 -0.0423 -0.4375  0.0068
  924TIP3    H126967   4.182   6.279   9.138  1.8372 -2.8779 -1.0506
  924TIP3    H226968   4.199   6.347   9.003 -0.4263 -0.0793 -0.0332
  925TIP3   OH226969   5.462   6.499   9.107  0.0362 -0.3463  0.0505
  925TIP3    H126970   5.423   6.472   9.024  0.4850  1.2020 -0.6958
  925TIP3    H226971   5.387   6.506   9.167 -0.6094  0.7702 -0.8537
  926TIP3   OH226972   6.146   3.743   6.703 -0.3973  0.1813  0.0112
  926TIP3    H126973   6.214   3.775   6.644  0.9174 -0.8709  0.9005
  926TIP3    H226974   6.156   3.648   6.703  0.0614  0.1666  2.3338
  927TIP3   OH226975   7.369   5.970   9.720  0.1744  0.0592  0.1835
  927TIP3    H126976   7.356   5.875   9.719 -0.3379  0.1248  0.6024
  927TIP3    H226977   7.401   5.990   9.632 -0.4712 -0.3961 -0.1614
  928TIP3   OH226978   0.590   1.832   9.527  0.0441 -0.7603 -0.1923
  928TIP3    H126979   0.518   1.771   9.511 -0.0127 -1.8008  3.1683
  928TIP3    H226980   0.578   1.901   9.463 -1.9835 -2.5246 -1.8778
  929TIP3   OH226981   3.900   6.004   7.959 -0.3175  0.2565  0.0245
  929TIP3    H126982   3.816   6.006   7.911 -0.7192  0.6319  0.7294
  929TIP3    H226983   3.877   6.031   8.048  0.9499  2.8494 -0.3551
  930TIP3   OH226984   3.766   7.574   9.118 -0.2048 -0.2630  0.4823
  930TIP3    H126985   3.681   7.617   9.105  0.3463  0.4113 -1.0785
  930TIP3    H226986   3.788   7.539   9.033  1.0947 -0.4386  0.8784
  931TIP3   OH226987   2.215   3.749   7.772 -0.6581  0.5025 -0.2812
  931TIP3    H126988   2.159   3.791   7.836 -1.1137 -0.7428  0.1799
  931TIP3    H226989   2.156   3.727   7.700 -1.0252 -1.6470  0.6005
  932TIP3   OH226990   7.352   4.046   7.681  0.3136  0.5089  0.0919
  932TIP3    H126991   7.409   4.115   7.715  0.6257  0.3177 -0.0391
  932TIP3    H226992   7.412   3.977   7.654 -0.0128  0.0948  0.4309
  933TIP3   OH226993   0.060   5.145   9.458 -0.5582 -0.1594  0.2511
  933TIP3    H126994   0.138   5.095   9.480  0.3548  0.0754 -2.1526
  933TIP3    H226995   0.064   5.222   9.516  0.2065 -0.8339  1.1281
  934TIP3   OH226996   0.170   7.069   8.250 -0.4305  0.0346 -0.2924
  934TIP3    H126997   0.249   7.022   8.278  0.7012  1.8221 -0.3712
  934TIP3    H226998   0.187   7.093   8.159 -1.3735 -0.1518 -0.5307
  935TIP3   OH226999   5.863   5.879   6.893  0.4122  0.1400  0.7023
  935TIP3    H127000   5.957   5.882   6.875  0.1955  2.9470 -0.5427
  935TIP3    H227001   5.826   5.834   6.817  0.5481  1.5369 -0.2250
  936TIP3   OH227002   5.964   1.376   8.433 -0.3045 -0.2755  0.5614
  936TIP3    H127003   5.926   1.303   8.481 -0.2041  0.4660  1.8179
  936TIP3    H227004   5.895   1.403   8.372  0.1299 -2.2239 -0.8906
  937TIP3   OH227005   0.969   3.701   8.504  0.4053  0.1856 -0.3433
  937TIP3    H127006   0.988   3.790   8.535  0.1882  0.2578 -0.4160
  937TIP3    H227007   1.051   3.653   8.518 -0.0088 -0.0929  1.4763
  938TIP3   OH227008   1.018   2.643   7.414 -0.0226  0.5998  0.6425
  938TIP3    H127009   1.051   2.725   7.451  1.8679  0.4105 -0.4743
  938TIP3    H227010   0.956   2.670   7.347  0.8602  1.1752  0.0276
  939TIP3   OH227011   6.126   6.666   7.607  0.4767  0.3861 -0.1875
  939TIP3    H127012   6.206   6.659   7.554  0.7156  0.3495  0.1734
  939TIP3    H227013   6.117   6.580   7.648 -0.1166  0.1751 -0.7392
  940TIP3   OH227014   0.465   2.442   7.998  0.3430  0.2425 -0.5211
  940TIP3    H127015   0.465   2.347   7.992  1.8850  0.0597  1.2244
  940TIP3    H227016   0.416   2.461   8.078  0.4813  0.8567 -0.5749
  941TIP3   OH227017   7.305   7.425   9.167 -0.5730  0.2869  0.0101
  941TIP3    H127018   7.350   7.370   9.231  1.8896 -0.2255 -1.9806
  941TIP3    H227019   7.361   7.422   9.089 -2.0411  2.9720 -1.3141
  942TIP3   OH227020   4.102   6.721   8.532 -0.1661  0.3047 -0.4100
  942TIP3    H127021   4.113   6.626   8.534 -0.6030  0.2611  0.6857
  942TIP3    H227022   4.042   6.740   8.604  1.0176  1.5545  0.3020
  943TIP3   OH227023   0.239   3.703   7.161 -0.1497  0.1373 -0.6273
  943TIP3    H127024   0.176   3.663   7.101  0.8120 -0.4746 -1.2490
  943TIP3    H227025   0.259   3.634   7.223  2.2839 -0.7681 -2.2929
  944TIP3   OH227026   0.953   6.666   8.584  0.2687 -0.2584 -0.0902
  944TIP3    H127027   0.918   6.734   8.642  0.0392  0.0600 -0.5956
  944TIP3    H227028   1.032   6.635   8.629  0.5343  0.5418  0.0180
  945TIP3   OH227029   2.104   0.933   7.254 -0.6094  0.3807 -0.1241
  945TIP3    H127030   2.194   0.939   7.287 -1.2908  3.5943  1.6248
  945TIP3    H227031   2.109   0.965   7.164  0.0015  0.5262 -0.0402
  946TIP3   OH227032   7.470   2.059   9.117 -0.2389 -0.6313  0.5851
  946TIP3    H127033   7.380   2.059   9.148 -0.1339 -0.8706  0.8885
  946TIP3    H227034   7.479   1.977   9.068 -0.2971 -0.4281  0.2295
  947TIP3   OH227035   4.006   4.364   6.806 -0.4176  0.7129 -0.0310
  947TIP3    H127036   3.950   4.288   6.823 -0.4439  0.3855 -1.5121
  947TIP3    H227037   3.974   4.430   6.867 -3.3109  0.9755 -1.6484
  948TIP3   OH227038   2.382   1.716   7.647 -0.1200  0.2152 -0.2910
  948TIP3    H127039   2.401   1.772   7.572  0.9941  0.9332  0.4917
  948TIP3    H227040   2.417   1.630   7.623  1.5833  0.8060 -0.0343
  949TIP3   OH227041   6.289   5.419   8.912  0.3699  0.4048 -0.4487
  949TIP3    H127042   6.305   5.393   8.821  0.8776  1.2664 -0.6211
  949TIP3    H227043   6.298   5.339   8.962  1.7302  0.2019 -0.9764
  950TIP3   OH227044   2.527   3.067   7.767  0.0364 -0.0225  0.0723
  950TIP3    H127045   2.617   3.037   7.781  0.2420  1.7154  4.1934
  950TIP3    H227046   2.537   3.157   7.734 -0.3406 -0.7414 -2.1382
  951TIP3   OH227047   1.795   1.297   8.371 -0.2123  0.0414  0.9560
  951TIP3    H127048   1.849   1.375   8.380  1.1124 -0.5323 -1.0853
  951TIP3    H227049   1.798   1.277   8.277 -1.3679 -1.8717  1.2677
  952TIP3   OH227050   0.710   1.128   8.648 -0.1065 -0.5297 -0.0708
  952TIP3    H127051   0.639   1.114   8.709  0.0969 -0.9341  0.0736
  952TIP3    H227052   0.788   1.093   8.692  0.2632  0.2996 -0.0398
  953TIP3   OH227053   4.318   6.542   7.574  0.0713 -0.0949 -0.1547
  953TIP3    H127054   4.357   6.493   7.501 -1.1961 -1.0181 -0.2294
  953TIP3    H227055   4.385   6.607   7.597  1.7678 -1.8040 -0.0893
  954TIP3   OH227056   5.003   2.308   8.675 -0.0007  0.4475  0.3972
  954TIP3    H127057   5.096   2.296   8.655 -0.2426 -1.8569  0.4329
  954TIP3    H227058   4.965   2.345   8.596  0.5930 -0.5805 -0.3854
  955TIP3   OH227059   1.897   0.791   9.404 -0.5681 -0.5674  0.0902
  955TIP3    H127060   1.975   0.758   9.360 -1.0674 -0.2198 -1.1044
  955TIP3    H227061   1.915   0.884   9.420 -0.3213 -0.7315  0.7839
  956TIP3   OH227062   7.151   3.939   9.529  0.3926 -0.7803 -0.4811
  956TIP3    H127063   7.220   4.003   9.545 -1.8499  1.9755 -1.0647
  956TIP3    H227064   7.134   3.946   9.435 -0.3585 -1.7572 -0.4347
  957TIP3   OH227065   4.891   6.606   8.749 -1.3525  0.3295 -0.1378
  957TIP3    H127066   4.871   6.661   8.674 -1.8852 -1.3082 -1.2592
  957TIP3    H227067   4.828   6.534   8.743 -1.9469  0.5441  2.3388
  958TIP3   OH227068   3.741   0.505   7.822 -0.4049  0.4157 -0.2668
  958TIP3    H127069   3.736   0.594   7.787 -0.5820  0.8778  0.8821
  958TIP3    H227070   3.695   0.451   7.758 -0.4042  1.1618 -0.9167
  959TIP3   OH227071   6.325   7.589   8.224  0.1394 -0.1037 -0.2451
  959TIP3    H127072   6.244   7.629   8.254 -1.5508 -1.6560 -2.4036
  959TIP3    H227073   6.333   7.509   8.278  1.0970  0.7629  0.9673
  960TIP3   OH227074   5.105   5.643   9.273  0.0196 -0.2380  0.3074
  960TIP3    H127075   5.149   5.589   9.338 -0.1685  1.2598  1.7320
  960TIP3    H227076   5.096   5.586   9.197 -1.2340 -2.5897  2.1072
  961TIP3   OH227077   3.147   6.380   7.255 -0.1067 -0.0309  0.4968
  961TIP3    H127078   3.075   6.362   7.315 -1.6263 -0.2684 -1.3054
  961TIP3    H227079   3.138   6.472   7.233 -0.7043 -0.3662 -0.7499
  962TIP3   OH227080   7.508   5.671   8.656 -0.2282  0.2155  0.1732
  962TIP3    H127081   7.485   5.763   8.646 -0.2122  0.3814  1.4665
  962TIP3    H227082   7.570   5.670   8.729 -2.3230 -1.0926  2.0298
  963TIP3   OH227083   7.355   0.447   8.356  0.1349  0.1726  0.3040
  963TIP3    H127084   7.437   0.401   8.337 -0.2014 -0.1950 -0.3115
  963TIP3    H227085   7.327   0.483   8.272 -0.0836  0.7195  0.6036
  964TIP3   OH227086   7.549   0.277   7.491 -0.1916 -0.7278  0.3484
  964TIP3    H127087   7.471   0.281   7.546 -0.7043 -1.6051 -0.2756
  964TIP3    H227088   7.524   0.219   7.419  0.0941  1.2057 -1.4016
  965TIP3   OH227089   6.651   3.672   8.146  0.1702  0.3201 -0.4968
  965TIP3    H127090   6.687   3.760   8.137  1.2200  0.5436  3.8755
  965TIP3    H227091   6.567   3.684   8.190  0.4973 -0.8174  0.4999
  966TIP3   OH227092   7.275   0.313   7.679 -0.2013 -0.2188  0.4680
  966TIP3    H127093   7.212   0.342   7.612 -0.8758 -0.5400  0.9439
  966TIP3    H227094   7.220   0.282   7.751  0.4228 -3.1477 -0.1779
  967TIP3   OH227095   0.616   2.742   6.629  0.3280  0.5985 -0.4085
  967TIP3    H127096   0.608   2.699   6.714 -1.0313 -0.4062 -0.9940
  967TIP3    H227097   0.630   2.670   6.567 -0.1076  1.1670 -1.1929
  968TIP3   OH227098   5.514   6.610   8.065  0.0004  0.2749  0.4334
  968TIP3    H127099   5.536   6.691   8.112  0.2801 -0.4579  1.5923
  968TIP3    H227100   5.476   6.553   8.132 -1.8194  0.0648 -0.7128
  969TIP3   OH227101   3.570   6.559   8.110 -0.4966 -1.2621  0.0807
  969TIP3    H127102   3.632   6.576   8.038  0.6083 -1.5833  0.9297
  969TIP3    H227103   3.509   6.495   8.073  0.0749 -1.4514 -0.5730
  970TIP3   OH227104   2.552   6.955   9.172 -0.3814 -0.0252  0.2021
  970TIP3    H127105   2.602   6.891   9.121 -0.5536 -0.3050  0.3816
  970TIP3    H227106   2.616   7.023   9.194 -0.3748  0.2510 -0.6355
  971TIP3   OH227107   5.881   2.183   9.237  0.1264 -0.2113  0.1488
  971TIP3    H127108   5.930   2.101   9.247 -0.9409 -0.8038  0.8513
  971TIP3    H227109   5.943   2.244   9.198  0.7475 -1.5520 -1.0573
  972TIP3   OH227110   0.350   5.562   9.527 -0.4451 -0.3818 -0.3225
  972TIP3    H127111   0.325   5.654   9.538 -0.3804 -0.0697 -2.4069
  972TIP3    H227112   0.443   5.559   9.547 -0.8113 -0.4284  1.6745
  973TIP3   OH227113   5.855   1.190   9.162 -0.4643 -0.6475  0.1757
  973TIP3    H127114   5.902   1.175   9.079 -0.5751 -0.1430  0.0195
  973TIP3    H227115   5.890   1.273   9.194 -1.7047  0.0524 -0.2538
  974TIP3   OH227116   1.544   0.410   6.925  0.0614  0.2316  0.4047
  974TIP3    H127117   1.562   0.502   6.945  0.3557  0.1420  0.5551
  974TIP3    H227118   1.629   0.367   6.930 -0.3161 -0.4196  2.3538
  975TIP3   OH227119   3.290   6.802   6.957 -0.1762  0.4117  0.3305
  975TIP3    H127120   3.307   6.809   7.051  2.1657  0.5804 -0.0373
  975TIP3    H227121   3.288   6.892   6.926 -0.3660  0.3402  0.1295
  976TIP3   OH227122   2.292   6.313   9.084 -0.0315  0.4200 -0.0587
  976TIP3    H127123   2.300   6.361   9.167  0.2035  1.4830 -0.6801
  976TIP3    H227124   2.201   6.327   9.057 -0.6089 -1.3368  0.8341
  977TIP3   OH227125   5.652   0.077   9.126  0.5153 -0.9914 -0.5562
  977TIP3    H127126   5.636  -0.001   9.179 -3.0047  0.0469  0.1971
  977TIP3    H227127   5.695   0.138   9.186 -1.3394 -0.6467  0.5003
  978TIP3   OH227128   5.426   1.998   7.623  0.5104 -0.0001  0.0149
  978TIP3    H127129   5.362   2.050   7.672  0.5724  0.4399 -0.3640
  978TIP3    H227130   5.391   1.997   7.534  0.1197 -1.2357  0.1704
  979TIP3   OH227131   6.763   3.759   8.712 -0.0719  0.2480 -0.3749
  979TIP3    H127132   6.745   3.728   8.801 -1.9918 -0.3581 -0.9288
  979TIP3    H227133   6.728   3.848   8.710  0.2098  0.3571 -0.4420
  980TIP3   OH227134   3.158   7.503   8.457 -0.0364  0.4089 -0.1144
  980TIP3    H127135   3.210   7.423   8.461  0.2791  0.6058 -0.3139
  980TIP3    H227136   3.205   7.565   8.511 -0.9021  0.1143  1.0272
  981TIP3   OH227137   4.890   7.074   8.530  0.1816 -0.2418 -0.2137
  981TIP3    H127138   4.884   7.016   8.605 -0.5170 -0.5527 -0.5019
  981TIP3    H227139   4.968   7.127   8.546 -0.3556  0.1846  1.0763
  982TIP3   OH227140   5.410   0.815   6.721  0.3176  0.3687  0.5555
  982TIP3    H127141   5.337   0.767   6.760 -0.8851  1.0295 -0.7683
  982TIP3    H227142   5.372   0.899   6.696  0.8499 -0.1238 -2.3212
  983TIP3   OH227143   0.929   6.308   9.194  0.1072  0.5117 -0.6503
  983TIP3    H127144   0.885   6.388   9.223 -1.2478  0.3258 -2.0454
  983TIP3    H227145   0.868   6.238   9.218 -0.4983  0.2591 -2.7365
  984TIP3   OH227146   1.877   0.679   7.667  0.0089 -0.5341 -0.6382
  984TIP3    H127147   1.879   0.771   7.691  0.4020 -1.0538  1.5582
  984TIP3    H227148   1.788   0.650   7.690  0.5095 -1.1297  0.6673
  985TIP3   OH227149   4.159   4.060   8.504 -0.4117  0.4060  0.3350
  985TIP3    H127150   4.227   4.090   8.444  0.1039  0.7557  1.0749
  985TIP3    H227151   4.113   4.140   8.529 -0.9243  0.2023  0.0404
  986TIP3   OH227152   6.307   6.598   8.451  0.2419  1.1312  0.7723
  986TIP3    H127153   6.302   6.626   8.360  1.7195  1.4179  0.7627
  986TIP3    H227154   6.223   6.625   8.489 -1.2901 -0.7892 -0.9562
  987TIP3   OH227155   0.176   0.011   9.286  0.0497 -0.2472  0.2301
  987TIP3    H127156   0.238   0.083   9.276 -0.4384  0.0370 -0.9119
  987TIP3    H227157   0.090   0.052   9.280 -0.2420 -1.0630 -1.7475
  988TIP3   OH227158   6.796   6.118   8.795  0.0099  0.0842  0.3293
  988TIP3    H127159   6.748   6.051   8.746 -0.6104  0.6976  0.0925
  988TIP3    H227160   6.742   6.196   8.789 -0.4967 -0.0243  2.6922
  989TIP3   OH227161   6.268   1.002   6.789  0.0351 -0.0074  0.0443
  989TIP3    H127162   6.185   1.024   6.831 -1.5169 -2.1047 -1.7058
  989TIP3    H227163   6.302   1.086   6.758 -2.0214  0.8102 -0.1528
  990TIP3   OH227164   6.716   3.942   8.134 -0.3084 -0.4723  0.4090
  990TIP3    H127165   6.800   3.968   8.095 -0.5716 -1.2283 -0.7172
  990TIP3    H227166   6.729   3.951   8.228 -0.0190  2.6186  0.1950
  991TIP3   OH227167   6.793   1.644   9.284  0.0092 -0.7618  0.2346
  991TIP3    H127168   6.764   1.557   9.313  0.1806 -0.9996 -0.2879
  991TIP3    H227169   6.714   1.687   9.253 -0.4333  0.0149  2.2688
  992TIP3   OH227170   5.076   6.654   8.075 -0.3790 -0.1283 -0.9243
  992TIP3    H127171   5.102   6.734   8.031 -1.3148 -0.5528 -2.3355
  992TIP3    H227172   4.982   6.646   8.058 -1.0352  0.1411  1.9776
  993TIP3   OH227173   1.395   6.639   7.560  0.1166 -0.5876 -0.4939
  993TIP3    H127174   1.436   6.562   7.521  1.0064 -0.6487  0.5246
  993TIP3    H227175   1.425   6.712   7.506 -0.8715 -0.9426 -1.5730
  994TIP3   OH227176   4.873   4.158   8.788 -0.5046 -0.6560 -0.5703
  994TIP3    H127177   4.919   4.086   8.746 -1.2189 -0.8017 -1.1214
  994TIP3    H227178   4.930   4.234   8.776  0.4645 -1.2012  0.4065
  995TIP3   OH227179   3.886   6.269   7.278 -0.3540 -0.3069 -0.0461
  995TIP3    H127180   3.791   6.273   7.272 -0.4152  0.4801  1.2393
  995TIP3    H227181   3.916   6.295   7.191 -1.3051 -0.8027 -0.5374
  996TIP3   OH227182   0.658   0.276   9.026  0.4017 -0.5567 -0.2179
  996TIP3    H127183   0.674   0.295   8.934  0.9978  0.5928  0.1074
  996TIP3    H227184   0.745   0.276   9.066  0.0295  0.6831  0.6539
  997TIP3   OH227185   0.600   4.062   7.678  0.1852  0.3808  0.0696
  997TIP3    H127186   0.518   4.090   7.718  0.5267  1.3611  0.1070
  997TIP3    H227187   0.573   4.017   7.597 -0.3279  2.4332 -0.9569
  998TIP3   OH227188   3.598   0.317   8.975  0.6917 -0.0354 -0.2050
  998TIP3    H127189   3.541   0.393   8.980  0.6592 -0.0544 -0.2834
  998TIP3    H227190   3.675   0.348   8.928  1.1359  0.2278  0.6815
  999TIP3   OH227191   0.033   5.527   9.063 -0.5995  0.0302  0.1678
  999TIP3    H127192   0.080   5.564   9.137 -3.2038  1.0784  1.4248
  999TIP3    H227193   0.069   5.439   9.053  0.0198 -0.0300  2.4978
 1000TIP3   OH227194   0.397   2.470   7.619 -0.0828  0.0296 -0.1218
 1000TIP3    H127195   0.461   2.503   7.556 -0.4100 -1.2892 -1.2012
 1000TIP3    H227196   0.394   2.536   7.687  2.1088  0.3478 -0.2567
 1001TIP3   OH227197   4.614   0.720   9.360  0.2193  0.1439  0.0083
 1001TIP3    H127198   4.706   0.745   9.362  0.2424  0.0933 -0.4517
 1001TIP3    H227199   4.614   0.626   9.380  0.0863  0.5757  2.3778
 1002TIP3   OH227200   0.762   7.652   7.161 -0.2491 -0.4140 -0.1885
 1002TIP3    H127201   0.763   7.568   7.115 -2.9858 -1.3484  1.2142
 1002TIP3    H227202   0.671   7.681   7.155  0.2680  1.5899  0.8867
 1003TIP3   OH227203   3.705   3.398   8.522 -0.2548  0.1146 -0.1819
 1003TIP3    H127204   3.738   3.309   8.520  0.7153  0.4703 -1.9650
 1003TIP3    H227205   3.730   3.435   8.438 -0.8539  2.0003  0.4118
 1004TIP3   OH227206   7.099   0.810   7.868 -0.1923 -0.0275 -0.7810
 1004TIP3    H127207   7.032   0.817   7.937  0.5591 -2.8016  0.3765
 1004TIP3    H227208   7.065   0.742   7.809  1.3650 -1.1590 -0.4169
 1005TIP3   OH227209   4.021   5.480   8.825 -0.4548 -0.0989  0.0577
 1005TIP3    H127210   4.091   5.416   8.833 -0.8364 -0.5367 -0.0137
 1005TIP3    H227211   3.953   5.449   8.885 -0.1281  0.9558  1.0203
 1006TIP3   OH227212   1.102   1.659   8.626  0.8619 -0.2405 -0.3165
 1006TIP3    H127213   1.166   1.588   8.639 -0.0968 -1.2695 -0.9871
 1006TIP3    H227214   1.026   1.615   8.590  0.5121  1.2718 -1.5020
 1007TIP3   OH227215   0.768   0.244   9.522  0.3514  0.9083 -0.0131
 1007TIP3    H127216   0.843   0.302   9.505  0.1396  1.0755 -0.4021
 1007TIP3    H227217   0.699   0.303   9.551  0.0109  0.9017 -0.8010
 1008TIP3   OH227218   2.992   3.072   8.274  0.1197 -0.1048  0.0148
 1008TIP3    H127219   3.075   3.116   8.257 -0.4814  1.1577  0.2278
 1008TIP3    H227220   2.961   3.045   8.187  1.7026 -2.4887  0.0893
 1009TIP3   OH227221   2.951   7.436   8.176  0.1445  0.4265  0.1706
 1009TIP3    H127222   2.969   7.462   8.086  0.6757 -1.2353 -0.2432
 1009TIP3    H227223   3.030   7.388   8.203 -0.0489  0.8124  1.4914
 1010TIP3   OH227224   5.519   5.722   8.151 -0.1533  0.5705 -0.0684
 1010TIP3    H127225   5.477   5.780   8.214  0.2295  1.8714 -0.9732
 1010TIP3    H227226   5.514   5.635   8.191  0.1994  1.3690  1.7992
 1011TIP3   OH227227   7.545   2.818   7.279 -0.0033 -0.0475 -0.3873
 1011TIP3    H127228   7.598   2.869   7.218  0.6262  0.9883  0.9814
 1011TIP3    H227229   7.569   2.727   7.261  0.8662  0.2969 -1.0460
 1012TIP3   OH227230   0.053   0.013   8.810 -0.3107 -0.8608 -0.0982
 1012TIP3    H127231   0.022  -0.077   8.807 -0.7721 -0.7580  1.1043
 1012TIP3    H227232   0.057   0.040   8.718 -0.2995 -2.0529 -0.4562
 1013TIP3   OH227233   2.796   0.207   8.973  0.1518  0.5718  0.0777
 1013TIP3    H127234   2.762   0.295   8.961  0.3742  0.7038  0.3932
 1013TIP3    H227235   2.858   0.215   9.046  0.8585  0.3428 -0.4900
 1014TIP3   OH227236   7.616   3.642   9.363 -0.4813 -0.3307  0.6055
 1014TIP3    H127237   7.710   3.634   9.378 -0.4005 -1.3193 -0.2443
 1014TIP3    H227238   7.596   3.571   9.301 -1.6006  0.5069 -0.0279
 1015TIP3   OH227239   3.072   7.646   9.588  0.6862 -0.3494  0.1504
 1015TIP3    H127240   2.999   7.631   9.529 -0.4163 -0.7316  1.5557
 1015TIP3    H227241   3.094   7.738   9.577 -2.3046  0.7389  2.1216
 1016TIP3   OH227242   4.816   6.227   7.943  0.1237 -0.3935 -0.3228
 1016TIP3    H127243   4.885   6.275   7.898  0.8863 -0.4826  0.7048
 1016TIP3    H227244   4.861   6.152   7.982 -0.7439 -1.0132 -0.4866
 1017TIP3   OH227245   7.044   0.597   9.176 -0.1797  0.0192  0.5941
 1017TIP3    H127246   7.109   0.664   9.155 -0.0656  0.4410  2.1941
 1017TIP3    H227247   7.055   0.532   9.107  0.8746  0.8223 -0.0403
 1018TIP3   OH227248   5.185   3.762   7.882 -0.2273  0.7462 -0.0533
 1018TIP3    H127249   5.164   3.853   7.861  0.1156  1.0076  0.7103
 1018TIP3    H227250   5.102   3.715   7.874  0.0500  0.5549 -3.2509
 1019TIP3   OH227251   6.398   5.062   7.101  0.2513 -0.1434 -0.4541
 1019TIP3    H127252   6.326   5.091   7.157 -0.2517 -0.1351 -1.0957
 1019TIP3    H227253   6.358   4.997   7.044  1.2224 -1.7417  0.5954
 1020TIP3   OH227254   2.064   1.346   8.888  0.5397 -0.1750  0.6007
 1020TIP3    H127255   2.149   1.368   8.926  1.6108 -0.1395 -1.6217
 1020TIP3    H227256   2.002   1.351   8.961  2.4135 -0.0704  2.2591
 1021TIP3   OH227257   5.963   7.493   6.982  0.9356 -0.1429  0.4465
 1021TIP3    H127258   5.944   7.576   6.938  0.6719  1.4011  3.2779
 1021TIP3    H227259   6.007   7.441   6.915 -0.8001  1.4172 -2.1061
 1022TIP3   OH227260   6.448   7.644   7.372 -0.0049  0.1457 -0.4597
 1022TIP3    H127261   6.503   7.690   7.308  1.6574 -0.7939  0.2129
 1022TIP3    H227262   6.417   7.566   7.325 -0.3637  0.4230 -0.6888
 1023TIP3   OH227263   5.674   0.425   6.733 -0.4442 -0.4938 -0.2139
 1023TIP3    H127264   5.713   0.499   6.686 -1.1249  0.4449  0.6496
 1023TIP3    H227265   5.743   0.358   6.733  0.4001  0.3465 -0.5186
 1024TIP3   OH227266   5.094   2.372   9.313 -0.2981 -0.0418  0.0317
 1024TIP3    H127267   5.067   2.425   9.388 -0.6725 -1.9154  1.3030
 1024TIP3    H227268   5.022   2.378   9.251 -1.3213 -0.7584  1.1096
 1025TIP3   OH227269   7.070   4.166   9.112  0.0777  0.0673 -0.2459
 1025TIP3    H127270   7.136   4.131   9.172 -0.9168 -0.1419  0.7416
 1025TIP3    H227271   7.118   4.179   9.030  2.0402  2.4208  1.1369
 1026TIP3   OH227272   5.589   5.042   7.969  0.6322  0.3917  0.8594
 1026TIP3    H127273   5.628   5.120   7.928  1.5688 -0.1298  0.7163
 1026TIP3    H227274   5.522   5.076   8.028  0.0031  1.2266 -0.2941
 1027TIP3   OH227275   3.946   4.785   9.396 -0.2681 -0.5390 -0.0887
 1027TIP3    H127276   3.889   4.848   9.353  2.6099 -0.1844 -3.8761
 1027TIP3    H227277   3.924   4.701   9.356 -0.9000 -1.2057  1.5423
 1028TIP3   OH227278   6.599   5.979   8.225  0.8717  0.0036  0.3856
 1028TIP3    H127279   6.661   6.021   8.285 -1.3417  3.3298  0.6427
 1028TIP3    H227280   6.576   6.048   8.163 -3.1855 -0.6563  0.8978
 1029TIP3   OH227281   3.309   0.418   9.097  0.0538  0.6529  0.3460
 1029TIP3    H127282   3.364   0.397   9.172 -0.2853  0.2466  0.4837
 1029TIP3    H227283   3.232   0.461   9.134 -0.9714 -1.1626  0.4334
 1030TIP3   OH227284   3.501   0.593   8.913 -0.1583  0.1920 -0.1662
 1030TIP3    H127285   3.490   0.598   8.818  1.0728 -1.9891 -0.5038
 1030TIP3    H227286   3.414   0.611   8.949 -0.5735  1.3766 -1.6740
 1031TIP3   OH227287   6.607   4.935   7.674 -0.1603 -0.1129  0.2254
 1031TIP3    H127288   6.583   4.948   7.766  0.7931  0.7743  0.3786
 1031TIP3    H227289   6.669   5.006   7.656  1.4467 -1.6098 -0.4426
 1032TIP3   OH227290   3.959   6.087   8.991 -0.7587 -0.3704 -0.6150
 1032TIP3    H127291   3.897   6.120   8.927 -1.2504 -0.4706 -0.1948
 1032TIP3    H227292   4.014   6.162   9.014 -1.2722 -0.0710 -0.3581
 1033TIP3   OH227293   6.133   1.705   7.265  0.0046 -0.4654  0.5196
 1033TIP3    H127294   6.059   1.747   7.221  1.0834  1.5165  0.4746
 1033TIP3    H227295   6.171   1.648   7.199 -0.2383  0.1014 -0.1255
 1034TIP3   OH227296   0.868   2.948   7.648  0.0983  0.0967 -0.6303
 1034TIP3    H127297   0.951   2.987   7.619  0.6402 -0.3669  0.2557
 1034TIP3    H227298   0.830   2.910   7.569  2.0319 -2.0341 -0.6410
 1035TIP3   OH227299   2.735   3.324   7.443 -0.7178 -0.2980  0.2099
 1035TIP3    H127300   2.793   3.304   7.370  0.2915  0.9240  0.6336
 1035TIP3    H227301   2.651   3.342   7.403 -0.4770 -0.7913 -0.5382
 1036TIP3   OH227302   4.474   3.961   9.240  0.3077  0.0463 -0.0565
 1036TIP3    H127303   4.519   3.889   9.284 -1.4217  0.1284  2.0569
 1036TIP3    H227304   4.388   3.925   9.218 -0.5238  1.3711  0.8776
 1037TIP3   OH227305   6.408   0.819   6.918  0.1918  0.3339  1.2088
 1037TIP3    H127306   6.489   0.839   6.873 -0.1385 -0.9312 -0.0021
 1037TIP3    H227307   6.340   0.863   6.866 -0.0753 -0.1272  1.1654
 1038TIP3   OH227308   2.247   3.491   8.944 -0.4319 -0.5959  0.3832
 1038TIP3    H127309   2.161   3.453   8.965  0.5242 -2.9262  0.3368
 1038TIP3    H227310   2.248   3.496   8.849 -0.0963 -1.7394  0.3051
 1039TIP3   OH227311   6.304   2.032   8.964  0.1806 -0.0703  0.4078
 1039TIP3    H127312   6.372   1.984   8.918 -0.8733 -1.6741  0.4726
 1039TIP3    H227313   6.260   2.083   8.897  0.9357  0.3851  0.2461
 1040TIP3   OH227314   5.462   1.387   7.950 -0.8125 -1.0165  0.1651
 1040TIP3    H127315   5.449   1.293   7.961 -0.9002 -1.1203 -0.7298
 1040TIP3    H227316   5.556   1.400   7.955 -0.8998 -0.8250  2.5362
 1041TIP3   OH227317   1.723   4.232   8.115 -0.6071  0.3393  0.3539
 1041TIP3    H127318   1.686   4.269   8.195 -1.3123 -1.8512  1.1088
 1041TIP3    H227319   1.677   4.148   8.103  2.5529 -1.5203  0.1423
 1042TIP3   OH227320   7.398   3.152   8.608 -0.2877 -0.4967  0.5338
 1042TIP3    H127321   7.327   3.138   8.671  0.1520  1.4983  1.5536
 1042TIP3    H227322   7.389   3.080   8.546 -1.4380 -1.9198  2.2333
 1043TIP3   OH227323   4.013   7.092   8.129 -0.1855 -0.7275  0.2020
 1043TIP3    H127324   4.034   7.070   8.038 -1.1861 -0.6300 -0.0692
 1043TIP3    H227325   4.075   7.040   8.181  1.6352  0.5944 -0.5386
 1044TIP3   OH227326   7.364   7.147   8.281  0.0212  0.0076  0.0214
 1044TIP3    H127327   7.427   7.085   8.244 -1.0197 -0.3130 -1.3309
 1044TIP3    H227328   7.406   7.233   8.273  1.3543 -0.4561  1.6338
 1045TIP3   OH227329   6.553   5.888   7.494  0.2641  0.2288 -0.3133
 1045TIP3    H127330   6.616   5.878   7.422  0.0645  0.5082 -0.5287
 1045TIP3    H227331   6.559   5.806   7.542 -0.6609 -0.5685 -1.4917
 1046TIP3   OH227332   5.001   0.202   6.727 -0.3319  0.1053  0.1358
 1046TIP3    H127333   4.956   0.173   6.647  0.0252 -0.7899  0.2398
 1046TIP3    H227334   5.087   0.232   6.697  0.1021 -0.9603  0.2401
 1047TIP3   OH227335   4.909   0.793   8.796  0.4262  0.2098 -0.1783
 1047TIP3    H127336   4.838   0.826   8.741 -1.1762 -2.4075  0.1137
 1047TIP3    H227337   4.875   0.711   8.833  2.5561  0.2994  2.3164
 1048TIP3   OH227338   2.255   3.597   8.027  0.3120  0.3623 -0.1459
 1048TIP3    H127339   2.164   3.623   8.043  0.2167 -0.9054  1.7218
 1048TIP3    H227340   2.284   3.654   7.955 -2.5899 -0.6146 -2.2996
 1049TIP3   OH227341   5.725   1.073   8.825  0.1213 -0.1787 -0.4399
 1049TIP3    H127342   5.645   1.084   8.877 -0.7533 -0.9717 -1.5860
 1049TIP3    H227343   5.786   1.030   8.885 -0.7718 -0.8188  0.0260
 1050TIP3   OH227344   2.386   6.589   8.411  0.8397  0.2757  0.4770
 1050TIP3    H127345   2.296   6.621   8.416  0.8273  0.3127  0.0399
 1050TIP3    H227346   2.403   6.552   8.498  0.5269  0.5918  0.6759
 1051TIP3   OH227347   5.073   1.788   9.133  0.3045 -0.4321 -0.2446
 1051TIP3    H127348   5.110   1.791   9.221 -0.1583 -0.4705 -0.0433
 1051TIP3    H227349   5.061   1.880   9.109 -0.0401 -0.4270 -0.0609
 1052TIP3   OH227350   2.086   6.141   8.806  0.1637 -0.2897  0.3505
 1052TIP3    H127351   2.163   6.158   8.860 -0.7355  0.3230  1.4913
 1052TIP3    H227352   2.040   6.070   8.852 -1.3422  1.1959  1.2093
 1053TIP3   OH227353   2.412   7.444   7.416 -0.2521 -0.2551  0.0953
 1053TIP3    H127354   2.326   7.403   7.422  0.0856 -0.8407  1.4181
 1053TIP3    H227355   2.394   7.533   7.387 -1.1428 -0.8372 -1.2228
 1054TIP3   OH227356   0.906   7.376   9.234  0.0921  0.0816 -0.3999
 1054TIP3    H127357   0.994   7.414   9.230  0.9806 -1.8570 -0.6691
 1054TIP3    H227358   0.859   7.418   9.162  0.4620  1.8656  0.3583
 1055TIP3   OH227359   6.185   3.035   8.023 -0.1600 -0.4983 -0.5485
 1055TIP3    H127360   6.193   3.106   8.087  2.2840  1.6323 -2.9972
 1055TIP3    H227361   6.259   2.977   8.043  1.3708  0.8323 -2.0644
 1056TIP3   OH227362   0.305   1.859   7.778  0.3189 -0.1809  0.0868
 1056TIP3    H127363   0.222   1.870   7.823  0.1745 -0.0172 -0.2193
 1056TIP3    H227364   0.362   1.816   7.843 -0.7363 -2.6190 -0.4863
 1057TIP3   OH227365   5.977   5.264   8.853  0.6504  0.0448  0.5819
 1057TIP3    H127366   5.954   5.181   8.811  0.8201  0.1425  0.2928
 1057TIP3    H227367   6.001   5.240   8.942  1.2123 -0.2905  0.3527
 1058TIP3   OH227368   5.788   2.508   7.140 -0.6653  0.0679  0.2986
 1058TIP3    H127369   5.824   2.596   7.153 -2.8919  1.0457  0.3313
 1058TIP3    H227370   5.727   2.517   7.067 -1.9666 -1.0881  1.1597
 1059TIP3   OH227371   6.653   2.694   8.659 -0.1486  0.0755  0.2977
 1059TIP3    H127372   6.735   2.712   8.704  0.0223  0.8713 -0.3045
 1059TIP3    H227373   6.671   2.618   8.605  1.1639  1.9621 -2.1415
 1060TIP3   OH227374   0.359   3.547   8.716  0.0483 -0.5948  0.4764
 1060TIP3    H127375   0.349   3.461   8.755  1.6532  0.2111  2.9258
 1060TIP3    H227376   0.297   3.603   8.764  0.7395  0.0633  0.6246
 1061TIP3   OH227377   4.694   6.091   9.315  0.9312 -0.0829 -0.2181
 1061TIP3    H127378   4.788   6.096   9.301  0.9241 -2.2038 -1.3844
 1061TIP3    H227379   4.673   5.998   9.305 -1.3576  0.4022 -0.4364
 1062TIP3   OH227380   5.573   4.137   8.610 -0.4226  0.0285 -0.7215
 1062TIP3    H127381   5.621   4.138   8.693  1.0127 -1.3460 -1.4878
 1062TIP3    H227382   5.556   4.230   8.592  0.6442  0.4643  0.3236
 1063TIP3   OH227383   0.359   1.685   8.234 -0.0925 -0.0547 -0.0171
 1063TIP3    H127384   0.345   1.744   8.308  2.4330  1.1009 -0.3628
 1063TIP3    H227385   0.349   1.597   8.271  0.4564  0.5121  1.5632
 1064TIP3   OH227386   4.002   7.269   8.694  0.0353 -0.0051  0.2035
 1064TIP3    H127387   4.037   7.327   8.627 -0.1531 -0.4229 -0.2641
 1064TIP3    H227388   4.078   7.240   8.744  0.0852  0.9728  0.7110
 1065TIP3   OH227389   1.034   1.501   9.465  0.1719  0.4947 -0.9352
 1065TIP3    H127390   0.995   1.589   9.468 -1.7511 -0.2881 -1.6964
 1065TIP3    H227391   1.027   1.475   9.374  0.2032 -0.6842 -0.6093
 1066TIP3   OH227392   2.231   4.760   8.425 -0.3033  0.0866 -0.1035
 1066TIP3    H127393   2.180   4.776   8.346 -0.8672 -0.2138  0.2012
 1066TIP3    H227394   2.295   4.832   8.427 -1.6229  1.2902  0.2672
 1067TIP3   OH227395   0.281   3.863   7.400 -0.1960  0.1503 -0.5348
 1067TIP3    H127396   0.293   3.845   7.307  0.5019  1.8298 -0.8159
 1067TIP3    H227397   0.187   3.877   7.410 -0.2732 -0.0177 -0.9875
 1068TIP3   OH227398   5.579   4.017   7.970  0.1434  0.1180  0.1997
 1068TIP3    H127399   5.539   4.078   8.032 -0.5281  0.1482 -0.2650
 1068TIP3    H227400   5.523   3.939   7.973  0.2870  0.0012 -0.1408
 1069TIP3   OH227401   5.200   0.220   8.905  0.4352 -0.7377 -0.1384
 1069TIP3    H127402   5.289   0.184   8.913  1.1708  0.7998 -0.9372
 1069TIP3    H227403   5.212   0.314   8.907 -1.1298 -0.4887 -0.8303
 1070TIP3   OH227404   6.560   2.286   8.297 -0.5303 -0.2035 -0.4361
 1070TIP3    H127405   6.608   2.231   8.235 -2.4407 -1.6484 -0.7048
 1070TIP3    H227406   6.564   2.374   8.258  0.8380 -0.5093 -1.0476
 1071TIP3   OH227407   7.270   5.882   6.922 -0.1372 -0.0269 -0.3811
 1071TIP3    H127408   7.363   5.897   6.904  0.5271 -0.6746  2.1636
 1071TIP3    H227409   7.246   5.809   6.865  0.9886 -0.0473 -0.8629
 1072TIP3   OH227410   4.785   7.228   7.475 -0.1648 -0.0160  0.7701
 1072TIP3    H127411   4.859   7.242   7.534 -1.3745  0.8878  2.1491
 1072TIP3    H227412   4.749   7.316   7.459 -0.2980 -0.3215 -0.7618
 1073TIP3   OH227413   4.568   6.737   7.884  0.5323  0.0101  0.5650
 1073TIP3    H127414   4.652   6.722   7.928  0.4519  0.1461  0.7660
 1073TIP3    H227415   4.532   6.815   7.926 -0.1894 -0.6589  1.2208
 1074TIP3   OH227416   4.741   7.106   9.034 -0.1134 -0.2105  0.3631
 1074TIP3    H127417   4.820   7.069   8.995  0.4111  1.8812 -0.7424
 1074TIP3    H227418   4.770   7.138   9.119  0.0360 -0.2079  0.3128
 1075TIP3   OH227419   6.271   3.224   6.720 -0.1262 -0.1023 -0.4833
 1075TIP3    H127420   6.315   3.150   6.764  1.2955  0.4410 -0.9208
 1075TIP3    H227421   6.334   3.253   6.654 -1.5397  0.1753 -1.7546
 1076TIP3   OH227422   3.027   5.630   9.244 -0.0322 -0.1660  0.1725
 1076TIP3    H127423   3.109   5.588   9.269 -0.5180 -0.1092  2.0542
 1076TIP3    H227424   2.960   5.563   9.261 -0.4784  0.1609 -0.2734
 1077TIP3   OH227425   3.208   0.950   7.928 -0.0517 -0.0961 -0.5265
 1077TIP3    H127426   3.268   0.973   7.999  1.6185 -0.6572 -1.6825
 1077TIP3    H227427   3.153   0.880   7.964  1.1818 -0.8087  0.0359
 1078TIP3   OH227428   6.541   1.130   7.017  0.7054  0.1541 -0.6931
 1078TIP3    H127429   6.543   1.189   6.942 -1.4187  1.1953 -0.0175
 1078TIP3    H227430   6.603   1.168   7.079  1.3735  0.1284 -1.3429
 1079TIP3   OH227431   4.945   6.135   9.190  0.2635 -0.4315 -0.3325
 1079TIP3    H127432   4.943   6.086   9.108 -0.0017  0.4304 -0.8608
 1079TIP3    H227433   4.950   6.227   9.162 -1.6570 -0.0016  0.5779
 1080TIP3   OH227434   4.925   7.453   9.204 -0.3734 -0.0073  0.3802
 1080TIP3    H127435   4.902   7.501   9.283  0.9447  0.2572  0.6321
 1080TIP3    H227436   4.876   7.496   9.134 -1.0039  0.2038  0.9421
 1081TIP3   OH227437   0.851   1.554   8.558  0.3313  1.0541 -0.4647
 1081TIP3    H127438   0.793   1.590   8.490  0.4785 -3.4890 -3.4377
 1081TIP3    H227439   0.804   1.568   8.640 -2.2130  2.6193 -2.0428
 1082TIP3   OH227440   5.602   5.446   8.203  0.2518  0.0326 -0.1743
 1082TIP3    H127441   5.551   5.366   8.200  0.6932 -0.3304  1.0597
 1082TIP3    H227442   5.655   5.437   8.283 -0.0535  1.7591  0.2704
 1083TIP3   OH227443   4.676   2.516   7.721  0.2311  0.1160 -0.8101
 1083TIP3    H127444   4.715   2.604   7.716 -1.1083  0.8640  0.9370
 1083TIP3    H227445   4.601   2.526   7.780 -0.5089 -2.0255 -1.2962
 1084TIP3   OH227446   5.315   5.804   9.890 -0.3176 -0.4489  0.5332
 1084TIP3    H127447   5.402   5.837   9.868 -0.6947  0.0374 -0.2170
 1084TIP3    H227448   5.304   5.827   9.983  0.8251 -1.5605  0.9749
 1085TIP3   OH227449   4.318   2.525   8.980  0.0316 -0.4771 -0.2011
 1085TIP3    H127450   4.300   2.467   8.905  1.6399 -1.0285 -0.1972
 1085TIP3    H227451   4.336   2.465   9.052  0.0576  0.0440  0.2265
 1086TIP3   OH227452   2.040   1.791   9.071 -0.0657 -0.1604  0.2351
 1086TIP3    H127453   2.120   1.768   9.024 -0.1010  0.3253 -0.0698
 1086TIP3    H227454   2.049   1.884   9.089 -1.1185  0.1909 -0.9221
 1087TIP3   OH227455   0.346   2.630   7.828 -0.0340 -0.2260 -0.4296
 1087TIP3    H127456   0.396   2.568   7.880  0.7649  0.3355 -0.5093
 1087TIP3    H227457   0.266   2.645   7.878  0.5148 -0.0506  0.4138
 1088TIP3   OH227458   5.689   6.110   6.611  0.0364 -0.6643 -0.1488
 1088TIP3    H127459   5.725   6.031   6.570  0.0666  0.2912 -2.0927
 1088TIP3    H227460   5.762   6.172   6.612 -0.6251  0.1551 -0.9862
 1089TIP3   OH227461   1.901   1.130   7.928 -0.1962  0.0884 -0.0477
 1089TIP3    H127462   1.951   1.191   7.874  1.2815 -2.2488 -1.4918
 1089TIP3    H227463   1.881   1.180   8.007  2.8942  1.7645 -0.1553
 1090TIP3   OH227464   3.250   3.270   9.459 -0.5239  0.6735  0.0050
 1090TIP3    H127465   3.295   3.262   9.374 -0.8529  0.4796 -0.1527
 1090TIP3    H227466   3.318   3.301   9.519 -0.3996  1.2480 -0.4291
 1091TIP3   OH227467   4.548   0.814   8.309 -0.2057 -0.3505  0.5396
 1091TIP3    H127468   4.605   0.891   8.309  0.1230 -0.5932  0.8798
 1091TIP3    H227469   4.463   0.848   8.278  0.4389 -0.2395 -1.2479
 1092TIP3   OH227470   3.210   2.612   8.554 -0.0561 -0.0506 -0.0107
 1092TIP3    H127471   3.297   2.574   8.540 -0.3393 -0.5825 -0.3903
 1092TIP3    H227472   3.175   2.564   8.629 -0.2301 -0.2286 -0.2009
 1093TIP3   OH227473   7.076   3.035   7.950 -0.3299  0.1045 -0.2494
 1093TIP3    H127474   7.074   3.104   8.016 -1.5688  0.8916 -1.0862
 1093TIP3    H227475   7.039   2.959   7.994 -0.4956  0.4278  0.1798
 1094TIP3   OH227476   3.556   2.282   8.943 -0.0406 -0.9989 -0.1597
 1094TIP3    H127477   3.530   2.279   9.035 -1.3248 -1.6809 -0.5269
 1094TIP3    H227478   3.538   2.372   8.916  1.8121 -0.3245  0.6209
 1095TIP3   OH227479   3.042   5.708   8.958 -0.8810  0.6969 -0.3498
 1095TIP3    H127480   2.989   5.787   8.949 -1.9498  0.0491  0.0976
 1095TIP3    H227481   3.027   5.679   9.048 -1.7103 -0.8438 -0.9526
 1096TIP3   OH227482   2.634   7.111   8.127  0.1001 -0.0446  0.6178
 1096TIP3    H127483   2.673   7.170   8.191 -1.4809 -0.7957  2.3429
 1096TIP3    H227484   2.625   7.027   8.173 -0.0369 -0.9450 -0.9606
 1097TIP3   OH227485   2.932   5.613   8.715 -0.4163 -0.2717  0.0464
 1097TIP3    H127486   2.988   5.616   8.793 -1.0507 -1.0879  0.5640
 1097TIP3    H227487   2.908   5.520   8.708 -1.2322 -0.0263 -0.4905
 1098TIP3   OH227488   7.642   1.555   8.715  0.0088 -0.6898  0.1024
 1098TIP3    H127489   7.553   1.591   8.719  0.4219  0.3662  0.2959
 1098TIP3    H227490   7.692   1.620   8.665  0.9644 -0.5926  1.1372
 1099TIP3   OH227491   6.967   4.132   8.114 -0.7387  0.2113  0.0401
 1099TIP3    H127492   6.990   4.142   8.207 -1.7346 -1.6333  0.5244
 1099TIP3    H227493   7.040   4.084   8.076 -1.3947 -1.1719  0.4508
 1100TIP3   OH227494   3.429   6.897   9.302 -0.2735  0.0653  0.1164
 1100TIP3    H127495   3.507   6.948   9.329  0.2250 -0.9054  0.5542
 1100TIP3    H227496   3.356   6.945   9.341  0.3450 -0.6556  2.3205
 1101TIP3   OH227497   1.459   0.178   9.254 -0.2835  0.3510 -0.0315
 1101TIP3    H127498   1.525   0.126   9.299 -2.0081 -0.2549  1.9618
 1101TIP3    H227499   1.501   0.262   9.239  1.1922 -0.2612  0.4441
 1102TIP3   OH227500   1.412   0.424   9.776 -0.2377 -0.1038  0.2644
 1102TIP3    H127501   1.391   0.331   9.775 -0.9522 -0.0594  2.8984
 1102TIP3    H227502   1.477   0.435   9.706 -2.0751 -2.0125 -1.9084
 1103TIP3   OH227503   0.398   1.733   7.024  0.1606  0.0578 -0.2693
 1103TIP3    H127504   0.462   1.667   7.051 -0.7656 -0.5916  0.3694
 1103TIP3    H227505   0.368   1.703   6.938  0.4301  0.1519 -0.3960
 1104TIP3   OH227506   0.309   2.514   6.753 -0.2389  0.2979 -0.1831
 1104TIP3    H127507   0.228   2.469   6.732 -0.3980 -0.0999  1.1945
 1104TIP3    H227508   0.284   2.582   6.815  0.6010 -0.4806  1.0542
 1105TIP3   OH227509   0.279   3.610   9.165 -0.3750 -0.0007 -0.4384
 1105TIP3    H127510   0.197   3.651   9.136 -0.8793  0.5674  1.6145
 1105TIP3    H227511   0.347   3.660   9.121 -1.0963  0.5629 -0.9462
 1106TIP3   OH227512   7.069   5.872   8.522  0.2736  0.6792  0.3250
 1106TIP3    H127513   7.144   5.930   8.533 -0.5626  2.1038 -1.0846
 1106TIP3    H227514   7.080   5.834   8.435 -0.7322  1.0854  0.0054
 1107TIP3   OH227515   1.692   7.171   9.054  0.0068 -0.0440  0.8453
 1107TIP3    H127516   1.597   7.177   9.065 -0.4858 -0.3513 -2.2874
 1107TIP3    H227517   1.707   7.081   9.024  0.8058  0.8849 -1.8120
 1108TIP3   OH227518   5.798   5.835   8.052  0.2310  0.0236  0.0336
 1108TIP3    H127519   5.831   5.791   8.130  0.1512 -0.1196 -0.0123
 1108TIP3    H227520   5.846   5.793   7.980  0.5058  0.3451  0.0275
 1109TIP3   OH227521   4.066   7.108   7.542  0.4684  0.0593 -0.2479
 1109TIP3    H127522   4.151   7.071   7.518  0.5298  0.1302 -0.1420
 1109TIP3    H227523   4.004   7.037   7.528  0.3795  0.3542 -1.4516
 1110TIP3   OH227524   6.819   7.261   8.847 -0.0515 -0.6201 -0.3526
 1110TIP3    H127525   6.825   7.252   8.942  2.0228  2.0273 -0.0952
 1110TIP3    H227526   6.898   7.218   8.814 -0.2441 -0.6453 -0.7814
 1111TIP3   OH227527   1.534   4.560   8.101  0.4842  0.3427 -0.1685
 1111TIP3    H127528   1.546   4.522   8.013  0.3193 -0.7473  0.2709
 1111TIP3    H227529   1.543   4.486   8.161 -1.2029  0.7496  0.6381
 1112TIP3   OH227530   4.809   2.016   8.031 -0.4174 -0.0566 -0.2764
 1112TIP3    H127531   4.795   2.044   7.940 -0.5317 -0.9617 -0.5392
 1112TIP3    H227532   4.829   2.098   8.078 -2.4762  0.7648 -0.6828
 1113TIP3   OH227533   0.743   5.622   8.060 -0.2876 -0.0270  0.0675
 1113TIP3    H127534   0.835   5.634   8.038 -0.1775  0.4949  0.7748
 1113TIP3    H227535   0.702   5.590   7.979 -0.0239  2.3628 -1.0772
 1114TIP3   OH227536   0.527   6.308   8.746  0.6299  0.2900 -0.3208
 1114TIP3    H127537   0.588   6.299   8.818  0.2267 -1.0309 -0.1206
 1114TIP3    H227538   0.534   6.225   8.698 -0.5438  0.3568 -0.6433
 1115TIP3   OH227539   1.917   4.130   7.859 -0.2145  0.1169  0.3682
 1115TIP3    H127540   1.886   4.216   7.832 -0.9597 -0.1216  0.4490
 1115TIP3    H227541   1.900   4.127   7.953  1.0897  0.4075  0.6318
 1116TIP3   OH227542   6.078   2.219   8.503 -0.0926 -0.6261  0.0215
 1116TIP3    H127543   6.172   2.201   8.510  0.0430 -0.3097 -0.8576
 1116TIP3    H227544   6.058   2.270   8.582 -0.1887 -3.2594  1.7941
 1117TIP3   OH227545   2.619   7.218   6.956  0.3588 -0.2978  0.3935
 1117TIP3    H127546   2.677   7.148   6.986 -0.6187 -1.6794 -0.7398
 1117TIP3    H227547   2.564   7.238   7.031  0.2224 -1.2388  0.5584
 1118TIP3   OH227548   7.644   2.602   6.947  0.0479 -0.0869 -0.1722
 1118TIP3    H127549   7.653   2.583   7.040  0.4585 -2.0545 -0.5833
 1118TIP3    H227550   7.552   2.628   6.937 -0.1798 -0.5318  0.6710
 1119TIP3   OH227551   3.669   1.555   7.035 -0.2607 -0.0665  0.3223
 1119TIP3    H127552   3.590   1.503   7.016  0.0141 -0.5484  0.4764
 1119TIP3    H227553   3.740   1.491   7.032  0.2387  0.5193 -0.6582
 1120TIP3   OH227554   6.716   4.333   9.002  0.4283  0.0329 -0.2041
 1120TIP3    H127555   6.681   4.247   9.023  0.0041 -0.3103 -2.1389
 1120TIP3    H227556   6.798   4.315   8.955  0.8385  0.7239  0.2186
 1121TIP3   OH227557   4.931   6.401   9.127 -0.1782  0.5536 -0.5894
 1121TIP3    H127558   4.897   6.490   9.134 -1.6274  0.1189 -1.5866
 1121TIP3    H227559   4.908   6.373   9.038 -0.5359 -1.1052 -0.0302
 1122TIP3   OH227560   5.804   5.463   8.884 -0.2254  0.2258  0.1336
 1122TIP3    H127561   5.858   5.385   8.873 -2.7753 -1.6588  0.0620
 1122TIP3    H227562   5.732   5.435   8.940 -1.8474  2.2158 -0.8098
 1123TIP3   OH227563   3.811   4.719   7.958 -0.2457  0.1090 -0.0101
 1123TIP3    H127564   3.812   4.814   7.950 -0.0564 -0.0199 -1.9812
 1123TIP3    H227565   3.873   4.688   7.891 -1.2090 -1.4369 -0.2447
 1124TIP3   OH227566   3.550   4.829   9.033  0.1311 -0.1045 -0.1834
 1124TIP3    H127567   3.566   4.784   8.950 -1.3495 -2.7806  0.8501
 1124TIP3    H227568   3.456   4.848   9.033  0.1487  0.0707  0.7819
 1125TIP3   OH227569   0.837   5.899   8.385 -0.8004 -0.1500  0.5052
 1125TIP3    H127570   0.925   5.923   8.413 -0.0192 -0.5059 -1.4869
 1125TIP3    H227571   0.780   5.962   8.429  0.9116  3.9818 -2.4990
 1126TIP3   OH227572   1.838   7.076   7.862 -0.6514  0.6809  0.1179
 1126TIP3    H127573   1.910   7.015   7.877 -0.1756  0.7932 -1.4669
 1126TIP3    H227574   1.802   7.049   7.777 -0.6440  2.3866 -0.4696
 1127TIP3   OH227575   1.121   5.808   9.075 -0.0110  0.3151 -0.1836
 1127TIP3    H127576   1.053   5.752   9.038 -0.0005 -0.3847  0.8247
 1127TIP3    H227577   1.077   5.856   9.145  0.2180  0.8760 -0.4132
 1128TIP3   OH227578   7.408   7.459   8.896 -0.4469 -0.2869 -0.2671
 1128TIP3    H127579   7.500   7.435   8.892 -0.5607 -0.6566 -0.7229
 1128TIP3    H227580   7.406   7.550   8.866 -0.3691 -0.6558 -1.4512
 1129TIP3   OH227581   6.384   5.419   7.636 -0.5866  0.3372 -0.0633
 1129TIP3    H127582   6.453   5.424   7.702 -0.1180  1.6300 -0.6185
 1129TIP3    H227583   6.307   5.388   7.684  0.1403 -0.2462  0.7582
 1130TIP3   OH227584   3.154   7.570   7.265 -0.2803 -0.2297  0.6640
 1130TIP3    H127585   3.097   7.625   7.212 -1.1861 -0.3664  1.4581
 1130TIP3    H227586   3.241   7.583   7.230 -0.4652  1.7638  0.8761
 1131TIP3   OH227587   3.362   3.607   9.486  0.2214 -0.0471 -0.1722
 1131TIP3    H127588   3.375   3.702   9.492  1.5378 -0.2039 -0.3247
 1131TIP3    H227589   3.436   3.576   9.434  0.7811 -1.3807  1.3546
 1132TIP3   OH227590   6.008   2.912   9.370 -0.4514 -0.4768 -0.1269
 1132TIP3    H127591   5.928   2.879   9.329 -0.5821  0.3613 -0.5463
 1132TIP3    H227592   5.983   2.996   9.409  0.7845  1.0413 -2.3936
 1133TIP3   OH227593   3.211   7.523   9.303  0.0038 -0.7092 -0.2764
 1133TIP3    H127594   3.214   7.436   9.264  0.6629 -1.2187  0.8697
 1133TIP3    H227595   3.119   7.535   9.326  0.2328 -2.1201  1.6872
 1134TIP3   OH227596   0.949   2.187   8.570  0.9807  0.3535 -0.2122
 1134TIP3    H127597   0.952   2.252   8.500 -0.8941  0.8253  0.0940
 1134TIP3    H227598   0.934   2.238   8.650 -2.6443 -0.4369 -0.1931
 1135TIP3   OH227599   3.494   0.740   7.139  0.2201 -0.2301 -0.2125
 1135TIP3    H127600   3.573   0.714   7.090 -0.4525 -1.2893 -0.7756
 1135TIP3    H227601   3.450   0.657   7.158 -1.1195  0.3908 -0.5217
 1136TIP3   OH227602   1.556   4.928   7.552 -0.0749  0.3534 -0.1966
 1136TIP3    H127603   1.611   4.996   7.591 -1.3669  1.1182  0.3394
 1136TIP3    H227604   1.530   4.873   7.625 -0.1241  0.0726 -0.4246
 1137TIP3   OH227605   2.052   0.375   9.183 -0.1638  0.5007 -0.3645
 1137TIP3    H127606   2.032   0.331   9.266 -1.7088  2.6575  0.4919
 1137TIP3    H227607   2.142   0.406   9.193 -0.7845  1.9322  1.1187
 1138TIP3   OH227608   1.433   4.212   8.832  0.5902  0.4990 -0.3215
 1138TIP3    H127609   1.377   4.139   8.803 -2.2011  2.1919  0.4560
 1138TIP3    H227610   1.481   4.238   8.753 -0.5368 -0.3268 -1.3233
 1139TIP3   OH227611   6.107   5.645   7.013  0.6047  0.6749  0.4798
 1139TIP3    H127612   6.057   5.565   6.998 -1.0847  1.0723  3.2258
 1139TIP3    H227613   6.142   5.669   6.927  1.2658 -2.9914 -0.4452
 1140TIP3   OH227614   3.748   4.024   9.200  0.4395 -0.7008  0.2697
 1140TIP3    H127615   3.786   4.095   9.252  0.6521 -0.2043 -0.5397
 1140TIP3    H227616   3.654   4.042   9.200  0.5214 -0.2537 -0.1605
 1141TIP3   OH227617   7.456   2.550   8.205 -0.4440  0.2433  0.4140
 1141TIP3    H127618   7.543   2.545   8.166 -1.0577  1.4234 -1.2117
 1141TIP3    H227619   7.466   2.612   8.278  0.2788 -0.4127  0.8844
 1142TIP3   OH227620   4.578   5.560   8.479  0.5551 -0.1873  0.1596
 1142TIP3    H127621   4.665   5.599   8.473  0.0875  1.1913  1.5605
 1142TIP3    H227622   4.526   5.625   8.526 -1.1446 -1.1369 -0.3227
 1143TIP3   OH227623   1.273   6.609   7.791  0.4557 -0.9198  0.2332
 1143TIP3    H127624   1.197   6.568   7.750 -0.1656 -1.2744  1.6678
 1143TIP3    H227625   1.341   6.606   7.724 -0.4155 -1.7630 -0.6493
 1144TIP3   OH227626   0.489   2.840   6.962 -0.1894 -0.0813 -0.3794
 1144TIP3    H127627   0.539   2.758   6.959  1.0180  0.4816  1.9096
 1144TIP3    H227628   0.401   2.814   6.987 -0.1481 -0.7774 -0.9244
 1145TIP3   OH227629   1.067   3.031   8.359  0.3826  0.7485 -0.3153
 1145TIP3    H127630   1.126   3.051   8.432  0.1124 -0.8638  0.3943
 1145TIP3    H227631   1.097   3.088   8.289  2.5640  0.2994  0.1460
 1146TIP3   OH227632   3.262   0.543   7.922  0.8266  0.6771  0.4116
 1146TIP3    H127633   3.343   0.510   7.961  2.2193  3.3201  0.0130
 1146TIP3    H227634   3.282   0.551   7.828 -1.4036 -2.5807 -0.5138
 1147TIP3   OH227635   2.788   4.588   8.139 -0.0356 -0.4281  0.3756
 1147TIP3    H127636   2.779   4.533   8.061 -0.4521  0.7566 -0.4304
 1147TIP3    H227637   2.698   4.606   8.166  0.1009 -0.1448  0.6456
 1148TIP3   OH227638   0.189   6.343   7.456 -0.3407 -0.0460  0.0618
 1148TIP3    H127639   0.187   6.362   7.549 -0.1262 -0.2594  0.1090
 1148TIP3    H227640   0.248   6.269   7.447 -1.6187 -1.0770 -0.0657
 1149TIP3   OH227641   7.613   6.293   7.741 -0.0806 -0.2450 -0.1720
 1149TIP3    H127642   7.567   6.329   7.817  1.9974 -0.4086  1.2180
 1149TIP3    H227643   7.543   6.272   7.679 -1.9895 -1.5660  2.2826
 1150TIP3   OH227644   2.474   0.035   9.117  0.3741  0.6624 -0.0663
 1150TIP3    H127645   2.515   0.042   9.203  0.9105 -3.4153  0.2297
 1150TIP3    H227646   2.547   0.023   9.057 -0.0883 -0.6407 -0.4110
 1151TIP3   OH227647   2.509   1.802   8.910 -0.0497 -0.0513  0.1028
 1151TIP3    H127648   2.431   1.854   8.929 -0.9981 -0.8181 -1.4905
 1151TIP3    H227649   2.478   1.712   8.903  0.6537 -0.1971 -2.0730
 1152TIP3   OH227650   3.387   6.324   7.384  0.4722 -0.0161  0.2429
 1152TIP3    H127651   3.453   6.378   7.339 -0.7561  2.0208  0.7453
 1152TIP3    H227652   3.305   6.344   7.339 -0.8873  2.3986  3.4096
 1153TIP3   OH227653   4.694   0.526   7.962 -0.1511  0.3683  0.1792
 1153TIP3    H127654   4.761   0.460   7.942 -1.1970 -0.4003 -0.9447
 1153TIP3    H227655   4.656   0.548   7.877 -0.2665  1.9688  0.6214
 1154TIP3   OH227656   1.544   6.199   9.310  0.7608  0.4772  0.1304
 1154TIP3    H127657   1.557   6.292   9.329 -0.4084  0.6950 -0.0598
 1154TIP3    H227658   1.632   6.165   9.297  1.1215  2.2115 -2.7960
 1155TIP3   OH227659   4.068   1.682   8.404  0.1729  0.0523  0.0377
 1155TIP3    H127660   4.054   1.592   8.376 -0.3264 -0.0560  0.6201
 1155TIP3    H227661   4.080   1.676   8.499 -0.3249  0.6486  0.1443
 1156TIP3   OH227662   6.267   5.201   8.440  0.4667  1.0029 -0.4588
 1156TIP3    H127663   6.220   5.245   8.511 -1.2834  0.7173 -1.3851
 1156TIP3    H227664   6.277   5.269   8.373  0.8922  0.9061 -0.4957
 1157TIP3   OH227665   6.286   1.470   8.602 -0.4803 -0.0666  0.3639
 1157TIP3    H127666   6.300   1.393   8.657 -1.7230 -1.4695 -1.1838
 1157TIP3    H227667   6.211   1.514   8.642 -0.4968 -0.2901  0.5876
 1158TIP3   OH227668   0.199   2.426   7.424  0.2126 -0.1434  0.0738
 1158TIP3    H127669   0.283   2.414   7.378 -0.8787 -4.0063 -1.2595
 1158TIP3    H227670   0.221   2.417   7.517  1.3127 -1.0466 -0.2544
 1159TIP3   OH227671   1.185   4.735   7.912 -0.0946  0.1300 -0.4109
 1159TIP3    H127672   1.223   4.806   7.964 -0.6332  0.7842 -0.8954
 1159TIP3    H227673   1.092   4.736   7.934 -0.0110 -0.8388  0.0400
 1160TIP3   OH227674   0.418   5.331   8.136  0.2449 -0.1346  0.2525
 1160TIP3    H127675   0.358   5.336   8.211  1.7758  1.9464  1.4268
 1160TIP3    H227676   0.384   5.396   8.075  0.4172 -0.0372  0.2592
 1161TIP3   OH227677   6.818   1.152   9.209 -0.3748  0.5196 -0.0461
 1161TIP3    H127678   6.869   1.222   9.168  1.1825 -0.9440 -0.7520
 1161TIP3    H227679   6.727   1.173   9.187 -0.0459  2.6660  0.3823
 1162TIP3   OH227680   2.773   5.664   7.419 -0.4980  0.0174  0.5086
 1162TIP3    H127681   2.833   5.704   7.356  1.3758 -0.9309  1.6055
 1162TIP3    H227682   2.746   5.582   7.378 -0.2047 -0.0525  0.4570
 1163TIP3   OH227683   4.064   0.935   8.700 -0.3545  0.1210 -0.0235
 1163TIP3    H127684   4.004   0.861   8.690  1.3111 -1.4919  1.1638
 1163TIP3    H227685   4.122   0.909   8.771  1.3440  1.8828 -0.6714
 1164TIP3   OH227686   0.193   6.403   7.717  0.4440 -0.1850  0.7986
 1164TIP3    H127687   0.239   6.389   7.800 -0.4640  0.9095  1.5034
 1164TIP3    H227688   0.110   6.356   7.727  0.1190  0.3684  0.7035
 1165TIP3   OH227689   6.544   3.207   9.076  0.5089 -0.0520  0.1973
 1165TIP3    H127690   6.585   3.158   9.005  0.8528  0.5485 -0.0285
 1165TIP3    H227691   6.478   3.148   9.112  0.5767 -0.4876 -0.3912
 1166TIP3   OH227692   2.993   5.686   8.458  0.3632 -0.1027 -0.2186
 1166TIP3    H127693   2.972   5.644   8.542 -1.9886  1.0271 -0.1574
 1166TIP3    H227694   3.056   5.754   8.480 -2.1426  1.9393  1.2224
 1167TIP3   OH227695   4.520   3.685   7.483  0.2512 -0.2339 -0.4235
 1167TIP3    H127696   4.428   3.661   7.474 -0.3560  2.0431 -1.0292
 1167TIP3    H227697   4.555   3.682   7.394  0.6264 -0.5020 -0.2739
 1168TIP3   OH227698   6.085   7.590   9.019 -0.2943  0.2907 -0.4558
 1168TIP3    H127699   6.021   7.566   9.085  1.2873  0.1702  1.1152
 1168TIP3    H227700   6.151   7.640   9.067  0.7039  0.5538 -2.0330
 1169TIP3   OH227701   2.184   0.670   9.533  0.2063 -0.4359  0.0325
 1169TIP3    H127702   2.214   0.580   9.534 -0.6492 -0.7299  0.1949
 1169TIP3    H227703   2.102   0.669   9.582 -1.9067 -0.3633 -3.1717
 1170TIP3   OH227704   0.223   6.729   7.854 -0.4433  0.2215 -0.5886
 1170TIP3    H127705   0.210   6.639   7.885 -2.1722  0.1702 -1.3601
 1170TIP3    H227706   0.145   6.776   7.883  0.3207  1.4349 -0.4241
 1171TIP3   OH227707   0.796   3.531   8.110  0.0981  0.4589  0.3305
 1171TIP3    H127708   0.858   3.604   8.121 -0.3603  0.8186  0.6056
 1171TIP3    H227709   0.775   3.531   8.017  1.2349 -0.2768  0.0593
 1172TIP3   OH227710   5.658   4.562   8.393  0.3544 -0.1500 -0.1476
 1172TIP3    H127711   5.746   4.599   8.384  0.5617 -0.2052  1.4112
 1172TIP3    H227712   5.666   4.473   8.361  0.8296 -0.1041 -0.1586
 1173TIP3   OH227713   7.351   1.876   8.740  0.0924 -0.0389  0.3008
 1173TIP3    H127714   7.370   1.785   8.765  1.2506 -0.4867 -1.9129
 1173TIP3    H227715   7.406   1.929   8.797 -0.6886 -0.6793  1.7108
 1174TIP3   OH227716   0.172   2.065   8.354 -0.8390  0.2621 -0.3946
 1174TIP3    H127717   0.262   2.036   8.371 -1.3449 -0.3664  1.4192
 1174TIP3    H227718   0.134   1.995   8.301 -1.4049 -1.5098  2.1728
 1175TIP3   OH227719   2.931   3.103   9.111 -0.2295  0.2203  0.0477
 1175TIP3    H127720   2.847   3.128   9.147 -1.3997  0.5995 -2.7063
 1175TIP3    H227721   2.959   3.028   9.164 -2.6681 -0.3858  0.5802
 1176TIP3   OH227722   2.807   5.129   7.040 -0.8694 -0.2832  0.4687
 1176TIP3    H127723   2.885   5.179   7.015 -0.1434 -1.5391  0.1748
 1176TIP3    H227724   2.774   5.093   6.958 -1.8194  0.3077  0.5820
 1177TIP3   OH227725   3.933   0.965   7.705 -0.7000  0.2298 -0.0818
 1177TIP3    H127726   3.895   1.015   7.778  1.3479  1.9839 -0.1414
 1177TIP3    H227727   3.987   0.899   7.747 -2.3852 -1.2088 -0.0319
 1178TIP3   OH227728   2.799   5.544   8.347  0.1664  0.2106  0.5203
 1178TIP3    H127729   2.868   5.605   8.373  0.9168  1.4002 -3.6358
 1178TIP3    H227730   2.746   5.593   8.284 -1.6497 -2.2149  0.0185
 1179TIP3   OH227731   0.575   2.918   7.237  0.1775 -0.2915  1.0099
 1179TIP3    H127732   0.555   2.892   7.147 -0.7142 -0.3554  1.2119
 1179TIP3    H227733   0.592   3.012   7.232 -0.4808 -0.1775  0.8635
 1180TIP3   OH227734   1.530   7.143   9.375  0.1553  0.4290 -0.1308
 1180TIP3    H127735   1.608   7.198   9.381  0.7902 -0.4304 -0.2669
 1180TIP3    H227736   1.459   7.204   9.357  0.8053  1.2207 -0.0783
 1181TIP3   OH227737   2.513   2.099   8.480 -0.0351 -0.1483 -0.2664
 1181TIP3    H127738   2.502   2.019   8.429 -2.8073  0.4942 -0.7957
 1181TIP3    H227739   2.503   2.072   8.571  0.5788 -0.6086 -0.3266
 1182TIP3   OH227740   5.179   1.182   7.735 -0.2689 -0.4254  0.0738
 1182TIP3    H127741   5.141   1.262   7.698 -2.1182  1.4511  5.2133
 1182TIP3    H227742   5.104   1.125   7.752  0.9508 -3.1486 -2.6695
 1183TIP3   OH227743   0.110   1.052   7.385  0.2152 -0.0269  0.0013
 1183TIP3    H127744   0.117   1.113   7.459 -1.5383  1.3253 -0.8740
 1183TIP3    H227745   0.055   1.098   7.322  1.6045 -1.1571 -2.1484
 1184TIP3   OH227746   5.987   0.501   9.347 -0.0484  0.0625  0.0803
 1184TIP3    H127747   6.048   0.444   9.395  1.2980  1.0249 -0.4145
 1184TIP3    H227748   6.024   0.505   9.259 -0.6085  1.0214 -0.1181
 1185TIP3   OH227749   0.048   1.820   9.142 -0.1783 -0.2646 -0.2715
 1185TIP3    H127750  -0.045   1.810   9.120  0.0019  0.0161 -1.2055
 1185TIP3    H227751   0.091   1.831   9.057  0.8104 -1.1850  0.0875
 1186TIP3   OH227752   3.823   7.279   6.753 -0.0785  0.3487 -0.3217
 1186TIP3    H127753   3.883   7.227   6.700 -1.7909 -1.5741 -0.5130
 1186TIP3    H227754   3.877   7.349   6.789  1.9005 -0.3611 -1.7245
 1187TIP3   OH227755   4.321   0.958   8.194 -0.3375  0.1475  0.1212
 1187TIP3    H127756   4.303   1.048   8.223  0.1208  0.1199  0.5133
 1187TIP3    H227757   4.267   0.947   8.116 -2.1008  0.0047  1.3081
 1188TIP3   OH227758   3.854   2.039   7.874 -0.1536  0.0957  0.5518
 1188TIP3    H127759   3.900   2.122   7.882 -0.8661  0.3774  2.2241
 1188TIP3    H227760   3.871   1.994   7.957 -1.1959 -0.6533  0.3804
 1189TIP3   OH227761   1.973   1.628   9.343  0.2770 -0.1307  0.5272
 1189TIP3    H127762   1.980   1.703   9.283 -1.6226 -1.0868 -1.0255
 1189TIP3    H227763   1.890   1.643   9.389  0.1866 -0.9493  0.6414
 1190TIP3   OH227764   1.739   1.694   9.537  0.0650  0.6248  0.3753
 1190TIP3    H127765   1.673   1.758   9.563 -0.5997  0.3138 -0.4875
 1190TIP3    H227766   1.704   1.610   9.566 -0.9022  0.2137 -1.7637
 1191TIP3   OH227767   1.281   0.658   8.906 -0.0335 -0.5181 -0.1913
 1191TIP3    H127768   1.373   0.675   8.887  0.6385 -0.6273  2.4930
 1191TIP3    H227769   1.282   0.598   8.981 -2.2986 -0.9581 -0.4285
 1192TIP3   OH227770   2.779   0.824   7.956  0.4062  0.0283 -0.0273
 1192TIP3    H127771   2.732   0.783   8.029 -1.3313  0.5319 -0.8099
 1192TIP3    H227772   2.826   0.897   7.996  0.6149 -0.5402  0.8020
 1193TIP3   OH227773   6.904   2.500   7.823 -0.0100  0.2645  0.1329
 1193TIP3    H127774   6.933   2.588   7.801  0.5466 -0.1975 -1.1053
 1193TIP3    H227775   6.968   2.468   7.886  2.4465 -0.7881 -2.6593
 1194TIP3   OH227776   6.544   2.927   8.312 -0.0713 -0.2392 -0.2654
 1194TIP3    H127777   6.608   2.978   8.360  0.8834  0.2781 -1.9894
 1194TIP3    H227778   6.511   2.863   8.376  0.7105  0.7481  1.1798
 1195TIP3   OH227779   6.489   4.502   6.927 -0.2988  0.8712  0.2062
 1195TIP3    H127780   6.546   4.458   6.864 -1.0584  0.1119  0.0273
 1195TIP3    H227781   6.439   4.431   6.966 -1.5681  1.5860 -0.0891
 1196TIP3   OH227782   0.945   7.434   8.791 -0.1330 -1.0064 -0.2187
 1196TIP3    H127783   0.962   7.348   8.828 -1.7478 -1.6778 -0.8996
 1196TIP3    H227784   1.002   7.494   8.839  0.8418 -2.4137  0.4334
 1197TIP3   OH227785   6.224   1.818   8.443  0.0837 -0.9385  0.6574
 1197TIP3    H127786   6.180   1.735   8.426 -1.8560  0.1361  0.1156
 1197TIP3    H227787   6.207   1.870   8.364  0.5515  0.2606  1.3275
 1198TIP3   OH227788   5.834   4.517   8.023 -0.0964 -0.0253  0.4114
 1198TIP3    H127789   5.880   4.594   8.058 -0.9004  0.1532  1.1266
 1198TIP3    H227790   5.857   4.446   8.083  0.9149 -0.4395 -0.4408
 1199TIP3   OH227791   1.479   0.636   8.598 -0.1549  0.1946 -0.3524
 1199TIP3    H127792   1.448   0.558   8.552  0.5836  0.6635 -1.7243
 1199TIP3    H227793   1.400   0.686   8.617 -0.5568 -0.4767 -0.2539
 1200TIP3   OH227794   5.163   0.858   9.126 -0.0244  0.3297  0.1261
 1200TIP3    H127795   5.128   0.928   9.071 -0.8374  1.1832  1.6313
 1200TIP3    H227796   5.219   0.904   9.189 -1.8133 -0.0760  2.1436
 1201TIP3   OH227797   2.296   4.524   7.318 -0.4408  0.3352  0.0051
 1201TIP3    H127798   2.215   4.504   7.273 -1.1053  0.8970  0.9081
 1201TIP3    H227799   2.358   4.549   7.249 -0.8395 -0.7082 -0.7387
 1202TIP3   OH227800   4.088   0.066   8.442 -0.5418  0.2562  0.0554
 1202TIP3    H127801   4.162   0.028   8.490 -0.1972 -0.5713 -1.0688
 1202TIP3    H227802   4.088   0.019   8.358 -2.7047 -0.1683  0.2517
 1203TIP3   OH227803   4.542   0.014   8.433 -0.1764  0.0002  0.6380
 1203TIP3    H127804   4.592  -0.067   8.448 -1.1566 -0.6807  0.3396
 1203TIP3    H227805   4.578   0.048   8.351 -0.5434 -0.7623  0.1490
 1204TIP3   OH227806   2.277   1.974   7.622  0.1024 -1.2066  0.2688
 1204TIP3    H127807   2.297   1.899   7.679 -0.5921 -0.5154  1.4810
 1204TIP3    H227808   2.182   1.973   7.615  0.0798 -0.3735  0.3956
 1205TIP3   OH227809   0.780   6.084   9.233 -0.1353  0.1917  0.3029
 1205TIP3    H127810   0.751   6.030   9.160 -0.0029  0.6756 -0.1121
 1205TIP3    H227811   0.707   6.082   9.296 -1.3725  1.8758 -0.9744
 1206TIP3   OH227812   0.866   6.224   8.097  0.0282  0.1508 -0.0711
 1206TIP3    H127813   0.924   6.151   8.077 -0.4399  0.2025 -1.7653
 1206TIP3    H227814   0.781   6.183   8.113  0.2781  0.1553  1.4920
 1207TIP3   OH227815   5.161   3.752   8.462 -0.3827  0.1629  0.0461
 1207TIP3    H127816   5.244   3.798   8.478  0.3443 -1.5642  1.7197
 1207TIP3    H227817   5.118   3.751   8.548 -0.9918 -1.0735 -0.2582
 1208TIP3   OH227818   0.569   5.859   7.554 -0.0011 -0.6810 -0.0925
 1208TIP3    H127819   0.503   5.830   7.617  0.7215 -1.5413  0.2976
 1208TIP3    H227820   0.519   5.895   7.481 -0.8594  0.1508  0.8720
 1209TIP3   OH227821   6.718   2.481   8.963 -0.1963 -0.0823  0.2355
 1209TIP3    H127822   6.622   2.472   8.966 -0.2662 -0.0296 -1.1046
 1209TIP3    H227823   6.734   2.543   8.892  0.9477 -3.1356 -2.4106
 1210TIP3   OH227824   6.751   4.183   9.348  0.0824 -0.0691 -0.3491
 1210TIP3    H127825   6.775   4.105   9.297  0.3324 -0.8236  0.8697
 1210TIP3    H227826   6.775   4.160   9.438  0.4320  1.5430 -0.0061
 1211TIP3   OH227827   3.266   1.862   6.896 -0.1745  0.5164  0.2062
 1211TIP3    H127828   3.272   1.809   6.817 -1.1319  0.4916  0.1388
 1211TIP3    H227829   3.214   1.938   6.871  0.6000  1.1556  0.4874
 1212TIP3   OH227830   5.633   1.674   8.522  0.3582  0.2664 -0.1022
 1212TIP3    H127831   5.579   1.642   8.450 -0.0076 -0.4290  0.4675
 1212TIP3    H227832   5.577   1.738   8.567  1.0232  1.5998 -1.1316
 1213TIP3   OH227833   6.226   4.219   7.853 -0.1931 -0.2249  0.1324
 1213TIP3    H127834   6.166   4.240   7.925  0.3937 -0.4923  0.7164
 1213TIP3    H227835   6.292   4.163   7.893  0.9064  0.7297 -0.2942
 1214TIP3   OH227836   5.444   1.589   8.368  0.5163  0.6566 -0.2405
 1214TIP3    H127837   5.357   1.626   8.354  0.4961  0.2123 -1.3172
 1214TIP3    H227838   5.431   1.495   8.364  1.0887  0.5917 -0.6326
 1215TIP3   OH227839   2.364   7.070   7.596  0.2408  0.1353  0.4689
 1215TIP3    H127840   2.366   7.071   7.501  0.5365  0.7861  0.4820
 1215TIP3    H227841   2.403   7.153   7.623  0.9686 -0.4160  1.1753
 1216TIP3   OH227842   5.766   2.791   8.575 -0.3516  0.7402 -0.3056
 1216TIP3    H127843   5.770   2.869   8.630 -0.4766  0.9441 -0.5821
 1216TIP3    H227844   5.689   2.744   8.607 -0.0007  0.4812  0.1809
 1217TIP3   OH227845   0.856   3.212   9.257  0.0304 -0.0826  0.4591
 1217TIP3    H127846   0.947   3.193   9.237  0.4846  1.0747  1.3053
 1217TIP3    H227847   0.817   3.127   9.276  1.8455 -0.3470  3.6404
 1218TIP3   OH227848   5.164   0.198   9.711  0.6556  0.2379  0.0875
 1218TIP3    H127849   5.233   0.250   9.669  2.2814 -0.4010  1.8107
 1218TIP3    H227850   5.183   0.108   9.684  1.3349 -0.1010  1.5915
 1219TIP3   OH227851   5.126   6.401   8.290  0.0631  0.8702  0.5762
 1219TIP3    H127852   5.142   6.370   8.201  1.8701  0.2631  1.0634
 1219TIP3    H227853   5.032   6.415   8.294  0.1370  2.7917 -2.0054
 1220TIP3   OH227854   5.162   5.118   9.162 -0.5386  0.1142 -0.6647
 1220TIP3    H127855   5.190   5.098   9.073 -1.6552 -4.6432 -0.2045
 1220TIP3    H227856   5.082   5.066   9.174  0.3647 -0.6420  3.5345
 1221TIP3   OH227857   3.667   3.658   8.877 -0.0291 -0.3419 -0.7007
 1221TIP3    H127858   3.728   3.602   8.924  0.1539  0.0289 -0.4959
 1221TIP3    H227859   3.718   3.695   8.805  0.7691  2.0608  0.9833
 1222TIP3   OH227860   6.851   1.209   6.832  0.6427  0.7400 -0.7099
 1222TIP3    H127861   6.855   1.223   6.926 -0.9742 -1.5028 -0.2193
 1222TIP3    H227862   6.775   1.258   6.803  0.4473  0.4914 -0.6236
 1223TIP3   OH227863   1.193   7.094   7.962  0.3054  0.0868 -0.2735
 1223TIP3    H127864   1.175   7.175   7.914  0.1809 -0.5233 -1.2993
 1223TIP3    H227865   1.106   7.060   7.985  0.1899 -1.0269 -2.0895
 1224TIP3   OH227866   0.099   3.955   7.650 -0.2505 -0.2543 -0.0500
 1224TIP3    H127867   0.089   3.863   7.676 -1.9330  0.0576  0.4936
 1224TIP3    H227868   0.068   3.957   7.559  0.9904 -0.4343 -0.4970
 1225TIP3   OH227869   1.531   1.813   8.280  0.0478  0.2180 -0.2180
 1225TIP3    H127870   1.543   1.884   8.343 -0.8670 -0.8912  1.2724
 1225TIP3    H227871   1.579   1.739   8.317 -0.1697 -0.3504 -1.0339
 1226TIP3   OH227872   3.097   3.373   9.135  0.3950 -0.1661  0.2840
 1226TIP3    H127873   3.106   3.409   9.223  1.2209  0.5978 -0.1053
 1226TIP3    H227874   3.185   3.343   9.112  0.4941  0.9501 -0.8319
 1227TIP3   OH227875   1.964   4.434   7.451 -0.0246  0.6064  0.2629
 1227TIP3    H127876   1.995   4.420   7.362  0.7165 -1.9286  0.8367
 1227TIP3    H227877   1.904   4.508   7.444  0.0905  0.5570 -2.3098
 1228TIP3   OH227878   5.296   6.092   8.425  0.1346  0.3043 -0.0671
 1228TIP3    H127879   5.324   6.098   8.517 -1.6767 -0.9009  0.6055
 1228TIP3    H227880   5.204   6.117   8.426  0.6149  2.5395 -1.9722
 1229TIP3   OH227881   6.367   1.236   8.875 -0.2594  0.0727  0.1316
 1229TIP3    H127882   6.303   1.166   8.860 -1.1469  0.5278  1.5428
 1229TIP3    H227883   6.447   1.206   8.832 -1.0397 -1.1280 -0.5321
 1230TIP3   OH227884   6.400   5.012   7.485  0.0541 -0.2271 -0.5527
 1230TIP3    H127885   6.484   4.973   7.511 -0.9424 -2.1952 -0.0790
 1230TIP3    H227886   6.355   5.029   7.567 -0.2301  0.2945 -0.8141
 1231TIP3   OH227887   4.434   6.677   9.277 -0.1237  0.1860  0.0165
 1231TIP3    H127888   4.510   6.717   9.319 -0.1083 -0.9798  1.1655
 1231TIP3    H227889   4.419   6.731   9.199  1.9747  0.3530 -0.3422
 1232TIP3   OH227890   0.670   5.290   8.884 -0.2337 -0.1492 -0.0641
 1232TIP3    H127891   0.740   5.351   8.857 -1.0663  1.2804  0.8449
 1232TIP3    H227892   0.704   5.248   8.962  0.1977 -0.5967 -0.4826
 1233TIP3   OH227893   5.107   2.107   9.021 -0.2723 -0.0197 -0.1930
 1233TIP3    H127894   5.167   2.180   9.030  0.4983 -0.6396 -0.1816
 1233TIP3    H227895   5.085   2.082   9.111  1.0516 -1.0572 -0.1175
 1234TIP3   OH227896   5.362   5.842   8.592 -0.2255  0.0066 -0.2850
 1234TIP3    H127897   5.454   5.817   8.599 -0.0315  0.8170  0.1565
 1234TIP3    H227898   5.350   5.862   8.499  0.3028  0.8480 -0.1807
 1235TIP3   OH227899   5.713   6.068   7.920 -0.5938  0.0482 -1.0962
 1235TIP3    H127900   5.742   5.990   7.967 -2.1770 -0.3657 -0.7397
 1235TIP3    H227901   5.617   6.061   7.919 -0.6800  0.6433 -3.3496
 1236TIP3   OH227902   6.323   4.189   9.259  0.2790  0.0149 -0.1012
 1236TIP3    H127903   6.271   4.251   9.207 -0.8666 -0.1180  0.8424
 1236TIP3    H227904   6.392   4.243   9.298  2.8758 -0.3020 -3.7832
 1237TIP3   OH227905   2.854   5.321   7.264  0.0404 -1.1783 -1.0849
 1237TIP3    H127906   2.788   5.390   7.256  0.4631 -0.2314  2.3741
 1237TIP3    H227907   2.806   5.241   7.242 -2.0164 -0.3963  0.2302
 1238TIP3   OH227908   2.599   6.886   9.442 -0.0478 -0.3816 -0.9524
 1238TIP3    H127909   2.568   6.844   9.362 -0.5181 -0.7413 -0.5802
 1238TIP3    H227910   2.554   6.971   9.444  1.3228  0.4173 -1.9932
 1239TIP3   OH227911   7.147   5.187   7.560  0.1893  0.4114  0.1687
 1239TIP3    H127912   7.230   5.234   7.565  0.8432 -0.7563  0.7949
 1239TIP3    H227913   7.128   5.162   7.650 -0.3169 -0.2101 -0.1033
 1240TIP3   OH227914   0.465   7.157   9.308 -0.0129 -0.1506 -0.4904
 1240TIP3    H127915   0.520   7.165   9.386  0.2070 -2.4611 -0.3220
 1240TIP3    H227916   0.394   7.219   9.322  1.9702  2.2087 -0.2597
 1241TIP3   OH227917   4.866   3.893   7.335  0.1346  0.3946 -0.1151
 1241TIP3    H127918   4.877   3.885   7.430 -2.1281 -0.7244  0.1271
 1241TIP3    H227919   4.872   3.802   7.303  2.4358  0.8856 -1.3141
 1242TIP3   OH227920   5.752   2.431   6.466 -0.4132 -0.2321  0.6648
 1242TIP3    H127921   5.774   2.524   6.468 -1.0421 -0.0837  0.8250
 1242TIP3    H227922   5.823   2.388   6.514  1.4534 -0.1758 -1.8375
 1243TIP3   OH227923   3.619   3.215   7.666 -0.2586  0.2473  0.1979
 1243TIP3    H127924   3.662   3.264   7.737  0.1144 -1.0077  0.8849
 1243TIP3    H227925   3.659   3.248   7.586 -0.3741  1.3943  0.6014
 1244TIP3   OH227926   1.003   3.682   8.238  0.4692  0.1227 -0.0214
 1244TIP3    H127927   0.986   3.669   8.331 -0.9345 -0.3076 -0.3153
 1244TIP3    H227928   1.077   3.624   8.219  0.9123  0.3806  0.8615
 1245TIP3   OH227929   0.528   3.088   8.717  0.0824 -0.5365  0.2777
 1245TIP3    H127930   0.467   3.129   8.656  0.2608 -1.7380 -0.7558
 1245TIP3    H227931   0.478   3.075   8.797 -0.2428  0.8101  0.3076
 1246TIP3   OH227932   6.386   7.098   8.688 -0.1752  0.1448 -0.2104
 1246TIP3    H127933   6.437   7.017   8.676 -0.5325 -0.1006 -0.0846
 1246TIP3    H227934   6.452   7.167   8.686  0.1325 -0.1447 -0.3636
 1247TIP3   OH227935   0.482   5.373   7.205 -0.1384  0.4035 -0.4058
 1247TIP3    H127936   0.476   5.421   7.288 -0.9044 -1.2051  0.5230
 1247TIP3    H227937   0.436   5.428   7.142  0.8663  1.8905  0.0857
 1248TIP3   OH227938   5.373   2.473   7.959  0.3176  0.3159 -0.8906
 1248TIP3    H127939   5.314   2.524   7.903  0.0943 -0.7140 -1.6233
 1248TIP3    H227940   5.341   2.383   7.951 -1.6290  0.4137  3.2144
 1249TIP3   OH227941   4.700   5.720   7.878  0.3889 -0.2418  0.5758
 1249TIP3    H127942   4.681   5.763   7.961  1.5201 -0.1838  0.8182
 1249TIP3    H227943   4.788   5.751   7.854  0.7063 -1.4294  0.1283
 1250TIP3   OH227944   7.368   3.603   8.527 -0.3095 -0.3606  0.0027
 1250TIP3    H127945   7.295   3.546   8.504 -0.3244 -0.6576  0.7439
 1250TIP3    H227946   7.400   3.637   8.444 -2.9336  1.8565 -0.2475
 1251TIP3   OH227947   6.204   1.312   7.579  0.0049 -0.0794  0.6841
 1251TIP3    H127948   6.231   1.376   7.645  0.5636  0.0920  0.2968
 1251TIP3    H227949   6.180   1.234   7.630 -0.3007  0.2995  1.1309
 1252TIP3   OH227950   1.847   6.422   7.768 -0.5703 -0.3372  0.1863
 1252TIP3    H127951   1.760   6.430   7.730 -1.2325 -0.1442  1.6598
 1252TIP3    H227952   1.901   6.384   7.698 -1.7673 -0.2378 -0.8215
 1253TIP3   OH227953   3.534   2.830   9.019 -0.5232 -0.4867  0.0810
 1253TIP3    H127954   3.494   2.877   9.092 -1.2037  2.0502 -1.7738
 1253TIP3    H227955   3.485   2.860   8.942  3.0817  0.7125 -2.0176
 1254TIP3   OH227956   6.255   1.486   8.088  0.3303 -0.2960 -0.3418
 1254TIP3    H127957   6.228   1.395   8.091  1.5642 -0.6775 -0.1597
 1254TIP3    H227958   6.351   1.483   8.096  0.3172  1.0615  0.8730
 1255TIP3   OH227959   3.375   1.675   9.313  0.0732  1.0945  0.3357
 1255TIP3    H127960   3.361   1.649   9.222  1.5119 -0.6037  0.5574
 1255TIP3    H227961   3.289   1.708   9.342 -0.7589  0.3743 -1.2190
 1256TIP3   OH227962   5.228   2.675   7.789  0.0233  0.4103  0.4277
 1256TIP3    H127963   5.150   2.687   7.735  1.0218 -1.6285 -1.6336
 1256TIP3    H227964   5.240   2.760   7.832 -0.5922  2.3739 -2.9267
 1257TIP3   OH227965   6.468   2.634   8.883  0.0906 -0.7060  0.5281
 1257TIP3    H127966   6.522   2.676   8.816  0.3728 -0.8926  0.6373
 1257TIP3    H227967   6.387   2.610   8.837 -0.1954  0.2126  0.5306
 1258TIP3   OH227968   1.265   6.522   7.137 -0.2125  0.2059  0.2946
 1258TIP3    H127969   1.242   6.575   7.213 -1.7624 -0.7537  0.5415
 1258TIP3    H227970   1.186   6.471   7.119  1.0463 -1.6378 -0.2387
 1259TIP3   OH227971   0.511   5.324   8.659  0.1024 -0.0789  0.3962
 1259TIP3    H127972   0.521   5.337   8.753 -1.0200  1.0054  0.4034
 1259TIP3    H227973   0.434   5.268   8.650 -0.1587  0.3100  0.1256
 1260TIP3   OH227974   6.843   5.770   6.865 -0.0812  0.3055 -0.5668
 1260TIP3    H127975   6.901   5.800   6.794  0.1433 -0.6928 -0.8244
 1260TIP3    H227976   6.756   5.768   6.825 -0.1105  0.6948 -0.5229
 1261TIP3   OH227977   4.766   5.253   8.777 -1.4850  0.5928 -0.1754
 1261TIP3    H127978   4.770   5.166   8.817 -1.3384  0.2253 -0.9647
 1261TIP3    H227979   4.679   5.258   8.738 -0.2078 -0.8450 -3.6253
 1262TIP3   OH227980   3.010   3.736   9.345  0.0667  0.3611  0.3227
 1262TIP3    H127981   2.926   3.692   9.331  0.3633  0.2554 -1.4404
 1262TIP3    H227982   3.073   3.664   9.353  0.2724  0.4216 -0.5878
 1263TIP3   OH227983   0.805   7.522   9.045 -0.6290 -0.7326  0.3233
 1263TIP3    H127984   0.792   7.480   8.960 -0.6898  0.0507 -0.0617
 1263TIP3    H227985   0.834   7.610   9.024 -1.1036 -0.3759  1.1074
 1264TIP3   OH227986   3.197   0.922   9.397 -0.7412  0.1962  0.1485
 1264TIP3    H127987   3.191   0.828   9.415  0.4422  0.6075  3.5691
 1264TIP3    H227988   3.272   0.931   9.339  0.4983 -0.8959  1.4920
 1265TIP3   OH227989   1.150   3.698   6.565 -0.1479 -0.0106  0.0106
 1265TIP3    H127990   1.215   3.719   6.631 -0.1016  0.2384 -0.1131
 1265TIP3    H227991   1.154   3.602   6.557  0.3027  0.0161 -0.1001
 1266TIP3   OH227992   1.626   1.565   9.018  0.3229 -0.4053 -0.1470
 1266TIP3    H127993   1.543   1.592   8.977  0.7514 -0.2171 -0.9131
 1266TIP3    H227994   1.682   1.643   9.012  0.7093 -0.6749 -0.0491
 1267TIP3   OH227995   6.029   3.110   6.781 -0.0102  0.7121 -0.3105
 1267TIP3    H127996   6.097   3.176   6.768  0.2907  0.4832  0.0573
 1267TIP3    H227997   5.951   3.160   6.804 -0.4536  1.0948 -2.4573
 1268TIP3   OH227998   0.051   1.577   7.677 -0.2765  0.5264  0.2177
 1268TIP3    H127999   0.144   1.587   7.695 -0.0565 -1.7720  0.5501
 1268TIP3    H228000   0.013   1.663   7.699  1.4872  0.9684  1.7184
 1269TIP3   OH228001   4.420   3.950   7.539 -0.6766  0.2912 -0.3401
 1269TIP3    H128002   4.343   3.945   7.597 -0.5400  0.9411 -0.0904
 1269TIP3    H228003   4.471   3.872   7.560 -0.0049  1.1274  1.3321
 1270TIP3   OH228004   1.018   6.803   7.912 -0.2532 -0.0441  0.0903
 1270TIP3    H128005   1.093   6.814   7.853  0.5587  0.0278  1.1088
 1270TIP3    H228006   1.026   6.713   7.944 -0.2724  0.1504  0.6444
 1271TIP3   OH228007   2.838   0.160   7.160 -0.2288 -0.2088  0.7188
 1271TIP3    H128008   2.758   0.138   7.208  0.0407 -1.3198  0.6987
 1271TIP3    H228009   2.873   0.075   7.133  1.1902  0.2302  1.1187
 1272TIP3   OH228010   7.571   5.630   7.806  0.8324 -0.3591 -0.1571
 1272TIP3    H128011   7.557   5.697   7.739  0.0756 -0.5247 -0.1735
 1272TIP3    H228012   7.490   5.579   7.806 -1.1560  2.2645  3.9076
 1273TIP3   OH228013   0.498   6.255   8.052  0.2220  0.5012 -0.4738
 1273TIP3    H128014   0.449   6.201   7.990  1.3364  0.9456 -1.7867
 1273TIP3    H228015   0.564   6.196   8.089 -0.1274  0.3641 -0.0523
 1274TIP3   OH228016   1.434   4.419   7.440 -0.0985  0.2742  0.3746
 1274TIP3    H128017   1.358   4.367   7.413  0.7737 -0.9906  0.2657
 1274TIP3    H228018   1.451   4.477   7.366 -1.0063  0.6652  0.4485
 1275TIP3   OH228019   6.595   5.428   7.863  0.8769  1.2146 -0.0920
 1275TIP3    H128020   6.527   5.487   7.897  0.0555  0.2825 -0.0737
 1275TIP3    H228021   6.659   5.423   7.934 -0.5776 -0.3085  1.2186
 1276TIP3   OH228022   0.417   1.010   6.811  0.0764  0.1445 -0.3254
 1276TIP3    H128023   0.336   1.059   6.825  0.7795  1.3028 -0.2318
 1276TIP3    H228024   0.393   0.919   6.830 -2.1501 -0.2025 -3.8006
 1277TIP3   OH228025   4.293   3.384   8.858  0.2565 -0.3491  0.6168
 1277TIP3    H128026   4.287   3.396   8.953 -0.5915 -2.2900  0.8545
 1277TIP3    H228027   4.262   3.467   8.822 -1.8227 -0.4174  2.0560
 1278TIP3   OH228028   0.607   6.966   7.124 -0.5986  0.4789 -0.1620
 1278TIP3    H128029   0.574   6.930   7.042 -0.6751 -0.2382  0.1695
 1278TIP3    H228030   0.669   7.034   7.098 -0.7681  0.3880 -0.8103
 1279TIP3   OH228031   7.281   1.961   7.159 -0.1973 -0.3137  0.2249
 1279TIP3    H128032   7.205   2.004   7.121 -0.0634 -0.4980 -0.2570
 1279TIP3    H228033   7.269   1.868   7.138 -0.8001 -0.6330  1.7821
 1280TIP3   OH228034   4.429   2.181   7.751 -0.2952 -0.0770 -0.0942
 1280TIP3    H128035   4.388   2.259   7.789  0.4040  0.9954 -1.4624
 1280TIP3    H228036   4.381   2.107   7.790 -3.0538  1.0836 -1.0744
 1281TIP3   OH228037   1.748   3.768   6.867  0.3459 -0.1318  0.1188
 1281TIP3    H128038   1.806   3.732   6.934  0.9233 -0.3662 -0.4957
 1281TIP3    H228039   1.689   3.697   6.845 -2.0316  0.8821  2.6904
 1282TIP3   OH228040   4.832   3.986   9.007  0.0633 -0.2703  0.0495
 1282TIP3    H128041   4.867   4.055   8.950  1.4517  0.3852  1.6288
 1282TIP3    H228042   4.746   4.020   9.034  0.1540  0.2209 -0.2589
 1283TIP3   OH228043   5.162   1.885   7.563 -0.2190  0.0781 -0.1286
 1283TIP3    H128044   5.147   1.863   7.471 -1.7066 -0.8368  0.2872
 1283TIP3    H228045   5.112   1.966   7.577 -0.3655 -0.0297 -0.0221
 1284TIP3   OH228046   5.349   5.476   8.846  0.0789  0.6507  0.4775
 1284TIP3    H128047   5.341   5.437   8.759  0.2715 -0.2829  0.8763
 1284TIP3    H228048   5.344   5.571   8.829  0.7756  0.5100 -0.6133
 1285TIP3   OH228049   7.251   2.508   6.866 -0.0897  0.3050 -0.6219
 1285TIP3    H128050   7.284   2.429   6.909  0.4205 -0.1397 -1.7997
 1285TIP3    H228051   7.155   2.498   6.871 -0.0462  0.1387  0.1536
 1286TIP3   OH228052   4.044   4.493   7.978  0.5894 -0.1684  0.2935
 1286TIP3    H128053   4.114   4.499   7.913  0.1353 -1.0239 -0.2869
 1286TIP3    H228054   3.989   4.421   7.948 -0.9409  0.9228  0.3372
 1287TIP3   OH228055   6.870   5.805   7.878  0.0368  0.2340  0.7045
 1287TIP3    H128056   6.801   5.752   7.920 -0.7172  0.5920 -0.0482
 1287TIP3    H228057   6.943   5.745   7.867 -0.7459 -0.6269  0.0120
 1288TIP3   OH228058   3.050   4.226   7.348  0.1471 -0.2388 -0.1855
 1288TIP3    H128059   2.956   4.213   7.341  0.4202 -2.3923 -0.6120
 1288TIP3    H228060   3.086   4.137   7.350  2.0974  0.5062  1.0427
 1289TIP3   OH228061   0.574   5.105   8.475 -0.1464 -0.0478 -0.5081
 1289TIP3    H128062   0.663   5.117   8.506 -0.3484 -0.5647  0.2962
 1289TIP3    H228063   0.525   5.177   8.515 -0.4632 -0.8774  0.6402
 1290TIP3   OH228064   5.427   4.718   6.927 -0.3065  0.3993  0.4467
 1290TIP3    H128065   5.412   4.629   6.959 -1.8195  0.5502  0.2146
 1290TIP3    H228066   5.478   4.706   6.847 -0.0201 -0.2277  0.7175
 1291TIP3   OH228067   7.000   2.115   8.123  0.0780 -0.5926  0.0699
 1291TIP3    H128068   7.081   2.071   8.096  0.8272  1.0399 -0.4524
 1291TIP3    H228069   6.943   2.110   8.046  0.0444 -0.8956  0.1122
 1292TIP3   OH228070   7.084   0.305   7.886 -0.4955  0.4785 -0.3586
 1292TIP3    H128071   6.999   0.333   7.851 -1.2810 -0.8789  0.3884
 1292TIP3    H228072   7.062   0.250   7.961  1.0834  1.0637  0.5936
 1293TIP3   OH228073   2.752   0.377   8.519  0.0294 -0.0975  0.4702
 1293TIP3    H128074   2.805   0.348   8.593  0.8482 -0.7440 -0.3433
 1293TIP3    H228075   2.759   0.306   8.455 -1.2923  0.1025  0.0688
 1294TIP3   OH228076   4.048   2.568   9.315  0.1041  0.1438 -0.2309
 1294TIP3    H128077   4.082   2.495   9.367 -0.7104  1.3920  2.2012
 1294TIP3    H228078   4.003   2.526   9.242  1.3491 -1.7043 -0.0054
 1295TIP3   OH228079   0.310   6.874   8.460 -0.0162  0.5174 -0.1442
 1295TIP3    H128080   0.346   6.877   8.549  1.2264  0.6263 -0.6338
 1295TIP3    H228081   0.374   6.823   8.410 -1.3678 -0.7093 -0.6930
 1296TIP3   OH228082   1.381   3.534   8.945  0.6448 -0.2042  0.1053
 1296TIP3    H128083   1.453   3.514   9.005  0.4816 -0.1096  0.3377
 1296TIP3    H228084   1.330   3.453   8.941  1.2284 -0.5396 -0.7234
 1297TIP3   OH228085   6.025   4.263   7.523 -0.1967  0.4213 -0.6016
 1297TIP3    H128086   6.097   4.324   7.541  0.0958 -0.0892  0.0317
 1297TIP3    H228087   6.062   4.203   7.457 -0.9145  1.6620 -2.2093
 1298TIP3   OH228088   1.575   5.057   9.099  0.0300  0.5045 -0.0714
 1298TIP3    H128089   1.608   4.967   9.092  0.1143  0.5266  0.0427
 1298TIP3    H228090   1.488   5.054   9.058  0.0057  0.3567 -0.0089
 1299TIP3   OH228091   2.878   0.505   8.134  0.4506 -0.1145 -0.4936
 1299TIP3    H128092   2.798   0.553   8.156  1.1688 -0.2112  2.8790
 1299TIP3    H228093   2.946   0.572   8.134  0.8931 -0.5323  0.5769
 1300TIP3   OH228094   5.214   0.476   8.892 -0.0051 -0.6029  0.3169
 1300TIP3    H128095   5.252   0.521   8.967 -0.3977  0.4664 -0.1062
 1300TIP3    H228096   5.239   0.530   8.817 -2.2061  0.0843  0.0052
 1301TIP3   OH228097   0.520   1.511   7.493  0.6740 -0.6607  0.3863
 1301TIP3    H128098   0.553   1.421   7.497 -0.2715 -1.0401  0.0457
 1301TIP3    H228099   0.583   1.557   7.438  0.3512 -1.5134 -0.7322
 1302TIP3   OH228100   0.980   3.467   9.160 -0.3064  0.4991  0.4741
 1302TIP3    H128101   0.975   3.470   9.065  1.3591 -1.2019  0.2860
 1302TIP3    H228102   0.939   3.385   9.184 -1.6541  1.3909  1.3496
 1303TIP3   OH228103   6.882   2.323   9.266 -0.3493 -0.4509  0.1540
 1303TIP3    H128104   6.795   2.303   9.229 -0.4272  1.3588 -0.7727
 1303TIP3    H228105   6.942   2.307   9.193 -0.1858  0.5283  0.0671
 1304TIP3   OH228106   2.015   3.873   9.370  0.2727 -0.2641 -0.2502
 1304TIP3    H128107   1.991   3.827   9.289 -0.9801 -0.8246  0.4095
 1304TIP3    H228108   2.082   3.936   9.343 -1.0394  0.4600 -1.9600
 1305TIP3   OH228109   6.643   3.997   8.709 -0.0407  0.5447  0.3240
 1305TIP3    H128110   6.643   4.086   8.675  0.1571 -0.4499 -2.5941
 1305TIP3    H228111   6.557   3.962   8.683  0.6915 -0.7240 -0.5133
 1306TIP3   OH228112   3.166   0.356   7.088  0.1608 -0.0452  0.6575
 1306TIP3    H128113   3.134   0.375   7.000  0.9540 -0.3489  0.2975
 1306TIP3    H228114   3.091   0.314   7.132 -0.3477  0.4095  0.2484
 1307TIP3   OH228115   4.033   5.674   8.176  0.8534 -0.1894 -0.2193
 1307TIP3    H128116   4.031   5.720   8.260  0.9932  0.6187 -0.6479
 1307TIP3    H228117   4.085   5.596   8.194  2.0461  0.6435  0.1408
 1308TIP3   OH228118   0.380   6.663   8.295 -0.1043  0.1876 -0.3815
 1308TIP3    H128119   0.397   6.594   8.231 -0.3839 -0.5570  0.3196
 1308TIP3    H228120   0.285   6.674   8.294  0.0417  1.4534 -1.3781
 1309TIP3   OH228121   5.597   1.180   7.374  0.5077  0.4887 -0.2775
 1309TIP3    H128122   5.602   1.130   7.292  1.3461  1.8069 -1.0658
 1309TIP3    H228123   5.504   1.177   7.398  0.5724 -1.6527 -0.1290
 1310TIP3   OH228124   0.063   6.870   8.559  0.8916  0.7496  0.4982
 1310TIP3    H128125   0.135   6.839   8.504 -0.3754  0.9342 -1.3583
 1310TIP3    H228126   0.016   6.933   8.503 -1.4590 -0.3320  1.1306
 1311TIP3   OH228127   3.629   6.601   8.746  0.2320  0.9369 -0.1283
 1311TIP3    H128128   3.627   6.676   8.805  0.8512  1.3441 -0.6127
 1311TIP3    H228129   3.664   6.530   8.800 -0.6105  0.9222  0.4064
 1312TIP3   OH228130   6.976   6.357   8.514  0.4510 -0.6403  0.0829
 1312TIP3    H128131   6.996   6.274   8.558 -1.5053 -1.7009 -0.8459
 1312TIP3    H228132   6.906   6.395   8.567  2.0433  1.0019  1.0953
 1313TIP3   OH228133   7.137   1.441   9.444 -0.1936 -0.0200 -0.2595
 1313TIP3    H128134   7.073   1.375   9.472 -0.1300  0.2155  0.4666
 1313TIP3    H228135   7.083   1.510   9.406 -0.7254  1.5496  2.9867
 1314TIP3   OH228136   1.377   7.413   8.857  0.1319 -0.3759 -0.5097
 1314TIP3    H128137   1.350   7.325   8.832 -2.0677 -0.0677  0.5686
 1314TIP3    H228138   1.302   7.469   8.835  1.8685  1.4713 -2.1757
 1315TIP3   OH228139   3.687   0.867   8.719  0.3650  0.1205  0.5325
 1315TIP3    H128140   3.751   0.797   8.730  2.3978  1.7093 -0.3607
 1315TIP3    H228141   3.675   0.874   8.625 -0.6858  0.2438  0.6692
 1316TIP3   OH228142   3.222   7.419   6.963 -0.1438  0.1989  0.0170
 1316TIP3    H128143   3.151   7.483   6.966  0.3740  0.7793  0.0043
 1316TIP3    H228144   3.286   7.452   7.026 -0.3221 -0.8583  0.7779
 1317TIP3   OH228145   4.474   5.727   8.132  0.4609 -0.1105 -0.5299
 1317TIP3    H128146   4.537   5.734   8.204  0.9723 -1.3437 -0.8284
 1317TIP3    H228147   4.395   5.767   8.166  0.9394  0.0467  0.4388
 1318TIP3   OH228148   5.728   3.504   8.660 -0.8142  0.1509  0.1085
 1318TIP3    H128149   5.702   3.418   8.627 -1.7217  0.0078  1.1347
 1318TIP3    H228150   5.677   3.515   8.739 -0.4076  1.4786  0.2044
 1319TIP3   OH228151   7.601   0.667   8.807 -0.4729  0.4850 -0.7925
 1319TIP3    H128152   7.683   0.622   8.784 -0.7468  0.1638 -1.1523
 1319TIP3    H228153   7.566   0.697   8.723 -1.5471 -0.8053 -0.8391
 1320TIP3   OH228154   3.405   4.092   8.125  0.2396 -0.4258 -0.4557
 1320TIP3    H128155   3.486   4.054   8.092  0.9470  1.0024 -0.4568
 1320TIP3    H228156   3.344   4.019   8.129  1.4225 -1.4678 -0.7790
 1321TIP3   OH228157   6.520   6.346   7.353  0.0401 -0.6488 -0.0240
 1321TIP3    H128158   6.575   6.303   7.418  1.1450 -0.3930 -0.7756
 1321TIP3    H228159   6.565   6.332   7.270  0.9210  2.6406 -0.2284
 1322TIP3   OH228160   4.581   7.607   7.860 -0.0401 -0.0682 -0.5797
 1322TIP3    H128161   4.675   7.611   7.843 -0.0879 -1.4805 -1.3068
 1322TIP3    H228162   4.553   7.524   7.821 -1.1919 -0.7430  1.5118
 1323TIP3   OH228163   3.886   7.380   9.280 -0.1308 -0.7817  0.5597
 1323TIP3    H128164   3.964   7.326   9.263 -0.0090 -0.3108 -0.4522
 1323TIP3    H228165   3.876   7.432   9.200 -0.6601  0.1815  1.2473
 1324TIP3   OH228166   3.812   2.408   9.166 -0.1598 -0.3651  0.6457
 1324TIP3    H128167   3.738   2.401   9.227  1.9582  2.1854  3.8061
 1324TIP3    H228168   3.874   2.342   9.197  0.7046  0.5514  0.8796
 1325TIP3   OH228169   2.359   2.317   8.415 -0.1541 -0.1965  0.4141
 1325TIP3    H128170   2.394   2.230   8.437  0.8569 -0.2789 -1.3346
 1325TIP3    H228171   2.358   2.364   8.498 -1.0556 -1.9633  1.4778
 1326TIP3   OH228172   2.362   6.498   8.700 -0.4326 -0.3369 -0.0746
 1326TIP3    H128173   2.321   6.580   8.727  2.1704  1.1996 -0.3628
 1326TIP3    H228174   2.415   6.472   8.775  1.6062  0.3063 -1.2117
 1327TIP3   OH228175   5.337   6.118   7.631  0.0375  0.4793  0.2114
 1327TIP3    H128176   5.427   6.145   7.645  0.8052 -0.8475 -1.6721
 1327TIP3    H228177   5.299   6.187   7.577 -0.1790  1.1740  1.2355
 1328TIP3   OH228178   4.602   2.073   6.817  0.0309  0.3269  0.2025
 1328TIP3    H128179   4.531   2.010   6.804  0.3541 -0.3354  1.5388
 1328TIP3    H228180   4.682   2.023   6.804  0.2726  0.8990 -0.5483
 1329TIP3   OH228181   4.750   2.066   8.632  0.1593  0.0930  0.1868
 1329TIP3    H128182   4.694   2.142   8.621  0.6841  0.4334 -0.1716
 1329TIP3    H228183   4.796   2.057   8.549  0.4813 -0.3101  0.3999
 1330TIP3   OH228184   7.217   3.713   7.274  0.5969  0.8009 -0.2262
 1330TIP3    H128185   7.153   3.771   7.232  1.0568  2.2890  1.0347
 1330TIP3    H228186   7.302   3.743   7.241  0.8503  1.0074  0.5739
 1331TIP3   OH228187   2.664   2.851   8.791  0.2934 -0.0021 -0.1064
 1331TIP3    H128188   2.615   2.915   8.843 -0.6706 -1.3267  0.6719
 1331TIP3    H228189   2.756   2.876   8.803  0.2443 -0.9234  3.3083
 1332TIP3   OH228190   1.924   3.385   9.479 -0.1410 -0.4453  0.0720
 1332TIP3    H128191   1.996   3.448   9.472  0.2659 -1.0254 -1.3289
 1332TIP3    H228192   1.857   3.431   9.530  0.4220  0.8568 -0.3061
 1333TIP3   OH228193   4.538   5.031   7.785 -0.3270 -0.1841  0.0567
 1333TIP3    H128194   4.446   5.034   7.810 -0.9429 -0.1437 -2.0782
 1333TIP3    H228195   4.560   4.938   7.785 -0.2521 -0.1732  0.9000
 1334TIP3   OH228196   5.972   1.997   7.921 -0.4096 -0.3909 -0.0295
 1334TIP3    H128197   6.010   1.910   7.911  0.1665  0.1147 -3.3678
 1334TIP3    H228198   5.878   1.983   7.907 -0.7333 -0.7868  2.2019
 1335TIP3   OH228199   3.545   2.563   8.941 -0.7171 -0.0281 -0.3208
 1335TIP3    H128200   3.578   2.647   8.974  0.0420 -0.3001 -0.3886
 1335TIP3    H228201   3.565   2.565   8.848  0.3363 -0.7648 -0.1220
 1336TIP3   OH228202   3.490   5.375   9.385  0.4462  0.4726  0.4981
 1336TIP3    H128203   3.573   5.385   9.430  1.0481 -0.7844 -0.2699
 1336TIP3    H228204   3.496   5.290   9.341 -1.8701 -0.4445  1.7637
 1337TIP3   OH228205   3.661   2.896   9.437  0.4424  0.3991  0.0492
 1337TIP3    H128206   3.746   2.859   9.460 -0.8732 -1.6802  2.1360
 1337TIP3    H228207   3.660   2.900   9.342  2.2072 -1.2813 -0.0908
 1338TIP3   OH228208   6.182   5.261   9.628 -0.4526  0.0041 -0.1902
 1338TIP3    H128209   6.116   5.330   9.632  0.3723  0.7957 -0.0543
 1338TIP3    H228210   6.247   5.286   9.694  1.1658  0.4626 -1.8978
 1339TIP3   OH228211   2.252   5.000   8.763  0.4284 -0.1221  0.3973
 1339TIP3    H128212   2.319   4.962   8.706  0.6107 -0.3121  0.7299
 1339TIP3    H228213   2.299   5.021   8.844  0.0837 -0.2684  0.6375
 1340TIP3   OH228214   5.604   2.270   8.808 -0.5345 -0.2452  0.3213
 1340TIP3    H128215   5.638   2.207   8.872 -1.3302  0.3472  1.3399
 1340TIP3    H228216   5.533   2.224   8.764  0.1588 -0.7322 -0.3102
 1341TIP3   OH228217   2.832   0.103   8.490  0.5157 -0.9183 -0.0400
 1341TIP3    H128218   2.839   0.051   8.410  1.6012  0.2284 -0.7303
 1341TIP3    H228219   2.864   0.045   8.559  1.7683 -1.1702 -0.8053
 1342TIP3   OH228220   5.106   5.803   8.189 -0.4561 -0.0252 -0.3124
 1342TIP3    H128221   5.115   5.735   8.255 -4.6045 -1.3898 -0.8929
 1342TIP3    H228222   5.133   5.761   8.107 -0.1027  0.0442 -0.2332
 1343TIP3   OH228223   5.498   3.892   8.960 -0.0465  0.3764  0.2328
 1343TIP3    H128224   5.447   3.973   8.962 -2.1423 -0.6865 -2.5667
 1343TIP3    H228225   5.554   3.901   8.883 -0.0534 -0.6867  0.0901
 1344TIP3   OH228226   0.971   3.530   7.625 -0.0540  0.1099 -0.5675
 1344TIP3    H128227   0.942   3.476   7.699  0.8445 -0.1740 -0.4035
 1344TIP3    H228228   0.991   3.467   7.556  0.2805  0.2823 -0.6304
 1345TIP3   OH228229   3.484   6.904   9.021 -0.4684  0.0564  0.5381
 1345TIP3    H128230   3.429   6.860   8.956  0.4418  0.2603 -0.4026
 1345TIP3    H228231   3.465   6.859   9.103  0.4977 -2.2161 -0.3995
 1346TIP3   OH228232   2.906   6.703   8.603 -0.5479  0.2185 -0.3556
 1346TIP3    H128233   2.974   6.735   8.662 -0.4893  1.1061 -0.9019
 1346TIP3    H228234   2.886   6.615   8.636  0.8177 -0.0398 -0.1552
 1347TIP3   OH228235   2.529   3.803   9.042  0.5285  0.1161 -0.3400
 1347TIP3    H128236   2.504   3.737   8.977  0.1512 -1.1874  1.0936
 1347TIP3    H228237   2.525   3.886   8.994  0.5924 -0.8384 -2.0663
 1348TIP3   OH228238   7.421   7.030   9.059  0.7584  0.2177 -0.3148
 1348TIP3    H128239   7.365   7.060   8.988  0.4392  2.1050  0.6658
 1348TIP3    H228240   7.388   6.942   9.080 -1.9194  1.2543  0.2447
 1349TIP3   OH228241   1.816   5.024   8.840  0.4621  0.5077 -0.2215
 1349TIP3    H128242   1.840   5.082   8.912  0.2186  1.4042 -0.8516
 1349TIP3    H228243   1.836   5.074   8.761 -0.1676 -0.0964 -0.7750
 1350TIP3   OH228244   5.965   3.019   8.787  0.0087  0.0571  0.2218
 1350TIP3    H128245   5.872   2.997   8.792  0.5118 -2.0676  1.2818
 1350TIP3    H228246   5.973   3.070   8.706 -2.0082  0.0261 -0.0442
 1351TIP3   OH228247   1.610   4.076   9.537 -0.4802 -0.2005  0.2741
 1351TIP3    H128248   1.528   4.079   9.488  0.0961  0.2227 -0.6834
 1351TIP3    H228249   1.672   4.128   9.486 -0.0052  0.7674  1.7446
 1352TIP3   OH228250   0.753   5.702   8.610 -0.1593 -0.1498 -0.0419
 1352TIP3    H128251   0.725   5.655   8.532  0.2389 -0.5252  0.0387
 1352TIP3    H228252   0.702   5.662   8.681 -0.9558  0.5856 -0.1790
 1353TIP3   OH228253   1.650   7.382   8.024  0.0057 -0.4538  0.0953
 1353TIP3    H128254   1.578   7.428   8.066  1.1084 -0.7007  2.3974
 1353TIP3    H228255   1.611   7.302   7.988 -1.2077  0.4053 -0.5512
 1354TIP3   OH228256   1.104   5.248   7.141  0.2107 -0.4701  0.2352
 1354TIP3    H128257   1.157   5.305   7.084 -1.1587  1.7756  1.0683
 1354TIP3    H228258   1.140   5.161   7.128  2.7627  0.6384 -0.7577
 1355TIP3   OH228259   6.408   0.940   7.842  0.0929 -1.0028  0.0792
 1355TIP3    H128260   6.456   0.905   7.767  0.9148 -0.7661  0.4806
 1355TIP3    H228261   6.402   0.866   7.903  0.8057 -0.7838  0.4321
 1356TIP3   OH228262   1.400   6.694   9.037 -0.5608  0.2857 -0.2742
 1356TIP3    H128263   1.488   6.664   9.059  0.3376  2.9005  0.0023
 1356TIP3    H228264   1.345   6.663   9.109 -0.1758 -2.3631 -1.0070
 1357TIP3   OH228265   1.516   7.497   9.531  0.2352  0.4521 -0.4811
 1357TIP3    H128266   1.587   7.438   9.506 -0.3980 -0.4189 -0.2730
 1357TIP3    H228267   1.460   7.502   9.454  0.1146  0.5134 -0.3899
 1358TIP3   OH228268   3.620   7.348   6.924 -0.0798  0.4641  0.1457
 1358TIP3    H128269   3.642   7.441   6.929  3.3636 -0.2570  1.5469
 1358TIP3    H228270   3.671   7.316   6.849 -0.3043 -0.5115  0.3978
 1359TIP3   OH228271   2.172   4.182   9.502  0.1999  0.1424  0.1187
 1359TIP3    H128272   2.099   4.244   9.505  0.6054  0.6841 -0.6869
 1359TIP3    H228273   2.151   4.125   9.428 -0.2068 -0.7470  0.8988
 1360TIP3   OH228274   4.659   5.508   9.023  0.0692 -0.2967  0.3282
 1360TIP3    H128275   4.746   5.471   9.013  0.5100  0.8288 -0.2365
 1360TIP3    H228276   4.622   5.508   8.935  0.1433  0.6991  0.2803
 1361TIP3   OH228277   6.071   4.788   7.710  0.2162  0.6637 -0.1653
 1361TIP3    H128278   6.141   4.845   7.739 -0.8880  1.0287  1.9397
 1361TIP3    H228279   6.024   4.840   7.644  1.3912  0.7089 -1.0077
 1362TIP3   OH228280   6.648   4.265   8.616 -0.2214 -0.1502 -0.2270
 1362TIP3    H128281   6.728   4.235   8.573  0.0530 -0.0759  0.2230
 1362TIP3    H228282   6.679   4.309   8.696 -0.7783 -1.8495  0.9891
 1363TIP3   OH228283   6.298   4.810   7.334  0.1962  0.4815  0.1876
 1363TIP3    H128284   6.239   4.764   7.395  0.7384 -0.1794  0.2335
 1363TIP3    H228285   6.333   4.882   7.385  1.1720 -0.4659  0.9078
 1364TIP3   OH228286   0.232   4.893   7.170  0.1517 -0.3982 -0.5611
 1364TIP3    H128287   0.203   4.824   7.230  1.8459 -0.9855 -0.3535
 1364TIP3    H228288   0.272   4.846   7.097 -0.3696  0.3522 -1.3550
 1365TIP3   OH228289   1.753   0.238   9.578 -0.5086  0.2106 -0.2105
 1365TIP3    H128290   1.688   0.296   9.539 -1.0787 -0.4395 -0.2520
 1365TIP3    H228291   1.702   0.181   9.636 -0.0469 -0.6412 -0.6295
 1366TIP3   OH228292   3.471   3.661   6.823  0.0995 -0.1157  0.2445
 1366TIP3    H128293   3.375   3.654   6.825  0.0798  0.2156  0.4971
 1366TIP3    H228294   3.501   3.571   6.815 -0.2074 -0.3132  1.2760
 1367TIP3   OH228295   6.304   6.066   6.639  0.1868  0.2190  0.0582
 1367TIP3    H128296   6.213   6.040   6.651  0.5159 -0.6780  0.6903
 1367TIP3    H228297   6.351   5.983   6.624  0.6829  0.7798 -1.7956
 1368TIP3   OH228298   2.494   2.095   7.950 -0.8222 -0.3074  0.0812
 1368TIP3    H128299   2.563   2.029   7.948 -0.8723 -0.3467 -0.6089
 1368TIP3    H228300   2.519   2.154   8.021  1.5294  1.3877 -1.9555
 1369TIP3   OH228301   0.063   7.338   9.257 -0.0854  0.2771 -0.1811
 1369TIP3    H128302   0.057   7.271   9.188  0.8948  0.4853 -0.4940
 1369TIP3    H228303   0.145   7.384   9.237 -1.1930  2.1778 -0.4959
 1370TIP3   OH228304   5.557   5.585   6.450 -0.4808 -0.6340  0.3176
 1370TIP3    H128305   5.582   5.535   6.527  0.8322 -0.2396  0.1717
 1370TIP3    H228306   5.542   5.674   6.483 -1.8504 -0.8881  0.4205
 1371TIP3   OH228307   5.739   5.750   8.358  0.6157  0.4644 -0.3526
 1371TIP3    H128308   5.790   5.670   8.343  0.3487 -0.0416  1.1862
 1371TIP3    H228309   5.669   5.747   8.293 -1.3360 -2.3119  1.6211
 1372TIP3   OH228310   0.617   1.432   8.395 -0.8407 -0.0866 -0.3687
 1372TIP3    H128311   0.631   1.522   8.364 -0.7862  0.3613  0.8941
 1372TIP3    H228312   0.586   1.442   8.485 -2.2010 -1.3040 -0.6593
 1373TIP3   OH228313   1.493   2.514   9.295 -0.1284  0.2743  0.2952
 1373TIP3    H128314   1.432   2.457   9.248  0.0780  0.4022 -0.1339
 1373TIP3    H228315   1.492   2.481   9.385  0.8316 -1.1208 -0.1857
 1374TIP3   OH228316   4.443   0.681   9.156  0.4205  0.9128 -0.4904
 1374TIP3    H128317   4.507   0.699   9.225 -0.3678  0.1101  0.4881
 1374TIP3    H228318   4.401   0.600   9.183  0.9714 -0.1499 -2.6125
 1375TIP3   OH228319   1.534   4.595   9.307 -0.0405  0.1965  0.6242
 1375TIP3    H128320   1.616   4.553   9.282  0.0372  0.8217 -0.2073
 1375TIP3    H228321   1.545   4.615   9.400 -0.3483 -2.1910  1.2410
 1376TIP3   OH228322   1.490   0.013   8.531  0.1623 -0.2021 -0.3056
 1376TIP3    H128323   1.581   0.021   8.504 -0.1730 -0.0917 -1.4695
 1376TIP3    H228324   1.469  -0.080   8.518 -0.3706  0.0925 -1.7188
 1377TIP3   OH228325   5.202   1.113   8.355  0.2864  0.2657 -0.0415
 1377TIP3    H128326   5.265   1.118   8.283 -0.1625  2.0171 -0.3648
 1377TIP3    H228327   5.227   1.035   8.404  2.6470  0.8549 -0.2022
 1378TIP3   OH228328   2.615   3.175   8.497 -0.1243 -0.0519  0.2481
 1378TIP3    H128329   2.579   3.087   8.482  0.1835 -0.4176  1.5083
 1378TIP3    H228330   2.686   3.160   8.559 -0.5274  1.1862  1.0248
 1379TIP3   OH228331   3.104   4.516   8.357  0.0162 -0.2810  0.1922
 1379TIP3    H128332   3.129   4.456   8.427 -0.4368 -0.2986  0.3363
 1379TIP3    H228333   3.041   4.466   8.304 -2.0409  0.7814  1.5198
 1380TIP3   OH228334   6.123   5.389   8.648  0.2320  0.2440 -0.4269
 1380TIP3    H128335   6.089   5.371   8.735  1.5555  0.7357  0.2208
 1380TIP3    H228336   6.070   5.463   8.617  0.7151  1.0205  0.5678
 1381TIP3   OH228337   1.303   6.283   8.283  0.1895  0.2096 -0.0183
 1381TIP3    H128338   1.363   6.298   8.211  0.6761 -0.2530  0.2844
 1381TIP3    H228339   1.220   6.322   8.254  1.1821  2.9408  0.4828
 1382TIP3   OH228340   6.989   0.667   7.631 -0.2001  0.1816  0.3552
 1382TIP3    H128341   6.894   0.674   7.625 -0.1178  1.3476  0.0549
 1382TIP3    H228342   7.021   0.756   7.610  0.9276 -0.0735  0.9036
 1383TIP3   OH228343   3.547   5.887   9.312 -0.5314 -0.4474  0.3470
 1383TIP3    H128344   3.477   5.849   9.258 -0.7609 -0.1387  0.4245
 1383TIP3    H228345   3.541   5.839   9.395  1.3564 -2.6150 -0.6596
 1384TIP3   OH228346   3.468   3.862   7.200  0.0539  0.1522 -0.2782
 1384TIP3    H128347   3.406   3.806   7.153  0.2901 -1.3625  1.1508
 1384TIP3    H228348   3.549   3.812   7.203  0.3856  0.7100  0.7363
 1385TIP3   OH228349   3.606   1.318   8.092  0.1091 -0.5775 -0.2952
 1385TIP3    H128350   3.560   1.345   8.012 -1.3924 -2.1089 -0.0095
 1385TIP3    H228351   3.614   1.399   8.143 -0.8514  0.0316 -1.0678
 1386TIP3   OH228352   2.666   1.373   7.352 -0.0517 -0.3259  0.1693
 1386TIP3    H128353   2.743   1.409   7.309 -0.9113  2.5370  0.8578
 1386TIP3    H228354   2.606   1.447   7.361 -1.9997 -1.9691  1.6373
 1387TIP3   OH228355   5.014   4.080   7.548  0.4512  0.3064  0.0161
 1387TIP3    H128356   4.967   3.998   7.564  0.4583  0.1441 -0.7357
 1387TIP3    H228357   5.105   4.054   7.539  0.4868  0.4305  0.0244
 1388TIP3   OH228358   2.480   1.292   7.882 -0.1739 -0.3610 -0.2920
 1388TIP3    H128359   2.529   1.270   7.804 -0.1620 -1.1852 -0.0615
 1388TIP3    H228360   2.449   1.208   7.916  1.9578 -0.3157  1.9984
 1389TIP3   OH228361   5.020   0.967   8.200 -0.2407 -0.1845  0.0391
 1389TIP3    H128362   5.084   0.914   8.153 -0.0436 -0.8023  0.9746
 1389TIP3    H228363   5.070   1.043   8.231 -0.0795 -0.4046  0.3208
 1390TIP3   OH228364   4.637   7.447   7.407 -0.4151  0.4770  0.2598
 1390TIP3    H128365   4.621   7.424   7.316 -0.9749  2.6845 -0.2575
 1390TIP3    H228366   4.551   7.440   7.449 -0.3446  0.4172  0.3984
 1391TIP3   OH228367   2.034   6.696   7.555 -0.1755  0.9912  0.5904
 1391TIP3    H128368   2.060   6.774   7.603 -0.2336  0.3334  1.7138
 1391TIP3    H228369   2.042   6.721   7.463  0.1302  2.2057  0.9307
 1392TIP3   OH228370   2.690   4.797   8.741 -0.1385  0.5902  0.0133
 1392TIP3    H128371   2.660   4.708   8.758 -1.1953  1.2985  2.1381
 1392TIP3    H228372   2.706   4.799   8.646  3.4852 -2.8896  0.2604
 1393TIP3   OH228373   4.891   5.487   7.925 -0.1534  0.4813 -0.0234
 1393TIP3    H128374   4.975   5.525   7.947 -0.6244  1.8281 -0.4720
 1393TIP3    H228375   4.831   5.561   7.921 -1.4826 -0.4985  0.8210
 1394TIP3   OH228376   4.779   1.864   6.809 -0.2305 -0.2778 -0.2583
 1394TIP3    H128377   4.791   1.784   6.862  1.5949  1.3189  1.9886
 1394TIP3    H228378   4.867   1.901   6.804 -1.0546  1.6586 -1.1291
 1395TIP3   OH228379   5.953   5.537   7.553 -0.0836 -0.3517  0.3011
 1395TIP3    H128380   6.029   5.483   7.533 -0.8457 -1.0796 -0.7499
 1395TIP3    H228381   5.982   5.627   7.535  0.3274 -0.6846 -0.7523
 1396TIP3   OH228382   1.964   3.492   8.023 -0.2810  0.2024 -0.1773
 1396TIP3    H128383   1.887   3.467   7.971 -1.2685 -0.0243  1.3208
 1396TIP3    H228384   1.927   3.542   8.096  1.2497  2.3963 -0.8145
 1397TIP3   OH228385   1.395   2.028   9.323  0.4715  0.1798  0.0883
 1397TIP3    H128386   1.404   2.004   9.231 -1.3757  1.3064 -0.4206
 1397TIP3    H228387   1.323   2.091   9.325 -1.5393 -1.9609  2.6639
 1398TIP3   OH228388   1.082   2.451   9.011  0.4190 -0.2785 -0.2603
 1398TIP3    H128389   1.175   2.431   9.020  0.3218 -1.1232 -0.8947
 1398TIP3    H228390   1.039   2.365   9.011 -0.1302 -0.0615 -2.1365
 1399TIP3   OH228391   1.351   2.715   8.822  0.2321  0.0430  0.1938
 1399TIP3    H128392   1.298   2.640   8.794 -0.4827  0.2403  0.9771
 1399TIP3    H228393   1.296   2.760   8.887  0.3307  1.6762 -0.8014
 1400TIP3   OH228394   3.266   0.061   7.683  0.2196  0.4765  0.2796
 1400TIP3    H128395   3.252   0.125   7.614  1.1266 -0.2047 -0.5718
 1400TIP3    H228396   3.221  -0.018   7.652 -0.4364  0.5352  1.0632
 1401TIP3   OH228397   1.620   3.679   7.504 -0.0646  0.7318 -0.2175
 1401TIP3    H128398   1.656   3.727   7.430  1.1113  1.9443  1.0655
 1401TIP3    H228399   1.683   3.693   7.575 -0.1940 -1.8905  0.5365
 1402TIP3   OH228400   2.036   2.075   9.110 -0.0341  0.1521 -0.1474
 1402TIP3    H128401   1.966   2.070   9.045  0.2626  0.9307 -0.5329
 1402TIP3    H228402   2.047   2.168   9.128  0.6780  0.0182  0.1567
 1403TIP3   OH228403   4.637   2.482   9.515 -0.7923  0.6321  0.0369
 1403TIP3    H128404   4.605   2.507   9.602  0.2371  1.9955  0.0436
 1403TIP3    H228405   4.615   2.389   9.508 -0.7398  0.4519  1.8147
 1404TIP3   OH228406   0.603   3.550   9.006 -0.3675 -0.0595  0.1566
 1404TIP3    H128407   0.525   3.592   8.971 -0.2088  0.1098  0.0021
 1404TIP3    H228408   0.570   3.475   9.056 -0.5916 -0.4494 -0.5616
 1405TIP3   OH228409   5.410   2.686   8.381  0.4379  0.3223 -0.1080
 1405TIP3    H128410   5.426   2.712   8.472  2.1203 -1.8870  0.3259
 1405TIP3    H228411   5.496   2.659   8.348 -0.1246  1.0742 -2.3973
 1406TIP3   OH228412   2.785   1.965   7.931 -0.6393  0.3483 -0.1482
 1406TIP3    H128413   2.846   1.891   7.942 -1.3459 -0.0808  1.0008
 1406TIP3    H228414   2.730   1.940   7.857 -0.3711  0.0774 -0.2580
 1407TIP3   OH228415   3.376   5.104   7.824  0.3165  0.0443 -0.3107
 1407TIP3    H128416   3.368   5.044   7.751 -1.8118  1.3462 -1.2497
 1407TIP3    H228417   3.342   5.187   7.791  0.2074  0.9421  1.8577
 1408TIP3   OH228418   4.285   0.619   7.848 -0.1673 -0.5024 -0.6684
 1408TIP3    H128419   4.370   0.576   7.843  0.3748  0.6125 -1.6657
 1408TIP3    H228420   4.269   0.651   7.759 -0.0950  2.0973  0.1457
 1409TIP3   OH228421   7.348   6.895   6.899 -0.2824  0.7393 -0.1053
 1409TIP3    H128422   7.279   6.867   6.838 -0.6058  0.0029  0.5772
 1409TIP3    H228423   7.352   6.990   6.888 -1.5603  0.8316 -0.0087
 1410TIP3   OH228424   6.483   6.079   9.488  0.1552 -0.0997  0.5236
 1410TIP3    H128425   6.388   6.082   9.476  0.3207 -1.2968 -1.3076
 1410TIP3    H228426   6.519   6.105   9.403  1.4868  0.7535  1.3156
 1411TIP3   OH228427   1.573   5.609   9.357  0.8993  0.2798 -0.0165
 1411TIP3    H128428   1.547   5.666   9.284  0.1831  0.6055  0.4876
 1411TIP3    H228429   1.491   5.587   9.401  1.4095  0.9050  1.3032
 1412TIP3   OH228430   2.529   1.451   8.322  0.1858 -0.0778  0.2733
 1412TIP3    H128431   2.448   1.468   8.275 -1.3393 -0.3117  2.6635
 1412TIP3    H228432   2.539   1.356   8.320 -1.2049 -0.3385  2.3234
 1413TIP3   OH228433   5.613   7.468   8.124 -0.3162  0.1288 -0.2105
 1413TIP3    H128434   5.620   7.388   8.176  0.5594 -0.1821 -0.7837
 1413TIP3    H228435   5.600   7.538   8.189 -3.9889 -0.7192  0.1965
 1414TIP3   OH228436   5.644   5.185   8.608 -0.4761  0.3752 -0.3504
 1414TIP3    H128437   5.696   5.141   8.541 -0.1944 -0.8037  0.6066
 1414TIP3    H228438   5.555   5.155   8.594 -0.3223 -0.3356  0.1546
 1415TIP3   OH228439   4.653   4.938   8.380  0.0226 -0.5730  0.0232
 1415TIP3    H128440   4.605   4.856   8.366  0.6612 -0.8690 -0.4978
 1415TIP3    H228441   4.744   4.917   8.356  0.2108  0.2619 -0.0278
 1416TIP3   OH228442   1.055   6.383   8.217 -0.0190  0.0937 -0.2636
 1416TIP3    H128443   1.011   6.312   8.170  1.8302 -1.4099  0.1530
 1416TIP3    H228444   1.064   6.452   8.152 -0.8961 -0.4687 -1.0112
 1417TIP3   OH228445   3.152   7.164   7.649  0.2141  0.0310 -0.3022
 1417TIP3    H128446   3.101   7.145   7.728  1.6327  0.2403  0.7134
 1417TIP3    H228447   3.090   7.205   7.589 -1.0142 -0.5676  0.5123
 1418TIP3   OH228448   3.132   6.850   7.737  0.6348 -0.3608  0.3269
 1418TIP3    H128449   3.169   6.799   7.665 -2.2863 -2.1381 -0.0801
 1418TIP3    H228450   3.062   6.901   7.696  0.9896  1.0569  1.4191
 1419TIP3   OH228451   5.366   4.699   9.499  0.0813 -0.0239  0.1550
 1419TIP3    H128452   5.347   4.611   9.466  0.8589 -0.1972  0.1324
 1419TIP3    H228453   5.434   4.685   9.565  0.8451  0.6422 -0.4682
 1420TIP3   OH228454   6.158   2.407   6.812  0.0490 -0.4949  0.3002
 1420TIP3    H128455   6.089   2.403   6.745 -0.2472  0.2519  0.5485
 1420TIP3    H228456   6.167   2.501   6.831  0.8899 -0.6204  0.5269
 1421TIP3   OH228457   1.131   7.300   8.350 -0.0131  0.4081  0.3441
 1421TIP3    H128458   1.089   7.223   8.389 -0.9311  0.7951  0.1406
 1421TIP3    H228459   1.124   7.368   8.417 -1.8699  1.1627 -0.5615
 1422TIP3   OH228460   5.652   5.718   7.608  0.7644 -0.2818  0.1146
 1422TIP3    H128461   5.604   5.736   7.528  0.9979  1.4444  0.3223
 1422TIP3    H228462   5.585   5.696   7.672  0.4295  0.0741 -0.1144
 1423TIP3   OH228463   2.947   4.669   7.217  0.5849  0.2782 -0.0769
 1423TIP3    H128464   3.008   4.685   7.289 -1.3916  2.0201  1.3283
 1423TIP3    H228465   2.948   4.751   7.167  1.4383 -0.6834 -1.7293
 1424TIP3   OH228466   4.249   2.462   8.582  0.4213  0.5293 -0.6507
 1424TIP3    H128467   4.203   2.394   8.632 -0.4861  1.2032 -0.5329
 1424TIP3    H228468   4.328   2.480   8.634 -0.4401  1.1215  0.5005
 1425TIP3   OH228469   6.231   2.349   8.839  0.5587 -0.0058 -0.3209
 1425TIP3    H128470   6.263   2.332   8.751 -1.0371 -1.3011 -0.7010
 1425TIP3    H228471   6.143   2.385   8.827  0.5818  0.4600  0.7358
 1426TIP3   OH228472   4.491   2.562   8.688 -0.1378  0.1891  0.0667
 1426TIP3    H128473   4.443   2.607   8.758  1.4391  1.6833  0.2555
 1426TIP3    H228474   4.583   2.573   8.712  0.3743 -1.0847 -1.1806
 1427TIP3   OH228475   1.530   1.617   7.006 -0.2705  0.3252 -0.3903
 1427TIP3    H128476   1.619   1.582   7.010 -0.5479 -0.2689  0.9579
 1427TIP3    H228477   1.491   1.570   6.932  0.0002 -0.7465  0.1148
 1428TIP3   OH228478   2.672   4.167   8.220  0.2736  0.1423  0.2135
 1428TIP3    H128479   2.671   4.085   8.269  1.3135 -0.3382 -0.5471
 1428TIP3    H228480   2.635   4.231   8.281 -0.3031 -0.8283  0.9081
 1429TIP3   OH228481   2.271   2.952   9.338 -0.5065  0.1482 -0.2387
 1429TIP3    H128482   2.327   2.919   9.408  0.1491  2.0050  0.1650
 1429TIP3    H228483   2.201   3.000   9.383 -1.8067 -1.1542 -0.7794
 1430TIP3   OH228484   2.184   0.044   9.179 -0.9065  0.3700 -0.0396
 1430TIP3    H128485   2.137   0.065   9.098  0.3192  1.8701 -0.4213
 1430TIP3    H228486   2.271   0.017   9.149 -1.5999 -2.9531  0.6020
 1431TIP3   OH228487   2.978   0.414   9.082  0.0682 -0.1909  0.3141
 1431TIP3    H128488   2.987   0.484   9.147 -0.1697  0.1827 -0.0507
 1431TIP3    H228489   2.998   0.456   8.999 -0.8898 -0.3518 -0.0079
 1432TIP3   OH228490   1.455   3.026   9.034 -0.3314 -0.0612 -0.6204
 1432TIP3    H128491   1.494   2.942   9.054  1.5943  0.9048 -0.0835
 1432TIP3    H228492   1.495   3.087   9.096 -1.3684  1.3313 -1.2511
 1433TIP3   OH228493   5.790   4.394   7.657 -0.8736  0.1707  0.0232
 1433TIP3    H128494   5.824   4.470   7.610  0.1629  0.0661  0.5784
 1433TIP3    H228495   5.843   4.321   7.626  0.4757  0.2485  2.0085
 1434TIP3   OH228496   4.335   7.123   9.083  0.0397  0.6799  0.2034
 1434TIP3    H128497   4.418   7.150   9.044  1.3548 -1.4169  1.3802
 1434TIP3    H228498   4.360   7.070   9.159 -2.3709 -0.6474  0.1656
 1435TIP3   OH228499   1.389   0.184   7.556  0.2549 -0.2984  0.1041
 1435TIP3    H128500   1.411   0.099   7.595 -0.3236  0.1046  1.3658
 1435TIP3    H228501   1.305   0.169   7.512  0.1439 -0.3807  0.3414
 1436TIP3   OH228502   2.853   2.535   8.479 -0.3142 -0.2658 -0.1506
 1436TIP3    H128503   2.802   2.516   8.557  1.6874  1.1320  1.6355
 1436TIP3    H228504   2.912   2.460   8.470  0.9214  0.5072  1.0518
 1437TIP3   OH228505   1.320   4.224   7.204  0.3201  0.6437 -0.1796
 1437TIP3    H128506   1.381   4.155   7.177  0.2668  0.2473  0.6935
 1437TIP3    H228507   1.326   4.290   7.134 -0.1827 -0.5696 -1.4235
 1438TIP3   OH228508   3.332   6.744   8.733 -0.4182 -0.6053  0.1172
 1438TIP3    H128509   3.353   6.698   8.651 -1.8865 -0.7020 -0.2534
 1438TIP3    H228510   3.345   6.837   8.712 -0.3526 -0.6596 -0.0883
 1439TIP3   OH228511   1.697   2.119   7.084  0.5070  0.2231  0.0965
 1439TIP3    H128512   1.757   2.070   7.028 -0.7074  1.0723 -2.0935
 1439TIP3    H228513   1.753   2.170   7.142  1.8012 -2.0190  0.9140
 1440TIP3   OH228514   7.153   7.487   7.156 -0.4985 -0.3797  0.0553
 1440TIP3    H128515   7.089   7.421   7.185 -0.8717 -1.0175 -2.0378
 1440TIP3    H228516   7.232   7.437   7.136  0.3744  0.2851  1.6781
 1441TIP3   OH228517   5.365   0.570   7.814 -0.2859 -0.4436  0.5694
 1441TIP3    H128518   5.387   0.563   7.722 -2.2468 -0.4830  0.0493
 1441TIP3    H228519   5.358   0.665   7.830  2.6918 -0.2767  1.4292
 1442TIP3   OH228520   3.292   6.184   9.192 -0.1963  0.1792 -0.0722
 1442TIP3    H128521   3.208   6.139   9.204 -1.0017  1.7315  0.3707
 1442TIP3    H228522   3.356   6.125   9.232 -1.3955  0.0219  1.7490
 1443TIP3   OH228523   5.392   5.064   8.553  0.4849  0.0129  0.0614
 1443TIP3    H128524   5.405   5.040   8.462 -1.2203 -1.8071  0.2083
 1443TIP3    H228525   5.336   4.994   8.588 -0.5622  1.6945  1.9684
 1444TIP3   OH228526   7.274   2.010   8.094  0.2041 -0.6217 -0.7274
 1444TIP3    H128527   7.307   2.096   8.117  0.3347 -0.6755 -0.7132
 1444TIP3    H228528   7.324   1.985   8.016  0.4534 -0.8578 -0.4947
 1445TIP3   OH228529   2.261   5.762   8.079  0.5423 -0.2129 -0.1371
 1445TIP3    H128530   2.237   5.839   8.129 -0.0976 -1.3657  1.4333
 1445TIP3    H228531   2.313   5.795   8.005  0.4672  1.6568  0.6100
 1446TIP3   OH228532   4.202   3.394   7.078  0.1824 -0.7340  0.0235
 1446TIP3    H128533   4.235   3.306   7.060  1.0736 -0.5462  0.6741
 1446TIP3    H228534   4.235   3.414   7.166 -0.8768 -0.1515  0.2922
 1447TIP3   OH228535   4.954   0.331   8.866  0.0005 -0.2823  0.3873
 1447TIP3    H128536   4.882   0.285   8.909 -0.2161  0.6957  1.1229
 1447TIP3    H228537   5.033   0.296   8.907 -0.0479 -1.2780 -0.3411
 1448TIP3   OH228538   0.923   3.953   8.294 -0.5189  0.4716 -0.6307
 1448TIP3    H128539   0.944   4.014   8.224  1.4288  1.1174  0.4555
 1448TIP3    H228540   0.951   3.868   8.260 -2.0136  0.3280 -1.6171
 1449TIP3   OH228541   2.689   1.036   8.768 -0.4640 -0.3805  0.2829
 1449TIP3    H128542   2.699   1.010   8.859  0.2230 -2.2337 -0.2756
 1449TIP3    H228543   2.763   0.995   8.723 -1.5007 -0.5943 -1.3198
 1450TIP3   OH228544   0.767   4.111   8.662 -0.3755 -0.0634 -0.1344
 1450TIP3    H128545   0.835   4.053   8.698 -1.8582 -1.0758  1.2048
 1450TIP3    H228546   0.815   4.187   8.630  1.3234 -0.2495  1.7134
 1451TIP3   OH228547   0.299   3.337   9.144  0.6228  0.1548  0.2886
 1451TIP3    H128548   0.388   3.305   9.136  0.3927 -1.1053  2.1459
 1451TIP3    H228549   0.308   3.430   9.163  1.5362  0.0631  0.3345
 1452TIP3   OH228550   2.368   2.944   7.592  0.0381 -0.1316  0.1488
 1452TIP3    H128551   2.434   2.966   7.657  0.2394 -0.5610  0.0971
 1452TIP3    H228552   2.416   2.940   7.509 -0.1336 -0.0157  0.0434
 1453TIP3   OH228553   2.392   0.308   8.094 -0.0807  0.4997 -0.0550
 1453TIP3    H128554   2.372   0.222   8.056  0.1959 -0.0196  0.9306
 1453TIP3    H228555   2.469   0.292   8.148 -0.8191  1.0784  1.1918
 1454TIP3   OH228556   7.237   4.891   6.951  0.4170  0.0112 -0.0512
 1454TIP3    H128557   7.164   4.916   6.893  0.8970  0.5286 -0.4511
 1454TIP3    H228558   7.281   4.821   6.904 -0.1301 -0.6729  0.4412
 1455TIP3   OH228559   2.275   1.463   9.074  0.5908  0.3720  0.1012
 1455TIP3    H128560   2.210   1.508   9.127  0.1842  0.0357 -0.1036
 1455TIP3    H228561   2.299   1.386   9.126  0.1110 -0.0168 -0.2425
 1456TIP3   OH228562   2.926   0.074   7.436  0.4007 -0.0473  0.2315
 1456TIP3    H128563   3.016   0.056   7.464  0.8165  0.6355 -0.6120
 1456TIP3    H228564   2.933   0.155   7.384 -0.9461  0.9331  1.5091
 1457TIP3   OH228565   7.269   1.909   7.467 -0.4412  0.1939 -0.3839
 1457TIP3    H128566   7.322   1.985   7.490 -2.0758  0.9669  1.1671
 1457TIP3    H228567   7.272   1.905   7.372  2.3139  0.1837 -0.3835
 1458TIP3   OH228568   5.871   2.073   7.302  0.4807  0.5183 -0.5853
 1458TIP3    H128569   5.834   2.034   7.382 -0.8746  1.2337 -0.8235
 1458TIP3    H228570   5.805   2.137   7.274 -0.2478 -1.3220 -3.5726
 1459TIP3   OH228571   4.552   0.434   9.350 -0.4920  0.2104  0.0333
 1459TIP3    H128572   4.537   0.356   9.403 -2.0019  0.0642 -0.5508
 1459TIP3    H228573   4.578   0.400   9.264  0.9078  0.4184  0.3607
 1460TIP3   OH228574   5.072   5.080   9.502  0.0085 -0.0329  0.0353
 1460TIP3    H128575   5.128   5.135   9.557  0.1866  0.6856 -0.8310
 1460TIP3    H228576   5.133   5.022   9.456  0.1039  0.9679 -1.1509
 1461TIP3   OH228577   5.249   1.389   8.351 -0.3440  0.6082  0.7970
 1461TIP3    H128578   5.253   1.357   8.261 -1.7663  1.0458  0.5606
 1461TIP3    H228579   5.221   1.313   8.402 -0.9065  0.7108  0.6520
 1462TIP3   OH228580   3.760   7.485   8.815  0.1665  0.2923  0.0867
 1462TIP3    H128581   3.734   7.440   8.735  0.7564  1.0480 -0.5585
 1462TIP3    H228582   3.837   7.437   8.846 -0.4305 -0.3751  0.5538
 1463TIP3   OH228583   0.510   4.063   7.280 -0.6396 -0.4754  0.5990
 1463TIP3    H128584   0.551   3.976   7.278  1.1700  0.2956  1.3529
 1463TIP3    H228585   0.582   4.122   7.300 -1.7586  1.2697 -0.3034
 1464TIP3   OH228586   1.899   2.872   9.036  1.0115  0.3065 -0.1725
 1464TIP3    H128587   1.881   2.785   9.072 -0.0744  0.1501 -1.0500
 1464TIP3    H228588   1.868   2.932   9.103  1.3132  0.0246  0.2254
 1465TIP3   OH228589   6.815   4.539   8.759 -0.2989  0.1706  0.3520
 1465TIP3    H128590   6.886   4.487   8.797 -0.6810 -0.3608  0.3607
 1465TIP3    H228591   6.825   4.527   8.664 -1.8262 -1.9515  0.3889
 1466TIP3   OH228592   6.758   3.072   9.258  0.4271  0.0448  0.5329
 1466TIP3    H128593   6.795   3.061   9.345  2.5432 -0.3365 -0.3668
 1466TIP3    H228594   6.665   3.087   9.274  0.8880  0.8715  2.8943
 1467TIP3   OH228595   2.775   4.902   7.207 -0.3360 -0.1922  0.4666
 1467TIP3    H128596   2.790   4.974   7.145 -0.0616  0.7604  1.6102
 1467TIP3    H228597   2.788   4.941   7.293  0.4605 -1.7685  1.1052
 1468TIP3   OH228598   0.804   1.720   7.719  0.1455  0.2440 -0.2602
 1468TIP3    H128599   0.857   1.758   7.788  0.5105 -1.0740  0.1977
 1468TIP3    H228600   0.867   1.681   7.658 -0.2516 -1.1418  0.1794
 1469TIP3   OH228601   5.214   3.396   8.142  0.1206 -0.5085 -1.1019
 1469TIP3    H128602   5.169   3.475   8.110 -1.5064 -0.6309  0.6737
 1469TIP3    H228603   5.263   3.426   8.218 -1.2105 -1.2992  0.1232
 1470TIP3   OH228604   2.577   5.583   9.231  0.3574  0.0812  0.1326
 1470TIP3    H128605   2.660   5.568   9.186  0.6419  1.3971  0.1553
 1470TIP3    H228606   2.599   5.580   9.324  0.3868  0.3984  0.1392
 1471TIP3   OH228607   0.303   0.889   8.833  0.5705  0.1858  0.1788
 1471TIP3    H128608   0.395   0.915   8.826  0.6012 -0.0996 -0.4771
 1471TIP3    H228609   0.255   0.972   8.825  0.7612  0.3116  0.3173
 1472TIP3   OH228610   0.537   5.530   8.481 -0.7141 -0.1021 -0.4826
 1472TIP3    H128611   0.509   5.451   8.527 -2.1290 -0.9796 -2.7371
 1472TIP3    H228612   0.482   5.599   8.518 -1.7732 -0.7714 -0.7517
 1473TIP3   OH228613   6.459   6.073   8.473 -0.5544 -0.0107  0.0683
 1473TIP3    H128614   6.441   5.992   8.426  0.0028 -0.6267  0.8901
 1473TIP3    H228615   6.461   6.140   8.405  1.4785 -1.0498 -0.9743
 1474TIP3   OH228616   2.977   5.702   6.670  0.2893 -0.1312 -0.1217
 1474TIP3    H128617   2.901   5.759   6.661 -0.9232 -1.7168 -0.4240
 1474TIP3    H228618   3.035   5.726   6.598 -1.9492 -1.7762 -2.6825
 1475TIP3   OH228619   2.381   4.763   8.989  0.5687 -0.0867 -0.2542
 1475TIP3    H128620   2.313   4.708   8.949  0.5419 -0.7896  0.7361
 1475TIP3    H228621   2.348   4.852   8.980  1.2496 -0.0236 -3.1756
 1476TIP3   OH228622   6.259   3.004   8.533  0.2266  0.4495  0.0352
 1476TIP3    H128623   6.169   3.036   8.536  0.6809  1.8520 -0.2683
 1476TIP3    H228624   6.279   2.996   8.439  0.2285 -0.4684  0.1025
 1477TIP3   OH228625   6.659   2.422   8.578  0.4764  0.2132 -0.0288
 1477TIP3    H128626   6.610   2.384   8.505 -0.6292  0.2786  0.6467
 1477TIP3    H228627   6.707   2.348   8.616  2.5058  0.4873 -1.8574
 1478TIP3   OH228628   0.652   6.042   8.152  0.4084  0.0191  0.6316
 1478TIP3    H128629   0.599   6.015   8.227  0.6525 -0.2001  0.7252
 1478TIP3    H228630   0.612   5.999   8.077 -0.6697  1.3127  0.4308
 1479TIP3   OH228631   5.956   1.271   8.904 -0.2368  0.4058 -0.3788
 1479TIP3    H128632   6.010   1.349   8.917 -1.1274  0.7830  1.4854
 1479TIP3    H228633   5.866   1.304   8.900 -0.6640 -0.5199  0.8391
 1480TIP3   OH228634   3.468   7.480   8.416  0.7554  0.1253 -0.2937
 1480TIP3    H128635   3.520   7.425   8.475 -0.3700  0.0904  0.6972
 1480TIP3    H228636   3.497   7.454   8.328  0.6869 -1.6360  0.1614
 1481TIP3   OH228637   4.548   1.821   7.673  0.1726 -0.2736  0.1436
 1481TIP3    H128638   4.639   1.837   7.648  0.4029 -2.2386 -0.3857
 1481TIP3    H228639   4.515   1.759   7.608 -1.9327  1.2564 -0.3549
 1482TIP3   OH228640   7.427   2.606   7.678 -0.0674 -0.2688  0.1101
 1482TIP3    H128641   7.385   2.665   7.617 -0.1849 -2.3795 -1.9866
 1482TIP3    H228642   7.355   2.563   7.725 -0.2234 -1.7843 -1.4277
 1483TIP3   OH228643   3.639   6.066   7.813 -0.1026  0.8361  0.1457
 1483TIP3    H128644   3.576   6.010   7.860  0.0549 -0.0154 -0.6347
 1483TIP3    H228645   3.599   6.081   7.728  0.7045  0.3613 -0.3288
 1484TIP3   OH228646   6.104   6.194   7.217 -0.3118  0.1928 -0.3498
 1484TIP3    H128647   6.065   6.271   7.258  1.4911  1.3934 -0.8008
 1484TIP3    H228648   6.138   6.143   7.290  2.1862  1.9402 -0.1694
 1485TIP3   OH228649   1.806   3.015   8.132  0.0920 -0.2556 -0.5427
 1485TIP3    H128650   1.716   2.989   8.115 -0.0369 -0.6391  0.6542
 1485TIP3    H228651   1.856   2.976   8.060 -0.4056 -1.9629 -0.0198
 1486TIP3   OH228652   3.747   4.407   8.613  0.3754  0.2224 -0.3998
 1486TIP3    H128653   3.800   4.332   8.641 -1.7052 -1.2848 -0.2134
 1486TIP3    H228654   3.741   4.398   8.518  0.3531  0.2961 -0.4051
 1487TIP3   OH228655   2.787   3.054   7.206 -0.3316 -0.1860 -0.5998
 1487TIP3    H128656   2.769   3.058   7.112  0.7791 -1.9544 -0.9379
 1487TIP3    H228657   2.835   3.135   7.224 -0.3096  0.0445 -1.6075
 1488TIP3   OH228658   1.056   3.747   9.229 -0.3908 -0.3824  0.1266
 1488TIP3    H128659   1.048   3.698   9.147  0.7659  0.1038 -0.2956
 1488TIP3    H228660   1.128   3.704   9.275  0.5375  0.7918 -0.1788
 1489TIP3   OH228661   5.590   5.747   7.309  0.0178 -0.0474  0.2706
 1489TIP3    H128662   5.682   5.768   7.292  0.0598  0.1080  0.6601
 1489TIP3    H228663   5.562   5.697   7.233  0.6004 -0.6313  0.4253
 1490TIP3   OH228664   7.012   5.589   6.634  0.3374 -0.0266 -0.0422
 1490TIP3    H128665   7.048   5.501   6.632  0.0002 -0.2195  1.2447
 1490TIP3    H228666   6.917   5.576   6.637  0.2010  0.4342 -1.7718
 1491TIP3   OH228667   3.198   6.369   7.679  0.0149 -0.4886  0.5950
 1491TIP3    H128668   3.158   6.431   7.741 -1.9290  0.5827 -1.5720
 1491TIP3    H228669   3.286   6.404   7.664 -1.0493  1.9299 -0.6332
 1492TIP3   OH228670   5.555   4.704   9.686 -0.1863  0.0004 -0.0471
 1492TIP3    H128671   5.572   4.716   9.780 -0.3616  1.8915 -0.2325
 1492TIP3    H228672   5.636   4.730   9.643 -0.2246 -0.5270 -0.4502
 1493TIP3   OH228673   4.119   7.525   8.251  0.2729  0.0185 -0.2682
 1493TIP3    H128674   4.030   7.504   8.223 -0.2354  1.8447 -0.1452
 1493TIP3    H228675   4.173   7.502   8.175 -0.5000  0.3550 -0.9399
 1494TIP3   OH228676   3.648   6.164   9.292  0.7432 -0.0807 -0.1899
 1494TIP3    H128677   3.597   6.086   9.314  0.8304  0.3549  1.7734
 1494TIP3    H228678   3.652   6.164   9.197 -0.0809 -1.9387 -0.2734
 1495TIP3   OH228679   2.704   1.773   8.703  0.0555  0.0263 -0.1963
 1495TIP3    H128680   2.652   1.736   8.632  1.0475  0.0692 -0.9844
 1495TIP3    H228681   2.640   1.809   8.764 -0.8519 -0.8451 -0.6011
 1496TIP3   OH228682   7.668   4.676   8.392 -0.6542  0.0632 -0.1070
 1496TIP3    H128683   7.648   4.589   8.359 -1.8689  0.8109 -1.4632
 1496TIP3    H228684   7.634   4.677   8.481  1.8282 -1.6895  0.9692
 1497TIP3   OH228685   2.494   1.463   7.597  0.0022  0.3646  0.3496
 1497TIP3    H128686   2.588   1.480   7.604  0.0487  0.1189  0.3557
 1497TIP3    H228687   2.485   1.371   7.621 -0.1565  0.1983 -0.3204
 1498TIP3   OH228688   3.998   2.767   8.893 -0.0279 -0.0764 -0.2297
 1498TIP3    H128689   3.977   2.674   8.899 -1.3708  0.2894  1.5915
 1498TIP3    H228690   4.071   2.780   8.954 -0.3454  0.1762  0.1045
 1499TIP3   OH228691   2.812   2.565   8.928 -0.2281 -0.5103 -0.2762
 1499TIP3    H128692   2.717   2.556   8.927 -0.1885 -1.0999 -1.9875
 1499TIP3    H228693   2.827   2.657   8.950 -1.2263 -0.1124 -1.1797
 1500TIP3   OH228694   2.890   1.344   9.082  0.2784  0.8356 -0.0071
 1500TIP3    H128695   2.941   1.424   9.088  0.9833  0.4593 -0.8462
 1500TIP3    H228696   2.896   1.305   9.169  0.4171  1.3960  0.2362
 1501TIP3   OH228697   6.141   1.178   6.565  0.1227  0.5067  0.1116
 1501TIP3    H128698   6.222   1.214   6.602 -0.1925  0.1284  1.2248
 1501TIP3    H228699   6.085   1.162   6.641 -0.8221  0.3245 -0.6025
 1502TIP3   OH228700   6.613   5.860   9.282  0.1517  0.4560 -0.4418
 1502TIP3    H128701   6.655   5.790   9.232  1.3724  1.2950 -0.6402
 1502TIP3    H228702   6.663   5.938   9.261  0.0855  1.0292  1.3291
 1503TIP3   OH228703   2.194   4.343   8.292  0.7238  0.2681  0.7767
 1503TIP3    H128704   2.246   4.419   8.268  0.8139  0.3818  1.3118
 1503TIP3    H228705   2.128   4.337   8.223  0.9883  0.5670  0.4922
 1504TIP3   OH228706   6.025   2.704   8.558  0.0674 -0.2070 -0.1885
 1504TIP3    H128707   6.011   2.617   8.522  0.0787 -0.7549  1.0821
 1504TIP3    H228708   5.937   2.744   8.560  0.2422  0.3429 -2.0138
 1505TIP3   OH228709   6.536   1.964   6.854 -0.0868 -0.6362  0.0734
 1505TIP3    H128710   6.545   2.038   6.913  1.6149  0.6255 -1.6670
 1505TIP3    H228711   6.625   1.931   6.841 -0.4726 -1.2394 -1.3072
 1506TIP3   OH228712   1.680   1.087   9.123 -0.0244 -0.5603  0.4272
 1506TIP3    H128713   1.705   1.167   9.077 -1.6436  0.1468  0.6914
 1506TIP3    H228714   1.607   1.052   9.072 -1.3612 -0.1676  1.9758
 1507TIP3   OH228715   1.726   1.277   8.119  0.1590  0.1541 -0.2665
 1507TIP3    H128716   1.735   1.334   8.043  1.7991  2.0710  1.2525
 1507TIP3    H228717   1.644   1.304   8.160  0.0022  0.1163 -0.5514
 1508TIP3   OH228718   0.758   7.312   7.305  0.0350 -0.0890  0.4010
 1508TIP3    H128719   0.779   7.281   7.217  0.7991  2.9035 -0.6111
 1508TIP3    H228720   0.843   7.338   7.342 -0.6340  2.1701  0.4852
 1509TIP3   OH228721   2.728   2.683   7.945 -0.0401 -0.3587 -0.0175
 1509TIP3    H128722   2.746   2.720   8.032 -1.4236 -0.5492  0.3933
 1509TIP3    H228723   2.633   2.692   7.936  0.0868 -0.3287 -1.5367
 1510TIP3   OH228724   4.991   7.015   8.939 -0.7247  0.2607 -0.2444
 1510TIP3    H128725   5.031   6.976   9.016 -2.4922 -1.7150 -0.2365
 1510TIP3    H228726   5.061   7.067   8.899  1.2638 -1.4679  0.7872
 1511TIP3   OH228727   4.001   2.044   7.653 -0.0700  0.0403  0.0472
 1511TIP3    H128728   4.067   2.090   7.705  0.3703 -1.4741  0.9066
 1511TIP3    H228729   3.937   2.013   7.718 -1.4018  1.0753 -0.7149
 1512TIP3   OH228730   5.011   6.131   8.491 -0.5231 -0.0740 -0.3239
 1512TIP3    H128731   5.024   6.222   8.517  0.3981 -0.8237  2.1266
 1512TIP3    H228732   4.976   6.088   8.570 -1.7571 -1.6908 -1.6667
 1513TIP3   OH228733   4.360   3.664   7.777 -0.2582  0.4489 -0.4438
 1513TIP3    H128734   4.271   3.699   7.785 -0.3033  0.6985 -1.8660
 1513TIP3    H228735   4.359   3.612   7.697 -0.0830 -2.5949  1.3727
 1514TIP3   OH228736   0.091   6.509   9.577  0.5025  0.8534 -0.2345
 1514TIP3    H128737   0.125   6.490   9.490 -0.1892 -0.4035 -0.2694
 1514TIP3    H228738   0.168   6.520   9.632  0.9624  0.2304 -0.7348
 1515TIP3   OH228739   4.227   1.277   7.744  0.2911 -0.4060 -0.3253
 1515TIP3    H128740   4.199   1.203   7.689 -2.3095  1.3403 -1.5621
 1515TIP3    H228741   4.159   1.283   7.811  1.6754 -0.4511  1.1359
 1516TIP3   OH228742   4.964   1.856   8.269 -0.3006 -0.2499  0.2990
 1516TIP3    H128743   4.971   1.951   8.284 -1.1959 -0.3023  1.1638
 1516TIP3    H228744   4.890   1.846   8.209 -0.2124 -0.4073  0.2152
 1517TIP3   OH228745   2.014   6.389   9.098 -0.2176 -0.0214  0.9382
 1517TIP3    H128746   2.076   6.455   9.069 -0.2083 -0.9898 -1.4265
 1517TIP3    H228747   1.942   6.439   9.137  1.0033  1.1972  1.7105
 1518TIP3   OH228748   5.581   1.649   8.950 -0.4138 -0.0605  0.0632
 1518TIP3    H128749   5.485   1.653   8.947 -0.4618  0.5807  1.4692
 1518TIP3    H228750   5.610   1.719   8.891 -0.7036 -2.0557 -2.6345
 1519TIP3   OH228751   6.927   3.845   8.942  0.3085  0.3777  0.3700
 1519TIP3    H128752   6.901   3.849   9.034 -0.4331  0.2955  0.1707
 1519TIP3    H228753   7.018   3.817   8.944 -0.1188 -1.0570  1.0408
 1520TIP3   OH228754   4.107   2.795   7.989  0.0645 -0.1500 -0.4316
 1520TIP3    H128755   4.128   2.778   8.081 -1.8084 -2.5630 -0.3380
 1520TIP3    H228756   4.012   2.810   7.989  0.2572  1.3137 -1.8147
 1521TIP3   OH228757   5.116   7.448   8.983 -0.2946 -0.2223 -0.6148
 1521TIP3    H128758   5.149   7.358   8.983  1.3538  0.2897  1.5649
 1521TIP3    H228759   5.049   7.449   9.053  0.9615  0.5922  0.6291
 1522TIP3   OH228760   3.927   3.551   7.561 -0.0241 -0.4361 -0.1238
 1522TIP3    H128761   4.022   3.561   7.556 -0.0023 -0.7961 -0.4513
 1522TIP3    H228762   3.912   3.457   7.555 -0.6136 -0.2813 -4.3825
 1523TIP3   OH228763   3.020   5.452   7.448  0.0213 -0.2291  0.3114
 1523TIP3    H128764   2.977   5.381   7.400 -2.2226 -0.1413  2.0347
 1523TIP3    H228765   2.966   5.466   7.525  2.7562  0.4977  2.2703
 1524TIP3   OH228766   4.620   5.530   7.318 -0.0275 -0.1198 -0.0899
 1524TIP3    H128767   4.705   5.573   7.313 -0.2977  0.2336 -2.5957
 1524TIP3    H228768   4.567   5.587   7.373  0.3790  1.4699 -1.2945
 1525TIP3   OH228769   4.924   5.751   7.512  0.1268  0.1607 -0.4982
 1525TIP3    H128770   4.888   5.666   7.536 -0.9292  0.4727 -0.8983
 1525TIP3    H228771   4.849   5.811   7.518  0.8168  1.0253 -0.3836
 1526TIP3   OH228772   2.885   6.025   8.433 -0.3047 -0.3952 -0.0080
 1526TIP3    H128773   2.923   6.024   8.345 -0.0771  1.5271  0.0153
 1526TIP3    H228774   2.875   5.933   8.456  0.8575 -0.9418 -1.5138
 1527TIP3   OH228775   0.037   5.059   9.012 -0.1822 -0.7876 -0.1905
 1527TIP3    H128776  -0.010   5.007   9.078  1.6952 -1.6753  0.5166
 1527TIP3    H228777   0.087   5.122   9.063 -0.1451 -0.2425 -0.8883
 1528TIP3   OH228778   6.512   5.590   9.042  0.8094  0.2616  0.4926
 1528TIP3    H128779   6.483   5.674   9.008 -0.8121  0.6930  2.6906
 1528TIP3    H228780   6.452   5.526   9.004 -0.8053  0.7019  2.1636
 1529TIP3   OH228781   5.407   1.813   7.266 -0.1878  0.5237  0.1082
 1529TIP3    H128782   5.450   1.754   7.204 -1.0917  1.4960 -1.5179
 1529TIP3    H228783   5.457   1.895   7.259 -0.6629  0.8261  0.2392
 1530TIP3   OH228784   0.765   5.349   8.407 -0.1033 -0.0160  0.4527
 1530TIP3    H128785   0.805   5.433   8.386 -1.0174  0.1712 -0.6309
 1530TIP3    H228786   0.748   5.354   8.501  1.0568  0.4657  0.6567
 1531TIP3   OH228787   5.668   1.143   7.071 -0.2301 -0.3570 -0.3586
 1531TIP3    H128788   5.577   1.115   7.056  0.0124 -0.0000 -2.9035
 1531TIP3    H228789   5.664   1.238   7.070 -0.1945 -0.2386  2.5438
 1532TIP3   OH228790   5.471   7.578   7.248  0.2098  0.3107 -1.0455
 1532TIP3    H128791   5.470   7.496   7.299  0.1244  0.3645 -0.9613
 1532TIP3    H228792   5.433   7.643   7.307 -1.0025  0.1367 -1.6031
 1533TIP3   OH228793   4.778   6.953   9.469  0.3345 -0.4133 -0.0718
 1533TIP3    H128794   4.866   6.977   9.496 -0.6627  0.8498  2.3378
 1533TIP3    H228795   4.791   6.882   9.406  3.0599  0.2124 -0.3399
 1534TIP3   OH228796   5.200   3.833   9.096  0.4939 -0.0430 -0.6811
 1534TIP3    H128797   5.200   3.875   9.010 -0.6322  2.9947  0.6670
 1534TIP3    H228798   5.268   3.879   9.145 -1.3237  0.8852  1.1184
 1535TIP3   OH228799   2.666   2.670   8.224 -0.2540  0.1704  0.7733
 1535TIP3    H128800   2.714   2.588   8.220  2.1107  1.5001 -1.6622
 1535TIP3    H228801   2.670   2.697   8.315 -1.0113 -2.2908  1.5947
 1536TIP3   OH228802   0.789   2.805   8.130 -0.0531 -0.2586  0.2468
 1536TIP3    H128803   0.878   2.815   8.095  0.0462  0.5510  0.7010
 1536TIP3    H228804   0.798   2.822   8.224 -0.8017  0.5357  0.1863
 1537TIP3   OH228805   3.281   1.035   9.653 -0.0824  0.0415 -0.5012
 1537TIP3    H128806   3.222   1.093   9.701  0.4152 -0.4849  0.7976
 1537TIP3    H228807   3.251   1.039   9.562 -2.4828 -0.6580  0.2010
 1538TIP3   OH228808   4.116   6.275   9.551 -0.0241 -0.2875  0.1911
 1538TIP3    H128809   4.158   6.190   9.564  1.1710 -0.1391 -2.0738
 1538TIP3    H228810   4.030   6.254   9.515 -0.2212 -0.5350  0.7945
 1539TIP3   OH228811   5.680   3.301   8.232 -0.0635  0.1084  0.2063
 1539TIP3    H128812   5.618   3.303   8.305 -0.1615  0.2170  0.1199
 1539TIP3    H228813   5.665   3.217   8.190 -0.9594  0.6005 -0.5079
 1540TIP3   OH228814   3.746   0.768   7.839 -0.3237 -1.0782  0.5625
 1540TIP3    H128815   3.815   0.750   7.903  0.8680  0.0108 -0.3564
 1540TIP3    H228816   3.733   0.863   7.843 -0.3752 -1.0173 -0.6426
 1541TIP3   OH228817   6.920   5.525   8.199  0.1921  0.1504 -0.0075
 1541TIP3    H128818   6.886   5.607   8.235 -0.2719  0.1362 -0.4005
 1541TIP3    H228819   7.013   5.525   8.221  0.0675  0.4948  0.5289
 1542TIP3   OH228820   1.692   5.097   7.116  0.0617  0.4598  0.1635
 1542TIP3    H128821   1.702   5.187   7.148 -1.1515  0.6613  0.0290
 1542TIP3    H228822   1.650   5.107   7.030  2.5809 -0.0989 -1.2424
 1543TIP3   OH228823   6.202   2.176   7.512 -0.0940 -0.1743 -0.0998
 1543TIP3    H128824   6.124   2.229   7.496  0.3253  0.8131  0.9926
 1543TIP3    H228825   6.178   2.089   7.481 -1.6520  0.0921  0.2545
 1544TIP3   OH228826   1.150   0.294   7.278 -0.1051 -0.6209  0.0196
 1544TIP3    H128827   1.091   0.289   7.203  0.2558  0.9842 -0.4162
 1544TIP3    H228828   1.238   0.294   7.239  0.0884  2.9998  0.1041
 1545TIP3   OH228829   1.083   4.773   9.367  0.5163  0.1995 -0.0216
 1545TIP3    H128830   1.137   4.732   9.299  0.9481 -1.5306  1.2941
 1545TIP3    H228831   1.146   4.808   9.430  0.1139  1.0604 -0.0859
 1546TIP3   OH228832   2.683   7.278   7.361  0.8161  0.1629 -0.8282
 1546TIP3    H128833   2.592   7.298   7.338 -0.0796  1.1720  2.8393
 1546TIP3    H228834   2.727   7.362   7.360  0.6547  0.3168  1.0441
 1547TIP3   OH228835   6.630   6.369   8.804  0.1279 -0.5231  0.5229
 1547TIP3    H128836   6.571   6.379   8.729  1.0325 -0.7236 -0.2348
 1547TIP3    H228837   6.713   6.406   8.775  0.6340 -1.0400  1.2522
 1548TIP3   OH228838   6.877   3.138   8.866  0.4793 -0.1921  0.3216
 1548TIP3    H128839   6.965   3.101   8.860 -0.2748 -1.9586 -0.5731
 1548TIP3    H228840   6.823   3.067   8.899 -0.6287  0.8768  0.9022
 1549TIP3   OH228841   7.285   5.793   7.191  0.4626  0.1202  0.2756
 1549TIP3    H128842   7.267   5.861   7.126  0.0771  0.0381  0.2918
 1549TIP3    H228843   7.380   5.789   7.195  0.7128 -2.6148 -3.2540
 1550TIP3   OH228844   3.345   6.746   8.435 -0.3954  0.5107  0.0011
 1550TIP3    H128845   3.389   6.734   8.351 -1.3131  0.1293 -0.4413
 1550TIP3    H228846   3.381   6.676   8.491  0.1101  0.6754 -0.1174
 1551TIP3   OH228847   2.794   3.729   7.416  0.1381  0.1525  0.2661
 1551TIP3    H128848   2.735   3.677   7.361 -0.9255 -0.5514  2.0037
 1551TIP3    H228849   2.785   3.818   7.384 -0.1541 -0.2894 -0.9377
 1552TIP3   OH228850   5.669   6.908   7.146 -0.0491 -0.1473 -0.1112
 1552TIP3    H128851   5.691   6.815   7.140  1.0107  0.0857 -0.0723
 1552TIP3    H228852   5.575   6.909   7.167 -0.3064 -1.1761 -1.1042
 1553TIP3   OH228853   4.930   1.021   7.882 -0.1547 -0.1409 -0.2117
 1553TIP3    H128854   4.878   0.952   7.923 -0.8868  0.2583 -0.4544
 1553TIP3    H228855   4.877   1.100   7.891  1.1297  0.6370  1.0278
 1554TIP3   OH228856   2.163   1.483   7.949  0.0957  0.2418 -0.1126
 1554TIP3    H128857   2.108   1.550   7.908 -2.8001 -1.1321  1.2346
 1554TIP3    H228858   2.150   1.405   7.895 -1.1065 -0.6785  1.4152
 1555TIP3   OH228859   3.832   6.467   9.427  0.4955  0.4115  0.6702
 1555TIP3    H128860   3.741   6.494   9.413  0.4353  0.2647  0.7718
 1555TIP3    H228861   3.825   6.377   9.460  0.6809  0.3704  0.5987
 1556TIP3   OH228862   1.248   1.416   8.646  0.1433 -0.3128 -0.4740
 1556TIP3    H128863   1.332   1.420   8.691 -0.5001  0.6864  0.7216
 1556TIP3    H228864   1.238   1.324   8.621  0.8702 -0.7575  0.7842
 1557TIP3   OH228865   6.822   6.066   8.324  0.2910  0.1189 -0.2247
 1557TIP3    H128866   6.855   6.153   8.304 -0.2242  0.0317 -1.5692
 1557TIP3    H228867   6.898   6.008   8.315  0.5359  0.3695  0.2292
 1558TIP3   OH228868   4.313   7.641   8.594  0.1636  0.2839 -0.0994
 1558TIP3    H128869   4.397   7.643   8.550  1.4783  1.7239  2.2657
 1558TIP3    H228870   4.333   7.660   8.686 -2.6137 -0.5421  0.7912
 1559TIP3   OH228871   5.788   2.701   6.641 -0.1863  0.0202 -0.2436
 1559TIP3    H128872   5.747   2.787   6.647  1.5016  1.1098 -2.8795
 1559TIP3    H228873   5.872   2.711   6.686 -0.7371 -0.8681  1.0747
 1560TIP3   OH228874   1.830   4.653   9.004  0.4603 -0.3400 -0.2966
 1560TIP3    H128875   1.823   4.574   8.949 -0.8758 -0.0466 -0.5928
 1560TIP3    H228876   1.901   4.703   8.965 -0.3405 -0.2242 -1.7050
 1561TIP3   OH228877   6.147   5.254   9.198  0.9924 -0.1399 -0.4847
 1561TIP3    H128878   6.100   5.337   9.207  0.1483 -0.7975  1.8371
 1561TIP3    H228879   6.196   5.245   9.279  3.5848 -0.5068 -1.9726
 1562TIP3   OH228880   5.958   0.370   9.059  0.2311 -0.1679 -0.0743
 1562TIP3    H128881   5.961   0.328   8.973 -0.1851  0.4496 -0.3982
 1562TIP3    H228882   6.050   0.379   9.085  0.3779  0.0773 -0.6666
 1563TIP3   OH228883   3.699   4.383   8.356  0.1358 -0.0141  0.0213
 1563TIP3    H128884   3.605   4.378   8.338 -0.0399 -0.3334  0.9633
 1563TIP3    H228885   3.723   4.473   8.335  0.0218 -0.4016 -2.0112
 1564TIP3   OH228886   1.160   3.946   8.976  0.3203 -0.1378 -0.0354
 1564TIP3    H128887   1.125   3.867   9.017  0.2149 -0.7699 -1.2777
 1564TIP3    H228888   1.225   3.913   8.914 -0.3549  0.6645 -1.2148
 1565TIP3   OH228889   1.735   5.098   7.707 -0.2604 -0.0883 -0.4071
 1565TIP3    H128890   1.675   5.162   7.747 -0.7126  0.0873 -1.3283
 1565TIP3    H228891   1.765   5.141   7.627 -0.5620 -1.0295 -1.0337
 1566TIP3   OH228892   5.911   1.797   8.304 -0.0852 -0.1977 -0.1398
 1566TIP3    H128893   5.847   1.726   8.305 -1.9126  1.3309 -1.5993
 1566TIP3    H228894   5.993   1.755   8.278 -1.1191 -1.7547 -1.0177
 1567TIP3   OH228895   0.802   0.958   9.080  0.3639  0.5834 -0.6550
 1567TIP3    H128896   0.847   0.920   9.156 -0.4816  2.1124  0.6864
 1567TIP3    H228897   0.805   0.889   9.013  1.3185 -0.7465  0.6851
 1568TIP3   OH228898   4.961   0.371   8.019  0.3457  0.0637 -0.5540
 1568TIP3    H128899   4.936   0.281   8.038  0.4016  0.3906  1.2427
 1568TIP3    H228900   5.005   0.401   8.099 -0.6582  2.0285 -0.6757
 1569TIP3   OH228901   1.712   4.742   7.789  0.5665  0.1507  0.6428
 1569TIP3    H128902   1.786   4.773   7.842  0.2112  1.3699  0.4584
 1569TIP3    H228903   1.652   4.816   7.787  0.6991  0.2639 -1.7068
 1570TIP3   OH228904   0.602   1.892   7.746  0.4445 -0.0103 -0.0283
 1570TIP3    H128905   0.658   1.824   7.708  2.2822  1.5624 -0.2915
 1570TIP3    H228906   0.576   1.857   7.831  2.7664 -0.3919  0.5894
 1571TIP3   OH228907   7.371   6.781   7.847 -0.1927  0.1974  0.1028
 1571TIP3    H128908   7.391   6.757   7.757 -1.1752  2.4440 -0.7777
 1571TIP3    H228909   7.284   6.745   7.863  0.9158 -2.2966  1.0660
 1572TIP3   OH228910   4.960   0.555   9.327  0.0869  0.7110 -0.4704
 1572TIP3    H128911   5.025   0.490   9.302 -0.3727  0.7332 -1.7797
 1572TIP3    H228912   4.929   0.526   9.413  0.6412 -0.2087 -0.5703
 1573TIP3   OH228913   5.373   6.979   8.724  0.0607 -0.3319  0.4121
 1573TIP3    H128914   5.363   6.972   8.819  3.0386 -1.0838  0.7799
 1573TIP3    H228915   5.347   6.894   8.690  2.2386 -1.3007  1.0060
 1574TIP3   OH228916   5.387   2.489   7.349  0.3794 -0.3127  0.0673
 1574TIP3    H128917   5.343   2.441   7.278 -2.2177  0.9108  0.7357
 1574TIP3    H228918   5.404   2.576   7.312 -0.0648  0.0078  0.5961
 1575TIP3   OH228919   6.580   5.293   6.764  1.0876 -0.3360  0.3548
 1575TIP3    H128920   6.527   5.342   6.827  2.0215  1.4116 -0.1704
 1575TIP3    H228921   6.571   5.201   6.792 -3.1668 -0.3865 -0.3927
 1576TIP3   OH228922   5.174   6.947   9.205 -0.1768 -0.3503 -0.3104
 1576TIP3    H128923   5.140   7.030   9.237 -0.8179 -0.2318 -1.2613
 1576TIP3    H228924   5.191   6.896   9.284 -0.8269  0.2725  0.2455
 1577TIP3   OH228925   3.034   6.062   8.820  0.0997 -0.3902  0.4321
 1577TIP3    H128926   2.971   6.112   8.871  0.2398  0.2118  0.0290
 1577TIP3    H228927   3.077   6.128   8.765  0.4420 -0.9251  0.0555
 1578TIP3   OH228928   2.294   7.350   9.138  0.5782  0.2890  0.2804
 1578TIP3    H128929   2.331   7.267   9.167  2.9490  1.7192  1.5995
 1578TIP3    H228930   2.361   7.388   9.082 -0.6563  1.1791 -0.6636
 1579TIP3   OH228931   3.731   0.636   9.065 -0.3599 -0.1473  0.5369
 1579TIP3    H128932   3.695   0.698   9.129  1.7410  0.8218  0.8450
 1579TIP3    H228933   3.657   0.616   9.008 -1.6365  0.9841  1.7096
 1580TIP3   OH228934   6.637   0.200   9.087 -0.1740  0.9695  0.2975
 1580TIP3    H128935   6.616   0.109   9.109 -2.0040  0.6495 -2.3215
 1580TIP3    H228936   6.732   0.204   9.088 -0.0009 -1.3413 -0.6645
 1581TIP3   OH228937   3.702   6.445   8.962 -0.8514  0.4424  0.2063
 1581TIP3    H128938   3.750   6.467   9.042 -1.3819 -2.3536  1.3861
 1581TIP3    H228939   3.624   6.399   8.992 -1.7264  0.4315 -1.8950
 1582TIP3   OH228940   4.796   6.116   8.283 -0.2229 -0.4955 -0.4838
 1582TIP3    H128941   4.790   6.082   8.372 -0.2368  0.2128 -0.2050
 1582TIP3    H228942   4.890   6.118   8.264  0.0311  2.0733  0.6282
 1583TIP3   OH228943   3.352   0.511   7.207 -0.2797  0.0235  0.1743
 1583TIP3    H128944   3.283   0.560   7.252  0.9930  0.2784  1.9364
 1583TIP3    H228945   3.308   0.431   7.177 -1.3817  0.2398  1.1424
 1584TIP3   OH228946   2.063   2.060   8.035  0.0491 -0.5953 -0.1962
 1584TIP3    H128947   1.985   2.115   8.025  0.0612 -0.5538 -0.0547
 1584TIP3    H228948   2.123   2.092   7.967  1.3605  1.7798  1.9347
 1585TIP3   OH228949   2.965   4.127   8.144 -0.5212  0.1909  0.0754
 1585TIP3    H128950   2.881   4.097   8.111 -1.6460 -0.1953  2.9744
 1585TIP3    H228951   2.945   4.210   8.189  0.6158  0.0994  0.8044
 1586TIP3   OH228952   0.241   7.474   7.891 -0.4080 -0.1043 -0.1976
 1586TIP3    H128953   0.246   7.565   7.861 -1.8724  0.1599  0.2740
 1586TIP3    H228954   0.332   7.444   7.893  0.2873  1.8937  1.2190
 1587TIP3   OH228955   7.424   6.684   8.098 -0.2586  0.4866 -0.5148
 1587TIP3    H128956   7.381   6.601   8.114 -0.0037  0.6685  1.2763
 1587TIP3    H228957   7.409   6.702   8.005  0.6109 -2.0608 -1.2168
 1588TIP3   OH228958   5.128   0.120   8.335 -0.1025 -0.3026  0.0726
 1588TIP3    H128959   5.091   0.207   8.322  0.3462  0.0002  0.7827
 1588TIP3    H228960   5.157   0.119   8.426  1.1986 -0.6951 -0.3151
 1589TIP3   OH228961   1.577   0.407   9.177 -0.4226 -0.2170  0.1887
 1589TIP3    H128962   1.662   0.371   9.151 -1.2756 -1.5189 -0.8760
 1589TIP3    H228963   1.600   0.483   9.231  1.4228 -1.2620  0.9962
 1590TIP3   OH228964   5.285   3.050   8.602 -0.1101 -0.3433  0.5984
 1590TIP3    H128965   5.239   3.131   8.579  1.3875  0.2261 -0.5219
 1590TIP3    H228966   5.216   2.983   8.602 -0.8189  0.2291 -2.3019
 1591TIP3   OH228967   2.223   5.663   9.284  0.3286  0.3075 -0.2837
 1591TIP3    H128968   2.152   5.598   9.290 -0.2451  0.9809  0.5863
 1591TIP3    H228969   2.230   5.698   9.373  0.3556  1.7069 -0.8075
 1592TIP3   OH228970   3.156   0.001   8.248  0.0497  0.1184 -0.1054
 1592TIP3    H128971   3.143   0.081   8.298  0.6871  0.8014 -1.0008
 1592TIP3    H228972   3.162  -0.068   8.314  0.2747  0.9064  0.7157
 1593TIP3   OH228973   4.619   6.260   7.246 -0.4315 -0.2055  0.2396
 1593TIP3    H128974   4.544   6.204   7.227 -0.9018  0.7044 -0.6858
 1593TIP3    H228975   4.673   6.256   7.167  0.2748 -0.4841  0.7193
 1594TIP3   OH228976   6.926   5.854   9.367  0.4016  0.6424 -0.6727
 1594TIP3    H128977   6.836   5.828   9.348  0.1035  1.5193 -0.4934
 1594TIP3    H228978   6.920   5.900   9.451  1.4927 -2.0615  1.0444
 1595TIP3   OH228979   6.924   1.793   8.388 -0.4253 -0.0135 -0.7933
 1595TIP3    H128980   6.962   1.816   8.473 -0.5842 -0.4652 -0.5990
 1595TIP3    H228981   6.949   1.866   8.331 -0.8887  0.6298 -0.1952
 1596TIP3   OH228982   3.356   1.764   8.901  0.0897  0.2837  0.3276
 1596TIP3    H128983   3.408   1.728   8.830 -0.5372 -0.0290  0.0176
 1596TIP3    H228984   3.303   1.690   8.931  0.1918  0.4675  0.9784
 1597TIP3   OH228985   0.004   7.159   9.054  0.1887  0.1312  0.1777
 1597TIP3    H128986  -0.077   7.108   9.058  1.1322 -1.4680 -0.1451
 1597TIP3    H228987   0.070   7.096   9.025  1.1865  1.8510 -1.4674
 1598TIP3   OH228988   2.144   2.576   7.840  0.1263 -0.2212  0.3956
 1598TIP3    H128989   2.198   2.628   7.780 -1.0845  1.7109  0.8779
 1598TIP3    H228990   2.163   2.485   7.817  2.4086  0.3991 -0.4501
 1599TIP3   OH228991   4.481   0.520   8.770 -0.8900  0.3459  0.0550
 1599TIP3    H128992   4.392   0.516   8.737 -2.0411 -3.0486  2.9350
 1599TIP3    H228993   4.478   0.582   8.843 -0.8413  0.3685  0.0382
 1600TIP3   OH228994   3.022   6.380   8.731 -0.3740  0.1581  0.3415
 1600TIP3    H128995   3.008   6.345   8.819  2.4014  1.9022  1.5818
 1600TIP3    H228996   3.112   6.412   8.731 -0.2717  0.2626 -3.1587
 1601TIP3   OH228997   4.778   7.197   8.310 -0.1256 -0.0661 -0.2043
 1601TIP3    H128998   4.814   7.147   8.383  0.9583 -2.2195 -2.0698
 1601TIP3    H228999   4.828   7.279   8.309 -0.0597 -0.0742  1.3404
 1602TIP3   OH229000   2.007   5.627   8.279 -0.3597  0.4259 -0.7669
 1602TIP3    H129001   2.020   5.708   8.229  0.8345 -0.6110 -2.2510
 1602TIP3    H229002   1.964   5.568   8.217 -0.6424 -0.2809  0.0882
 1603TIP3   OH229003   7.024   3.972   8.733  0.1131 -0.9939  0.2285
 1603TIP3    H129004   7.091   3.903   8.735 -0.6925 -1.8380 -0.8373
 1603TIP3    H229005   6.962   3.946   8.801  0.6052 -0.4722  0.8858
 1604TIP3   OH229006   5.597   0.297   7.893  0.3313 -0.5786  0.5143
 1604TIP3    H129007   5.524   0.358   7.877  2.0411  1.7931  1.1612
 1604TIP3    H229008   5.598   0.241   7.816 -1.5821 -0.0292  0.0448
 1605TIP3   OH229009   7.058   0.016   8.421 -0.1936 -0.0281  0.2649
 1605TIP3    H129010   6.973   0.049   8.451 -0.3094 -0.2155  0.1444
 1605TIP3    H229011   7.043  -0.008   8.329 -0.0859 -0.3198  0.3232
 1606TIP3   OH229012   3.554   2.143   7.065 -0.0084  0.3702 -0.2300
 1606TIP3    H129013   3.649   2.146   7.057  0.0268  0.7859  0.2675
 1606TIP3    H229014   3.533   2.050   7.069  0.5698  0.2715  1.6015
 1607TIP3   OH229015   1.384   4.139   9.082  0.1619 -0.2277 -0.0804
 1607TIP3    H129016   1.412   4.198   9.012  0.8708  1.0525  1.2385
 1607TIP3    H229017   1.446   4.067   9.079  1.0151  0.4903  0.0771
 1608TIP3   OH229018   6.225   6.806   8.806  0.3057 -0.1325  0.3169
 1608TIP3    H129019   6.320   6.805   8.793  0.9440 -0.4228  3.8301
 1608TIP3    H229020   6.203   6.715   8.826 -0.9679 -0.2676 -1.4906
 1609TIP3   OH229021   1.148   3.549   8.633  0.8162 -0.1626 -0.8271
 1609TIP3    H129022   1.217   3.602   8.671  0.1024  0.5496 -0.4872
 1609TIP3    H229023   1.104   3.509   8.708 -0.3744  0.9609 -0.9004
 1610TIP3   OH229024   0.855   2.057   8.247  0.6279 -0.0663  0.3947
 1610TIP3    H129025   0.950   2.064   8.237  0.3989  2.2691 -0.7601
 1610TIP3    H229026   0.830   2.132   8.300 -0.7694  0.6015 -1.1021
 1611TIP3   OH229027   5.688   0.828   6.696  0.6176 -0.3240 -0.0936
 1611TIP3    H129028   5.597   0.829   6.725  0.8712  1.2667  0.7629
 1611TIP3    H229029   5.693   0.754   6.635 -0.8848 -1.3379  0.9386
 1612TIP3   OH229030   1.501   5.838   8.566 -0.1340  0.3231  0.5116
 1612TIP3    H129031   1.549   5.756   8.560 -1.1418 -0.1939 -2.9578
 1612TIP3    H229032   1.416   5.815   8.602 -0.4041 -0.1977 -0.4312
 1613TIP3   OH229033   0.185   3.077   9.114  0.3076 -0.9398  0.0098
 1613TIP3    H129034   0.214   3.162   9.145  1.0648 -1.3818  0.5471
 1613TIP3    H229035   0.187   3.021   9.191 -2.4744 -0.8991  0.2003
 1614TIP3   OH229036   5.247   7.486   7.987 -0.4603  0.3095  0.6023
 1614TIP3    H129037   5.231   7.562   8.043  0.3847  1.7628 -1.0183
 1614TIP3    H229038   5.202   7.414   8.031 -3.6736  2.2609  0.8261
 1615TIP3   OH229039   1.640   4.277   7.584 -0.2517 -0.1903  0.1921
 1615TIP3    H129040   1.669   4.346   7.643  1.0456 -0.6782  0.1580
 1615TIP3    H229041   1.573   4.319   7.529 -0.6299  0.5793  1.2183
 1616TIP3   OH229042   0.325   7.598   8.374 -0.0168 -0.5891  0.0657
 1616TIP3    H129043   0.349   7.532   8.309  1.7950 -0.1933  0.2774
 1616TIP3    H229044   0.294   7.672   8.322  0.8713 -0.4902 -0.3377
 1617TIP3   OH229045   6.322   2.547   6.613  0.8802 -0.1713  0.2728
 1617TIP3    H129046   6.263   2.587   6.677  1.7582 -1.1776  1.7677
 1617TIP3    H229047   6.269   2.540   6.533 -1.4581 -2.0901  1.8596
 1618TIP3   OH229048   3.266   4.830   7.942 -0.5917  0.6513  0.0177
 1618TIP3    H129049   3.273   4.899   8.008  2.2584 -1.7709  2.5958
 1618TIP3    H229050   3.217   4.760   7.986 -1.0493 -0.0148 -1.4876
 1619TIP3   OH229051   6.954   6.346   7.331  0.3638  0.2704  0.1935
 1619TIP3    H129052   6.878   6.349   7.271 -0.3495 -1.4149  0.9540
 1619TIP3    H229053   7.009   6.277   7.296  1.2479  1.0412  0.0323
 1620TIP3   OH229054   7.357   5.883   7.863  0.2584 -0.6607 -0.0139
 1620TIP3    H129055   7.355   5.963   7.916 -1.7171 -0.9687  0.4580
 1620TIP3    H229056   7.422   5.901   7.795  0.4908  1.0067  0.5915
 1621TIP3   OH229057   4.678   5.233   8.127 -0.2764 -0.2356  0.0441
 1621TIP3    H129058   4.619   5.171   8.172  0.6220  0.0379  1.6768
 1621TIP3    H229059   4.641   5.319   8.146  0.6396 -0.0590  1.1213
 1622TIP3   OH229060   4.078   2.724   8.255 -0.4813  0.6161 -0.0851
 1622TIP3    H129061   4.027   2.755   8.331  0.5508  2.4881 -0.0981
 1622TIP3    H229062   4.153   2.679   8.294 -1.7041 -1.5503 -0.0655
 1623TIP3   OH229063   0.724   4.405   8.898  0.0874  0.0276 -0.1909
 1623TIP3    H129064   0.687   4.493   8.893 -0.0204  0.1270  1.8446
 1623TIP3    H229065   0.698   4.372   8.984  1.5966 -1.3296 -0.2122
 1624TIP3   OH229066   4.939   0.708   8.450  0.6388 -0.1995  0.4324
 1624TIP3    H129067   4.965   0.677   8.536  0.2668 -1.1188  0.2268
 1624TIP3    H229068   4.956   0.635   8.391  1.5688  0.6532 -0.4125
 1625TIP3   OH229069   0.992   4.063   8.051 -0.0079  0.4311 -0.7193
 1625TIP3    H129070   0.922   4.019   8.002 -0.7973  1.5524 -0.6228
 1625TIP3    H229071   1.009   4.143   8.003  0.8300  0.4470 -0.4186
 1626TIP3   OH229072   7.450   4.255   7.073 -0.3080 -0.6111  0.0519
 1626TIP3    H129073   7.424   4.347   7.062  1.6109 -0.0546 -0.3449
 1626TIP3    H229074   7.383   4.205   7.028 -0.3853  0.7422 -1.4220
 1627TIP3   OH229075   7.271   4.785   7.881  0.0008 -0.0566  0.3217
 1627TIP3    H129076   7.262   4.690   7.875  3.8754 -0.8800  3.5615
 1627TIP3    H229077   7.316   4.811   7.801 -0.3214 -1.0554 -0.1957
 1628TIP3   OH229078   7.550   2.518   8.551 -0.3833  0.7699 -0.0347
 1628TIP3    H129079   7.624   2.529   8.611  0.0185  0.7479 -0.5179
 1628TIP3    H229080   7.554   2.426   8.525 -0.3643  0.8499 -0.3265
 1629TIP3   OH229081   7.361   4.008   8.651  0.3836  0.5921  0.0424
 1629TIP3    H129082   7.322   3.986   8.566 -0.3495 -0.3474  0.5868
 1629TIP3    H229083   7.442   3.957   8.655 -0.8159 -1.3792  0.8863
 1630TIP3   OH229084   6.801   3.331   9.057  0.0519  0.3333 -0.0617
 1630TIP3    H129085   6.833   3.279   8.983 -0.3610  0.7163 -0.5199
 1630TIP3    H229086   6.727   3.282   9.091  1.2273 -0.6634  1.1359
 1631TIP3   OH229087   3.657   2.150   8.376  0.2974 -0.1376  0.7313
 1631TIP3    H129088   3.574   2.103   8.368 -0.0007  0.1991  1.6637
 1631TIP3    H229089   3.719   2.085   8.408  0.2310 -0.2337  0.6633
 1632TIP3   OH229090   7.396   5.302   7.535 -0.4999 -0.2733 -0.0227
 1632TIP3    H129091   7.490   5.320   7.536 -0.6967  0.8278 -0.2695
 1632TIP3    H229092   7.372   5.307   7.442 -0.3668 -3.0570 -0.2880
 1633TIP3   OH229093   0.905   1.196   8.438  0.3534 -0.5407 -0.0750
 1633TIP3    H129094   0.877   1.213   8.528 -0.5124  1.8729 -0.7333
 1633TIP3    H229095   0.833   1.144   8.400  0.1914 -0.5947  0.3013
 1634TIP3   OH229096   5.935   6.531   8.190 -0.3074 -0.3579 -0.2483
 1634TIP3    H129097   5.871   6.514   8.121 -0.5799  0.6580 -0.2652
 1634TIP3    H229098   5.999   6.460   8.182 -1.4333 -1.4156 -0.2086
 1635TIP3   OH229099   6.767   1.429   8.109 -0.6248 -0.0128  0.1992
 1635TIP3    H129100   6.833   1.418   8.040 -0.7230  2.5457 -0.3898
 1635TIP3    H229101   6.815   1.417   8.190  0.5713  1.6767 -0.2245
 1636TIP3   OH229102   5.742   0.432   8.255  0.1498 -0.4379  0.0858
 1636TIP3    H129103   5.835   0.436   8.275  0.5842  0.4880 -1.8869
 1636TIP3    H229104   5.738   0.410   8.162 -1.5941 -0.0349  0.0295
 1637TIP3   OH229105   4.404   4.812   8.532 -0.2256 -0.8887  0.1983
 1637TIP3    H129106   4.475   4.750   8.513  1.3807  1.5447 -2.6839
 1637TIP3    H229107   4.339   4.797   8.463 -0.8572 -0.7723  0.7550
 1638TIP3   OH229108   2.611   0.248   8.280  0.0773  0.0103 -0.3742
 1638TIP3    H129109   2.577   0.333   8.307  0.2302 -0.2986  0.8350
 1638TIP3    H229110   2.542   0.186   8.306  0.7386 -0.4207  0.3791
 1639TIP3   OH229111   2.307   2.679   8.385  0.2128 -0.3119 -0.1273
 1639TIP3    H129112   2.239   2.746   8.391  1.2804  0.8103 -0.1273
 1639TIP3    H229113   2.265   2.604   8.343 -0.8511  0.5736 -0.6642
 1640TIP3   OH229114   7.101   6.844   6.791  0.4385 -0.4004  0.0911
 1640TIP3    H129115   7.013   6.860   6.826  0.0767 -1.6247 -0.2332
 1640TIP3    H229116   7.092   6.854   6.697  1.0347  1.1153  0.1565
 1641TIP3   OH229117   7.049   0.972   9.433 -0.0172 -0.8486 -0.3302
 1641TIP3    H129118   7.069   0.908   9.501  2.2911  0.6377  0.5444
 1641TIP3    H229119   7.135   1.004   9.405 -0.9530  3.0799  0.5973
 1642TIP3   OH229120   3.547   2.732   9.678 -0.2048 -0.3117 -0.3905
 1642TIP3    H129121   3.604   2.717   9.753 -0.7503 -0.5975 -0.0256
 1642TIP3    H229122   3.556   2.826   9.660  1.0720 -0.5154 -0.9182
 1643TIP3   OH229123   1.360   0.876   8.004  0.5374  0.5459  0.4481
 1643TIP3    H129124   1.360   0.885   8.099  1.4321 -0.8890  0.6100
 1643TIP3    H229125   1.438   0.824   7.984 -0.3270 -0.3020 -0.9340
 1644TIP3   OH229126   1.395   1.494   7.222  0.1036 -0.0498  0.0783
 1644TIP3    H129127   1.413   1.569   7.165  0.0148 -1.6079 -2.1173
 1644TIP3    H229128   1.471   1.437   7.210  0.1765 -0.3550  1.7361
 1645TIP3   OH229129   3.244   3.882   9.349  0.3544  0.1244  0.1781
 1645TIP3    H129130   3.303   3.824   9.301  0.7055  0.1414  0.5801
 1645TIP3    H229131   3.156   3.846   9.333  0.2369  1.2159 -2.0028
 1646TIP3   OH229132   4.526   7.366   7.754 -0.2420 -0.1825 -0.2122
 1646TIP3    H129133   4.485   7.288   7.791 -0.5808  0.0932  0.0009
 1646TIP3    H229134   4.507   7.360   7.660 -0.8154 -0.0332 -0.1093
 1647TIP3   OH229135   4.915   5.389   9.315 -0.6917 -0.1254 -0.2733
 1647TIP3    H129136   4.858   5.316   9.337 -0.0655 -0.4241  0.4406
 1647TIP3    H229137   4.861   5.467   9.326 -0.5805 -0.2941  1.9214
 1648TIP3   OH229138   1.751   5.457   9.487  0.0685 -0.1032  0.2461
 1648TIP3    H129139   1.727   5.462   9.580 -0.8236 -1.0536  0.0870
 1648TIP3    H229140   1.693   5.520   9.444 -0.7231 -0.8997  0.1261
 1649TIP3   OH229141   3.538   4.833   8.249 -0.0666  0.3002  0.3071
 1649TIP3    H129142   3.456   4.785   8.242  0.6150 -1.0779  1.4792
 1649TIP3    H229143   3.552   4.868   8.160 -1.3491 -0.3443 -0.1799
 1650TIP3   OH229144   2.041   0.483   8.939 -0.6479  0.5986  0.4556
 1650TIP3    H129145   1.949   0.484   8.912 -0.6515  0.9002  0.4781
 1650TIP3    H229146   2.039   0.453   9.030 -0.5091 -2.0199 -0.3282
 1651TIP3   OH229147   6.881   1.636   6.610 -0.1794 -0.5809  0.0474
 1651TIP3    H129148   6.939   1.600   6.677 -0.2041 -0.4897  0.1184
 1651TIP3    H229149   6.907   1.593   6.530 -0.4845 -1.0617  0.2045
 1652TIP3   OH229150   7.299   1.065   9.341  0.0060 -0.2030 -0.4552
 1652TIP3    H129151   7.344   1.136   9.386 -0.2485 -0.6869  0.5856
 1652TIP3    H229152   7.357   0.989   9.351  0.1370 -0.2255 -1.2991
 1653TIP3   OH229153   6.597   6.362   8.254  0.0185 -0.1394  0.3804
 1653TIP3    H129154   6.567   6.439   8.207 -1.7132 -0.2759  1.1951
 1653TIP3    H229155   6.571   6.288   8.199 -3.5632 -0.4085  2.1371
 1654TIP3   OH229156   1.277   3.303   8.957 -0.0030 -0.5733  0.5688
 1654TIP3    H129157   1.318   3.233   9.009 -1.0157 -0.5073  1.5034
 1654TIP3    H229158   1.270   3.267   8.869  1.7126 -0.7126  0.4489
 1655TIP3   OH229159   6.370   4.396   7.285 -0.4167 -0.4885  0.1788
 1655TIP3    H129160   6.361   4.352   7.200 -1.3560  2.0198 -1.1089
 1655TIP3    H229161   6.419   4.476   7.266 -0.9018  0.2889  1.9482
 1656TIP3   OH229162   1.079   2.165   8.978  0.4459 -0.0904 -0.5716
 1656TIP3    H129163   1.037   2.088   8.939  2.0609 -0.4389 -1.7605
 1656TIP3    H229164   1.097   2.139   9.068 -2.0829  0.2005  0.0885
 1657TIP3   OH229165   1.752   4.688   8.380 -0.3312 -0.3389 -0.1511
 1657TIP3    H129166   1.779   4.745   8.452  0.2443 -2.0221  1.0092
 1657TIP3    H229167   1.671   4.728   8.347 -0.2813  0.7890  1.0174
 1658TIP3   OH229168   1.379   5.727   9.021 -0.6036  0.1533 -0.4544
 1658TIP3    H129169   1.431   5.807   9.033  0.5068 -0.2843 -1.9823
 1658TIP3    H229170   1.289   5.757   9.017 -0.2926  1.2098  0.0292
 1659TIP3   OH229171   6.185   6.073   8.306  0.4753  0.3665  0.5475
 1659TIP3    H129172   6.107   6.033   8.345 -1.0232  1.2246 -1.3520
 1659TIP3    H229173   6.229   6.001   8.262 -0.3429  0.1689  0.0128
 1660TIP3   OH229174   1.098   2.864   9.278  0.0194  0.1233  0.1792
 1660TIP3    H129175   1.073   2.805   9.349 -0.5409  0.1122 -0.0278
 1660TIP3    H229176   1.179   2.905   9.308  2.2087 -2.9938 -0.8919
 1661TIP3   OH229177   3.542   0.047   9.025 -0.5597 -0.2072  0.3174
 1661TIP3    H129178   3.450   0.075   9.029  0.1011  2.1465  0.3446
 1661TIP3    H229179   3.592   0.128   9.025  1.5757 -1.4391  0.8876
 1662TIP3   OH229180   1.753   1.701   7.201 -0.2923  0.1949 -0.0053
 1662TIP3    H129181   1.843   1.679   7.225 -0.0603  0.8129 -0.2890
 1662TIP3    H229182   1.722   1.626   7.150  1.3156  1.4852 -3.1333
 1663TIP3   OH229183   6.380   3.451   8.064  0.3958  0.8954  0.2126
 1663TIP3    H129184   6.393   3.409   8.149 -1.7007 -2.5793 -0.9791
 1663TIP3    H229185   6.286   3.444   8.048  0.8581  0.3629 -2.8390
 1664TIP3   OH229186   7.249   3.104   9.166  0.0110  0.2924 -0.2677
 1664TIP3    H129187   7.207   3.058   9.239 -0.4539  2.0757  0.6431
 1664TIP3    H229188   7.330   3.055   9.150  0.0794 -0.1992  1.3885
 1665TIP3   OH229189   3.911   4.872   6.934 -0.9298  0.2811 -0.2045
 1665TIP3    H129190   3.897   4.779   6.949  0.3088 -0.1205 -1.2954
 1665TIP3    H229191   3.837   4.900   6.880 -0.9480 -0.2369 -0.4478
 1666TIP3   OH229192   6.598   5.250   9.751 -0.1104  0.3953 -0.1100
 1666TIP3    H129193   6.587   5.166   9.705 -1.4889 -1.5046  3.3068
 1666TIP3    H229194   6.689   5.250   9.779 -0.3424 -0.4909  0.6982
 1667TIP3   OH229195   2.363   3.918   8.262 -0.1743  0.2547 -0.3746
 1667TIP3    H129196   2.317   3.939   8.181 -0.5193 -0.0615 -0.2666
 1667TIP3    H229197   2.360   3.999   8.313 -0.1958  0.3741 -0.5662
 1668TIP3   OH229198   6.870   5.172   8.743  0.3211  0.2256  0.5745
 1668TIP3    H129199   6.808   5.223   8.795 -0.4407  0.0765 -0.1761
 1668TIP3    H229200   6.955   5.212   8.761  0.4227 -1.1063  3.5587
 1669TIP3   OH229201   6.187   6.121   9.337 -0.0159 -0.5999  0.1370
 1669TIP3    H129202   6.137   6.040   9.343 -0.5701 -0.2893 -0.2853
 1669TIP3    H229203   6.121   6.190   9.327  0.5021 -0.2177 -0.7455
 1670TIP3   OH229204   7.314   3.499   7.947  0.2987  0.6072  0.3443
 1670TIP3    H129205   7.269   3.471   7.867 -1.7802 -0.6158  1.8444
 1670TIP3    H229206   7.266   3.576   7.976  0.3558  0.4090  0.9778
 1671TIP3   OH229207   7.646   6.972   7.549  0.1900  0.5507  0.3389
 1671TIP3    H129208   7.723   7.018   7.517  0.0934  1.0060  0.7685
 1671TIP3    H229209   7.646   6.889   7.500  1.6046  0.0242  1.1934
 1672TIP3   OH229210   2.381   5.990   8.595 -0.0971 -0.0428 -0.8528
 1672TIP3    H129211   2.312   6.016   8.533  0.4453 -1.2487 -2.0061
 1672TIP3    H229212   2.462   6.019   8.554  0.1526  1.0251  0.3176
 1673TIP3   OH229213   4.482   3.088   8.968  0.4837 -0.4177  0.5480
 1673TIP3    H129214   4.570   3.079   9.006  0.8774 -1.7514 -0.5923
 1673TIP3    H229215   4.487   3.041   8.885 -1.6320 -1.5022  0.9756
 1674TIP3   OH229216   2.265   7.579   7.129  0.3697  0.1661 -0.2764
 1674TIP3    H129217   2.273   7.675   7.127  0.5986  0.1807  0.8513
 1674TIP3    H229218   2.208   7.558   7.054  0.5955  1.1472 -0.7437
 1675TIP3   OH229219   7.520   0.947   8.672  0.2101 -0.1527 -0.1696
 1675TIP3    H129220   7.504   0.857   8.642 -0.4659  0.2835 -1.1471
 1675TIP3    H229221   7.602   0.972   8.629  0.0420 -0.0660 -0.4417
 1676TIP3   OH229222   3.967   1.890   8.079  0.2087  0.4484 -0.0088
 1676TIP3    H129223   4.010   1.874   7.994 -0.6339 -1.2222 -0.1626
 1676TIP3    H229224   4.032   1.938   8.130  1.1939  0.4239 -1.1906
 1677TIP3   OH229225   4.016   5.208   8.064  0.5156 -0.2968  0.0554
 1677TIP3    H129226   3.923   5.193   8.082  0.2610 -1.8198 -2.2284
 1677TIP3    H229227   4.062   5.166   8.137 -0.5529 -1.3868  0.1243
 1678TIP3   OH229228   4.268   5.358   8.530 -0.2484  0.1089  0.1658
 1678TIP3    H129229   4.226   5.344   8.615  1.5058  0.1811  1.0738
 1678TIP3    H229230   4.354   5.316   8.538  0.1502  0.5659 -1.4020
 1679TIP3   OH229231   3.648   3.005   8.636 -0.2839  0.4792 -0.0786
 1679TIP3    H129232   3.598   2.936   8.592 -0.8423  0.6710  0.2518
 1679TIP3    H229233   3.589   3.080   8.639 -0.2372  0.4933  0.9418
 1680TIP3   OH229234   0.753   3.446   7.844 -0.7977  0.2403 -0.1259
 1680TIP3    H129235   0.687   3.511   7.823 -0.5395  0.2794 -0.8111
 1680TIP3    H229236   0.727   3.368   7.795  0.7880  0.8650 -2.1044
 1681TIP3   OH229237   5.972   2.480   8.861 -0.2648 -0.1708  0.1000
 1681TIP3    H129238   5.885   2.496   8.897 -0.0793 -2.1666  1.6243
 1681TIP3    H229239   6.029   2.541   8.908 -0.5564 -0.2928  0.6174
 1682TIP3   OH229240   4.025   1.697   9.475 -0.0054 -0.3444 -0.3624
 1682TIP3    H129241   4.036   1.721   9.567 -0.3508  0.6424 -0.5647
 1682TIP3    H229242   3.977   1.771   9.436 -0.6274 -1.1403 -1.1469
 1683TIP3   OH229243   3.823   4.641   7.008  0.3768 -0.0903  0.0481
 1683TIP3    H129244   3.769   4.656   7.085 -1.6665 -2.8165 -0.6873
 1683TIP3    H229245   3.860   4.553   7.022  0.2985 -0.4665 -1.8378
 1684TIP3   OH229246   1.619   5.333   8.748 -0.1870 -0.3534 -0.1199
 1684TIP3    H129247   1.535   5.373   8.770 -0.0671 -0.4958  0.6019
 1684TIP3    H229248   1.654   5.302   8.831  0.2349 -0.9697 -0.5172
 1685TIP3   OH229249   6.215   0.385   8.046 -0.0276  0.1447 -0.1909
 1685TIP3    H129250   6.187   0.337   7.968 -2.5747 -1.1694  1.3911
 1685TIP3    H229251   6.286   0.333   8.083  1.5721  1.0531 -1.8113
 1686TIP3   OH229252   6.467   4.828   9.209  0.4107  0.8465 -0.3531
 1686TIP3    H129253   6.456   4.920   9.185 -0.6349  0.9823  0.5376
 1686TIP3    H229254   6.501   4.830   9.298 -0.3597  0.3925 -0.0308
 1687TIP3   OH229255   5.317   3.125   8.981 -0.0971  0.8592  0.4867
 1687TIP3    H129256   5.401   3.170   8.980  0.3570  0.0691  1.2615
 1687TIP3    H229257   5.255   3.188   8.945  0.8815  1.3385 -0.4090
 1688TIP3   OH229258   5.842   3.740   7.658 -0.0018 -0.1694 -0.1412
 1688TIP3    H129259   5.810   3.650   7.649 -0.9876  0.1880 -0.3418
 1688TIP3    H229260   5.904   3.736   7.731  0.1264 -1.0505 -0.2874
 1689TIP3   OH229261   1.774   4.254   9.380  0.0596 -0.2096  0.5070
 1689TIP3    H129262   1.743   4.329   9.328  2.5568 -0.2065 -1.1731
 1689TIP3    H229263   1.837   4.292   9.441  0.1467 -0.7516  0.7557
 1690TIP3   OH229264   4.124   4.302   8.595  0.1071  0.3815  0.3851
 1690TIP3    H129265   4.059   4.336   8.657 -0.9245 -1.8038  0.6027
 1690TIP3    H229266   4.205   4.298   8.645 -0.3538  0.1210  1.1273
 1691TIP3   OH229267   6.352   4.601   9.075  0.0264 -0.0139  0.3109
 1691TIP3    H129268   6.411   4.588   9.001  0.0139 -2.5831  0.6500
 1691TIP3    H229269   6.376   4.686   9.110  0.8149  0.7533 -1.9348
 1692TIP3   OH229270   3.656   3.413   7.346  0.2224 -0.0757  0.0714
 1692TIP3    H129271   3.564   3.400   7.370  0.6347 -0.9947  1.2754
 1692TIP3    H229272   3.657   3.408   7.251 -1.0472  0.4532  0.0102
 1693TIP3   OH229273   0.395   6.216   9.555 -0.3837  0.1866  0.2668
 1693TIP3    H129274   0.337   6.170   9.615  0.7945  0.7474  1.8924
 1693TIP3    H229275   0.463   6.152   9.533 -0.6559  0.0716 -0.2506
 1694TIP3   OH229276   2.136   6.685   8.487 -0.6354 -0.2525  0.3851
 1694TIP3    H129277   2.042   6.666   8.491 -0.6775 -0.5762 -1.2991
 1694TIP3    H229278   2.141   6.771   8.446 -0.1878 -0.5064 -0.1083
 1695TIP3   OH229279   7.053   3.448   8.932 -0.0040 -0.3254  0.1702
 1695TIP3    H129280   7.077   3.449   8.839  0.6490  0.4668  0.3320
 1695TIP3    H229281   6.958   3.449   8.933 -0.0655 -2.1044 -0.5014
 1696TIP3   OH229282   5.165   5.316   8.154  0.0689  0.1367 -0.1848
 1696TIP3    H129283   5.092   5.256   8.170  1.1445 -1.3364 -0.5641
 1696TIP3    H229284   5.134   5.374   8.084 -1.9096  1.7455  1.8724
 1697TIP3   OH229285   3.448   3.469   8.672  0.4597 -0.4814  0.3315
 1697TIP3    H129286   3.531   3.435   8.638  0.4086  1.5786 -2.2072
 1697TIP3    H229287   3.458   3.565   8.667 -2.2716 -0.1627 -0.7115
 1698TIP3   OH229288   7.070   2.733   8.668  0.5104  0.4274  0.2051
 1698TIP3    H129289   7.159   2.753   8.697  0.6456 -0.1206  0.1754
 1698TIP3    H229290   7.067   2.637   8.664  0.9280  0.4558 -2.9172
 1699TIP3   OH229291   4.611   4.776   7.789 -0.2313  0.2568  0.4884
 1699TIP3    H129292   4.643   4.780   7.879  0.4076 -0.7796  0.3291
 1699TIP3    H229293   4.689   4.757   7.737 -0.3538  2.1789 -0.4716
 1700TIP3   OH229294   7.654   3.621   8.805  0.3957 -0.0806 -0.1311
 1700TIP3    H129295   7.715   3.559   8.767 -0.0706 -0.4669 -0.2605
 1700TIP3    H229296   7.567   3.586   8.784  0.0321  1.8155 -2.3094
 1701TIP3   OH229297   4.531   1.951   8.428  0.0299 -0.2132 -0.0347
 1701TIP3    H129298   4.608   2.006   8.441 -0.2774  0.5548 -1.2248
 1701TIP3    H229299   4.492   1.984   8.346 -0.7397 -1.5398 -0.2325
 1702TIP3   OH229300   5.590   1.994   8.241 -0.3942 -0.0398  0.2881
 1702TIP3    H129301   5.517   2.055   8.248  1.2320  2.0270  0.0432
 1702TIP3    H229302   5.643   2.011   8.319  1.4600  0.8202 -1.0762
 1703TIP3   OH229303   1.187   2.832   7.570 -0.1243  0.2089 -0.0617
 1703TIP3    H129304   1.202   2.926   7.562 -1.0273  0.5878  2.0713
 1703TIP3    H229305   1.274   2.794   7.578  0.1866  1.1560  1.3773
 1704TIP3   OH229306   7.525   1.102   7.257  0.1191  0.0452  0.1421
 1704TIP3    H129307   7.511   1.136   7.168  0.2136 -0.9884 -0.2776
 1704TIP3    H229308   7.573   1.021   7.245 -0.7867 -0.6588  1.0678
 1705TIP3   OH229309   0.905   0.717   7.480 -0.0647  0.0823  0.0805
 1705TIP3    H129310   0.826   0.760   7.448  0.7463  1.8619  0.3135
 1705TIP3    H229311   0.965   0.720   7.406  0.6038  1.0194  0.6267
 1706TIP3   OH229312   3.057   2.087   8.015 -0.5459 -0.4415 -0.2035
 1706TIP3    H129313   3.002   2.131   8.080 -2.0224 -1.6359 -0.5706
 1706TIP3    H229314   3.116   2.032   8.066  1.6730  2.2031  0.2831
 1707TIP3   OH229315   3.962   2.060   7.384 -0.2462 -0.3548 -0.0384
 1707TIP3    H129316   3.997   2.043   7.472 -1.2378 -0.1943  0.3997
 1707TIP3    H229317   4.008   1.998   7.328 -0.6247 -1.4641  0.8289
 1708TIP3   OH229318   4.772   0.791   7.960 -0.2721 -0.0748 -0.6235
 1708TIP3    H129319   4.753   0.701   7.986  0.5983  0.1168  0.7672
 1708TIP3    H229320   4.751   0.794   7.866 -2.7138 -1.0443 -0.1891
 1709TIP3   OH229321   5.870   3.486   8.208 -0.2893 -0.0005 -0.4538
 1709TIP3    H129322   5.880   3.535   8.290 -1.7061 -0.4696  0.0337
 1709TIP3    H229323   5.805   3.419   8.228 -0.1769 -0.5403 -1.7947
 1710TIP3   OH229324   2.647   2.541   9.289 -0.2089 -0.4692 -0.3649
 1710TIP3    H129325   2.714   2.597   9.251  1.8021 -2.8963 -0.6860
 1710TIP3    H229326   2.580   2.601   9.321  1.5606  2.0313 -1.0672
 1711TIP3   OH229327   3.656   7.044   7.579  0.3018  0.2304 -0.0550
 1711TIP3    H129328   3.562   7.049   7.567  0.4941  0.3568 -1.7852
 1711TIP3    H229329   3.679   6.955   7.555  0.6280  0.2167  0.3012
 1712TIP3   OH229330   3.236   2.320   8.769  0.1471  0.1251 -0.0147
 1712TIP3    H129331   3.203   2.236   8.799  0.2032 -0.0623 -0.4655
 1712TIP3    H229332   3.263   2.304   8.679  0.4972  0.5359  0.0146
 1713TIP3   OH229333   1.212   0.895   8.767 -0.5407 -0.1972 -0.4835
 1713TIP3    H129334   1.188   0.833   8.697 -1.5162 -1.1249  0.6351
 1713TIP3    H229335   1.194   0.848   8.848  2.2275  0.1900  0.4740
 1714TIP3   OH229336   0.741   2.642   7.668  0.6920 -0.6885 -0.5001
 1714TIP3    H129337   0.680   2.574   7.639  1.2309 -1.7937  0.8046
 1714TIP3    H229338   0.760   2.619   7.759  0.1616  1.8013  0.2938
 1715TIP3   OH229339   0.831   4.875   8.412  0.1180 -0.5519  0.0452
 1715TIP3    H129340   0.828   4.966   8.439  0.3482 -0.8246  1.0303
 1715TIP3    H229341   0.752   4.862   8.360  0.5505  0.4426 -0.8931
 1716TIP3   OH229342   6.394   2.849   8.085  0.2282  0.0962  0.5564
 1716TIP3    H129343   6.456   2.853   8.158 -2.6983  1.6851  3.1701
 1716TIP3    H229344   6.347   2.766   8.099 -1.1676  0.9807  1.2780
 1717TIP3   OH229345   1.259   4.454   7.805  0.1039 -0.2412 -0.0664
 1717TIP3    H129346   1.233   4.532   7.854 -0.0612 -0.2112 -0.2023
 1717TIP3    H229347   1.220   4.466   7.719  1.0784  0.1049 -0.4812
 1718TIP3   OH229348   4.872   6.899   8.725 -0.0330 -0.4251 -0.0949
 1718TIP3    H129349   4.822   6.825   8.758 -0.9751  0.5831  0.8089
 1718TIP3    H229350   4.904   6.943   8.804  1.1330 -0.2699 -0.6297
 1719TIP3   OH229351   7.633   0.458   8.503 -0.1378  0.0719 -0.2741
 1719TIP3    H129352   7.715   0.422   8.470  0.4371  0.2130  0.9537
 1719TIP3    H229353   7.577   0.381   8.518 -0.5532  0.0290 -1.8811
 1720TIP3   OH229354   0.077   0.334   8.897 -0.4620 -0.1537 -0.2505
 1720TIP3    H129355   0.096   0.241   8.880 -3.1934 -1.0616  1.0664
 1720TIP3    H229356   0.053   0.336   8.990  0.4660  2.1009 -0.0029
 1721TIP3   OH229357   5.672   3.429   6.665 -0.2045 -0.0677  0.0723
 1721TIP3    H129358   5.668   3.413   6.759 -1.4749 -1.0923 -0.1266
 1721TIP3    H229359   5.580   3.433   6.637  0.0541  3.0723 -0.7114
 1722TIP3   OH229360   7.398   2.168   7.295 -0.1519  0.7592 -0.3881
 1722TIP3    H129361   7.373   2.082   7.259 -2.5013  0.8599  0.8530
 1722TIP3    H229362   7.453   2.147   7.370  0.0337  0.3870 -0.6224
 1723TIP3   OH229363   1.385   3.693   8.736 -0.5900 -0.2495  0.4980
 1723TIP3    H129364   1.464   3.671   8.688 -0.8855  0.8542 -0.5355
 1723TIP3    H229365   1.376   3.624   8.802  0.2413 -1.3595 -0.5329
 1724TIP3   OH229366   2.856   6.729   8.126 -0.0106 -0.3032 -1.1689
 1724TIP3    H129367   2.899   6.797   8.075  0.8496  0.4447  0.4649
 1724TIP3    H229368   2.796   6.776   8.184  0.2907 -0.9527 -0.3079
 1725TIP3   OH229369   5.201   3.431   7.319 -0.0331 -0.5032  0.0736
 1725TIP3    H129370   5.292   3.441   7.347 -0.6192  1.0976  1.6220
 1725TIP3    H229371   5.168   3.357   7.370  0.1486 -0.5088  0.1842
 1726TIP3   OH229372   1.819   0.236   9.163  0.1910  0.5542 -0.5878
 1726TIP3    H129373   1.888   0.301   9.179  0.2912  0.2298  0.3339
 1726TIP3    H229374   1.807   0.192   9.247 -1.1245  0.5773 -0.7504
 1727TIP3   OH229375   3.462   1.390   8.954 -0.2559  0.3513 -0.1697
 1727TIP3    H129376   3.487   1.399   8.862  0.2461  1.9653  0.0883
 1727TIP3    H229377   3.522   1.325   8.989  2.5408  2.8166 -0.0012
 1728TIP3   OH229378   1.183   2.059   8.469  0.5124 -0.4061  0.4371
 1728TIP3    H129379   1.113   2.100   8.520  0.1570 -0.3554 -0.0843
 1728TIP3    H229380   1.246   2.029   8.535  0.6687  0.7717  0.8506
 1729TIP3   OH229381   5.059   2.093   9.301  0.2425 -0.1269  0.0024
 1729TIP3    H129382   5.142   2.058   9.332  0.2767 -0.1656 -0.1285
 1729TIP3    H229383   5.066   2.188   9.313 -0.3878 -0.2684  1.6330
 1730TIP3   OH229384   3.966   4.231   9.278 -0.3332  0.1235  0.1649
 1730TIP3    H129385   3.879   4.272   9.278  0.0756  1.1534 -2.3957
 1730TIP3    H229386   4.027   4.304   9.286  0.3322 -0.4171  0.1034
 1731TIP3   OH229387   4.200   1.026   7.909  0.2928 -0.4509 -0.7712
 1731TIP3    H129388   4.167   1.111   7.938 -0.1225 -0.7844 -0.2446
 1731TIP3    H229389   4.273   1.047   7.851  0.3829  0.2588 -0.4151
 1732TIP3   OH229390   2.062   7.132   8.618 -0.2193 -0.2972  0.1233
 1732TIP3    H129391   1.978   7.109   8.658 -0.3677  0.6287  0.3671
 1732TIP3    H229392   2.065   7.080   8.538 -0.7243 -0.8305  0.4357
 1733TIP3   OH229393   1.837   3.641   8.500 -0.1202 -0.3661  0.3367
 1733TIP3    H129394   1.901   3.603   8.561 -0.7758 -0.4300  1.0030
 1733TIP3    H229395   1.865   3.732   8.490 -0.3808 -0.1667  1.2726
 1734TIP3   OH229396   5.598   3.189   9.016 -0.3816 -0.5427 -0.5047
 1734TIP3    H129397   5.615   3.272   9.062  0.0443 -1.4760  1.1215
 1734TIP3    H229398   5.666   3.129   9.049 -0.5999 -1.5146 -1.7439
 1735TIP3   OH229399   1.592   7.021   9.625 -0.2174 -0.1579 -0.1077
 1735TIP3    H129400   1.581   7.057   9.537  0.6703 -0.1223 -0.2116
 1735TIP3    H229401   1.685   7.031   9.644 -0.2210 -1.0292  0.4610
 1736TIP3   OH229402   2.591   0.022   9.385 -0.1490 -0.8412 -0.1188
 1736TIP3    H129403   2.632  -0.061   9.410  1.7105 -0.4245 -1.5859
 1736TIP3    H229404   2.640   0.088   9.434 -0.7481 -0.4845  0.0167
 1737TIP3   OH229405   6.932   6.599   6.640  0.8575  0.4738 -0.5688
 1737TIP3    H129406   7.011   6.643   6.608  1.4855  0.1085  0.4390
 1737TIP3    H229407   6.896   6.659   6.705  1.6199 -0.3770  0.6819
 1738TIP3   OH229408   3.137   5.578   8.027  0.1685 -0.0633 -0.6684
 1738TIP3    H129409   3.178   5.626   8.098  3.1075 -0.9902 -1.5766
 1738TIP3    H229410   3.085   5.643   7.980 -0.9523  0.7807  1.6334
 1739TIP3   OH229411   3.267   1.386   8.738 -0.8755 -0.1129 -0.1038
 1739TIP3    H129412   3.305   1.429   8.662  1.0459 -2.2551 -0.4616
 1739TIP3    H229413   3.193   1.442   8.762  0.3395  2.3370 -1.5840
 1740TIP3   OH229414   3.426   0.921   7.575  0.4932 -0.1527  0.7463
 1740TIP3    H129415   3.350   0.864   7.583  0.2545 -0.2347 -1.4785
 1740TIP3    H229416   3.400   1.003   7.618 -0.5409 -0.4502  0.7058
 1741TIP3   OH229417   2.564   4.055   8.893 -0.3861  0.2436 -0.1645
 1741TIP3    H129418   2.651   4.016   8.892  0.5004  2.0634  0.9887
 1741TIP3    H229419   2.580   4.149   8.883 -2.1969  0.6240  0.2082
 1742TIP3   OH229420   1.276   0.430   9.093 -0.5544  0.2260  1.1638
 1742TIP3    H129421   1.362   0.406   9.127 -0.4282 -1.0780 -0.0072
 1742TIP3    H229422   1.245   0.498   9.154  2.3887  2.6889  0.2175
 1743TIP3   OH229423   6.372   1.925   7.633  0.0207  0.2936  0.3637
 1743TIP3    H129424   6.361   1.958   7.544 -2.3288 -2.9084 -0.7396
 1743TIP3    H229425   6.467   1.919   7.646  0.4201 -0.0689 -2.3171
 1744TIP3   OH229426   1.748   3.855   8.037 -0.4327 -0.8013  0.5035
 1744TIP3    H129427   1.754   3.811   8.122  0.8817 -1.4261  0.1151
 1744TIP3    H229428   1.656   3.881   8.030 -0.8829 -2.0268  1.4842
 1745TIP3   OH229429   7.476   1.705   7.885 -0.0517  0.0803  0.8088
 1745TIP3    H129430   7.474   1.683   7.979 -1.5251  1.1594  1.0594
 1745TIP3    H229431   7.422   1.637   7.844 -0.8858  0.6127  0.9970
 1746TIP3   OH229432   1.930   1.358   7.523 -0.5310 -0.1489 -0.1339
 1746TIP3    H129433   1.979   1.437   7.499 -1.2628  0.1879 -0.5457
 1746TIP3    H229434   1.856   1.357   7.463 -0.0556 -1.6391 -0.7408
 1747TIP3   OH229435   0.825   7.347   9.487 -0.0187 -0.4068 -0.5283
 1747TIP3    H129436   0.744   7.297   9.489 -0.8752  0.8813 -1.5829
 1747TIP3    H229437   0.846   7.357   9.394  1.3723 -0.7460 -0.2740
 1748TIP3   OH229438   3.894   3.739   8.721 -0.0968 -0.0972  0.6985
 1748TIP3    H129439   3.936   3.825   8.723 -0.2334  0.0078 -0.2803
 1748TIP3    H229440   3.845   3.738   8.639 -2.4298 -0.0388  2.0189
 1749TIP3   OH229441   1.822   5.857   7.661  0.0251 -0.0619 -0.5115
 1749TIP3    H129442   1.863   5.773   7.682  1.7431  0.8537 -0.0653
 1749TIP3    H229443   1.734   5.834   7.631  0.2889 -1.9757  0.0916
 1750TIP3   OH229444   4.711   4.814   8.041 -0.2302 -0.6172  0.4233
 1750TIP3    H129445   4.665   4.790   8.121  1.4633 -0.7509  1.4013
 1750TIP3    H229446   4.762   4.892   8.065  0.4286 -0.7593 -0.4524
 1751TIP3   OH229447   4.819   5.639   9.818 -0.3581 -0.0646  0.7395
 1751TIP3    H129448   4.881   5.601   9.880  0.4373 -0.5209 -0.3026
 1751TIP3    H229449   4.835   5.592   9.736 -0.8182  1.0877 -0.0320
 1752TIP3   OH229450   5.978   5.694   8.693  0.4298 -0.5500  0.4323
 1752TIP3    H129451   5.967   5.651   8.609  1.4901 -2.5868  1.2812
 1752TIP3    H229452   5.996   5.786   8.671  1.7129 -1.2320 -1.5941
 1753TIP3   OH229453   6.845   0.448   7.822 -0.2384  0.3965  0.2256
 1753TIP3    H129454   6.826   0.490   7.738  0.7710 -0.6203 -0.5408
 1753TIP3    H229455   6.789   0.370   7.823  0.1553  0.1076  0.2302
 1754TIP3   OH229456   1.421   5.327   7.256  0.9472  0.6914 -0.0016
 1754TIP3    H129457   1.371   5.269   7.199  1.4252  2.3203 -2.2287
 1754TIP3    H229458   1.375   5.324   7.340  0.5167 -2.2193 -0.2170
 1755TIP3   OH229459   0.871   1.109   7.651  0.1870  0.6424 -0.4182
 1755TIP3    H129460   0.947   1.051   7.646 -0.4011 -0.3597  1.3443
 1755TIP3    H229461   0.909   1.197   7.651  1.5036  0.1569  1.6414
 1756TIP3   OH229462   3.123   6.629   8.108  0.6305 -0.1038  0.0478
 1756TIP3    H129463   3.057   6.660   8.171  1.4153 -0.2238  0.9453
 1756TIP3    H229464   3.206   6.656   8.146  1.2584 -2.0306  0.1411
 1757TIP3   OH229465   7.596   6.891   8.799  0.4280  0.7911  0.3838
 1757TIP3    H129466   7.668   6.870   8.738  0.8262  1.1319  0.7306
 1757TIP3    H229467   7.639   6.936   8.872  0.1861 -0.8555  1.6181
 1758TIP3   OH229468   4.041   1.714   9.074 -0.0416 -0.8470  0.1424
 1758TIP3    H129469   3.965   1.753   9.032  0.0917 -1.7809 -1.0318
 1758TIP3    H229470   4.006   1.667   9.150 -0.6006 -1.0567 -0.2391
 1759TIP3   OH229471   4.873   5.359   6.785 -0.2436  0.4632 -0.4377
 1759TIP3    H129472   4.874   5.292   6.855  3.1313  0.0988 -0.6729
 1759TIP3    H229473   4.854   5.309   6.705 -0.0480  0.1685 -0.3049
 1760TIP3   OH229474   7.579   3.494   7.158 -0.3584  0.0622 -0.0482
 1760TIP3    H129475   7.613   3.405   7.166 -2.1971 -0.7293 -0.5006
 1760TIP3    H229476   7.654   3.546   7.129  0.5661 -1.4998 -0.5753
 1761TIP3   OH229477   0.551   3.357   6.847 -0.1880 -0.2092 -0.1105
 1761TIP3    H129478   0.536   3.275   6.800  2.6864 -0.1245 -1.3894
 1761TIP3    H229479   0.600   3.330   6.925  0.4103  0.2288 -0.3298
 1762TIP3   OH229480   7.439   5.477   7.113 -0.2096  0.0989 -1.2867
 1762TIP3    H129481   7.350   5.495   7.082 -0.4261 -0.7086 -1.1599
 1762TIP3    H229482   7.495   5.529   7.056 -0.7086 -0.0932 -1.9708
 1763TIP3   OH229483   4.291   5.520   7.492  0.2872 -0.2141 -0.4365
 1763TIP3    H129484   4.324   5.609   7.508  0.5569  0.1047 -2.4555
 1763TIP3    H229485   4.336   5.466   7.556 -0.3494  1.1771  1.2513
 1764TIP3   OH229486   2.327   3.216   7.380  0.1114  0.0929 -0.1902
 1764TIP3    H129487   2.348   3.250   7.293  0.8590  2.0390  0.6974
 1764TIP3    H229488   2.395   3.150   7.397  0.4257  0.2588 -0.7764
 1765TIP3   OH229489   4.602   6.407   8.462 -0.2001 -0.0850 -0.5937
 1765TIP3    H129490   4.588   6.500   8.481  2.2092  0.5052 -1.4439
 1765TIP3    H229491   4.524   6.364   8.497 -1.0642  2.1664  0.4358
 1766TIP3   OH229492   7.222   5.528   9.830 -0.2144 -0.2065 -0.2360
 1766TIP3    H129493   7.162   5.513   9.903 -0.6971  0.6573 -0.4464
 1766TIP3    H229494   7.201   5.459   9.767 -1.2359  0.2835 -0.4518
 1767TIP3   OH229495   6.753   1.487   8.613 -0.0024 -0.2928 -0.6646
 1767TIP3    H129496   6.773   1.413   8.670 -0.1375 -1.3453 -1.9414
 1767TIP3    H229497   6.771   1.564   8.667  0.9125 -1.2417  0.4407
 1768TIP3   OH229498   2.077   2.598   8.658 -0.9781  0.3543 -0.0612
 1768TIP3    H129499   2.015   2.527   8.676 -1.3260  0.9760  1.3628
 1768TIP3    H229500   2.029   2.678   8.678 -0.3515  0.9707 -0.9260
 1769TIP3   OH229501   7.145   2.249   8.335  0.5591 -0.2022  0.4211
 1769TIP3    H129502   7.223   2.284   8.294  0.8149 -0.3932  0.7455
 1769TIP3    H229503   7.113   2.183   8.273  1.4923 -1.1836  0.9652
 1770TIP3   OH229504   2.426   5.115   9.486 -0.1020 -0.0125  0.4602
 1770TIP3    H129505   2.450   5.023   9.475 -0.5307  0.0038 -0.7006
 1770TIP3    H229506   2.358   5.130   9.421 -0.9206  0.8127  1.4823
 1771TIP3   OH229507   4.066   4.872   7.707 -0.1835 -0.0208 -0.3731
 1771TIP3    H129508   4.107   4.922   7.777  1.6489 -0.5724 -0.9748
 1771TIP3    H229509   4.047   4.937   7.639 -0.3230  0.2462 -0.0816
 1772TIP3   OH229510   4.378   1.592   8.509  0.1308  0.0865 -0.0271
 1772TIP3    H129511   4.457   1.645   8.521 -1.4084  2.1085  2.0521
 1772TIP3    H229512   4.361   1.595   8.415  1.0742  1.8570 -0.1940
 1773TIP3   OH229513   4.440   2.489   6.835  0.3764 -0.0669 -0.0539
 1773TIP3    H129514   4.448   2.580   6.808  1.8023 -0.2778 -0.4410
 1773TIP3    H229515   4.508   2.444   6.785 -0.8042 -1.4864 -0.4689
 1774TIP3   OH229516   4.652   3.521   8.618 -0.0814 -0.4170 -0.6360
 1774TIP3    H129517   4.696   3.474   8.547  0.3557 -1.9609  0.5904
 1774TIP3    H229518   4.629   3.453   8.681 -1.1561  0.8065  0.3494
 1775TIP3   OH229519   5.319   2.880   8.202 -0.2723 -0.0771 -0.3582
 1775TIP3    H129520   5.390   2.861   8.140 -1.1603 -2.4303 -0.7529
 1775TIP3    H229521   5.342   2.831   8.281 -0.3412  1.0091  0.3549
 1776TIP3   OH229522   0.504   1.089   7.114  0.2864 -0.1977  0.3644
 1776TIP3    H129523   0.513   0.993   7.119  0.9228 -0.2842 -1.6806
 1776TIP3    H229524   0.583   1.123   7.156 -0.6235 -0.4891  2.4370
 1777TIP3   OH229525   5.991   4.817   7.979  0.3010  0.7655 -0.2428
 1777TIP3    H129526   6.054   4.881   8.012  4.0638 -2.9521  0.6591
 1777TIP3    H229527   6.020   4.800   7.889  1.1393 -1.4799  0.4021
 1778TIP3   OH229528   0.811   0.842   8.584 -0.2205 -0.7894 -0.0598
 1778TIP3    H129529   0.778   0.889   8.507 -0.2451 -0.2828  0.2518
 1778TIP3    H229530   0.870   0.905   8.626  0.5978 -1.4251 -0.2187
 1779TIP3   OH229531   7.377   0.495   9.194  0.3809  0.8550 -0.2588
 1779TIP3    H129532   7.364   0.537   9.109  1.0246  0.0726 -0.7640
 1779TIP3    H229533   7.361   0.402   9.177 -2.4013  0.9915  1.1377
 1780TIP3   OH229534   3.905   3.858   7.579 -0.1835  0.5056 -0.0250
 1780TIP3    H129535   3.982   3.913   7.562 -0.6536  1.5732  1.0923
 1780TIP3    H229536   3.916   3.783   7.521 -0.6739  2.8407 -3.4773
 1781TIP3   OH229537   3.612   3.656   7.058  0.2595 -0.2505 -0.1934
 1781TIP3    H129538   3.563   3.682   6.981  2.1921  0.6360 -1.1929
 1781TIP3    H229539   3.595   3.562   7.067 -3.1847  0.3442  0.7570
 1782TIP3   OH229540   3.144   3.182   8.649  0.0716 -0.3456  0.3974
 1782TIP3    H129541   3.120   3.190   8.741  0.5941  0.7191  0.4579
 1782TIP3    H229542   3.061   3.193   8.602  0.0095  0.5576  0.7008
 1783TIP3   OH229543   7.256   6.237   7.036 -0.0061  0.3260 -0.2977
 1783TIP3    H129544   7.224   6.188   7.111 -1.5192 -0.9354 -1.6756
 1783TIP3    H229545   7.340   6.196   7.015 -0.3328 -0.3956 -0.2463
 1784TIP3   OH229546   5.820   5.038   9.092 -0.0841 -0.3251  0.3643
 1784TIP3    H129547   5.777   5.044   9.177 -0.7723 -2.1265  0.1815
 1784TIP3    H229548   5.758   5.076   9.030 -1.2582 -2.4160  0.1792
 1785TIP3   OH229549   5.529   4.936   7.004 -0.4300 -0.8076 -0.6424
 1785TIP3    H129550   5.472   4.868   6.968 -1.0504 -0.7123  0.1045
 1785TIP3    H229551   5.617   4.900   6.998 -0.9655 -3.2625  2.8493
 1786TIP3   OH229552   5.483   2.674   7.662 -0.0362  0.2909  0.3383
 1786TIP3    H129553   5.418   2.641   7.723 -1.1768  0.6166 -0.6641
 1786TIP3    H229554   5.562   2.685   7.714  0.4264 -3.8096  0.8208
 1787TIP3   OH229555   1.502   4.345   8.289  0.0263 -0.4320  0.4178
 1787TIP3    H129556   1.448   4.269   8.266  2.3613 -1.2667 -3.3383
 1787TIP3    H229557   1.577   4.308   8.334 -0.1711  0.0858  1.1912
 1788TIP3   OH229558   4.616   5.288   7.865  0.3962 -0.4980  0.3171
 1788TIP3    H129559   4.589   5.196   7.867  1.3518 -0.8375 -0.7858
 1788TIP3    H229560   4.708   5.286   7.891  0.2813  0.2164  0.7899
 1789TIP3   OH229561   5.666   0.996   8.536  0.2033 -0.1121  0.3557
 1789TIP3    H129562   5.661   0.943   8.616  0.0891  1.8137  1.7072
 1789TIP3    H229563   5.753   1.036   8.539  0.0290  0.3284 -0.2617
 1790TIP3   OH229564   4.740   1.774   9.563 -0.6210 -0.0916 -0.1523
 1790TIP3    H129565   4.780   1.688   9.552  0.3489  0.1477  1.2987
 1790TIP3    H229566   4.786   1.830   9.500  1.2073  0.1144  1.3040
 1791TIP3   OH229567   6.401   7.458   7.181 -0.2546  0.7654  0.3623
 1791TIP3    H129568   6.358   7.384   7.138  0.4826  0.8481 -0.5355
 1791TIP3    H229569   6.456   7.497   7.113 -0.7624  2.2486  0.7628
 1792TIP3   OH229570   6.633   0.186   8.773  0.2495 -0.2806  0.0192
 1792TIP3    H129571   6.678   0.261   8.811 -0.0520 -0.2786  0.3714
 1792TIP3    H229572   6.587   0.222   8.697  0.8711 -0.2912 -0.3690
 1793TIP3   OH229573   2.191   5.229   8.000 -0.8060  0.6764  0.6532
 1793TIP3    H129574   2.231   5.263   7.920  1.8044 -0.5982  1.2765
 1793TIP3    H229575   2.102   5.206   7.975  0.3072 -1.0449 -2.3858
 1794TIP3   OH229576   2.558   2.518   7.195 -0.1211 -0.0966  0.1069
 1794TIP3    H129577   2.614   2.450   7.157 -1.4791 -0.1288 -1.9359
 1794TIP3    H229578   2.524   2.479   7.275 -1.8167 -2.3784 -1.5994
 1795TIP3   OH229579   3.596   4.086   8.518 -0.5329 -0.0853 -0.7443
 1795TIP3    H129580   3.593   4.057   8.609  1.0540 -1.2393 -1.0163
 1795TIP3    H229581   3.504   4.094   8.492 -1.0071 -0.9961  0.5596
 1796TIP3   OH229582   7.087   0.164   9.234 -0.1101 -0.3875 -0.1473
 1796TIP3    H129583   7.153   0.116   9.285 -0.8404 -1.8237 -0.4980
 1796TIP3    H229584   7.067   0.106   9.161 -0.2047  0.9771 -1.2325
 1797TIP3   OH229585   5.398   2.770   6.961  0.8609  0.0775 -0.5258
 1797TIP3    H129586   5.445   2.803   7.037  1.3184 -0.0950 -0.7308
 1797TIP3    H229587   5.329   2.714   6.998  1.0395  0.0478 -0.2369
 1798TIP3   OH229588   4.987   0.206   9.440 -0.7064  0.0092 -0.7412
 1798TIP3    H129589   4.987   0.261   9.519  3.2032  0.1946 -0.6521
 1798TIP3    H229590   4.934   0.255   9.377 -0.4777  2.0024  0.5147
 1799TIP3   OH229591   6.200   5.107   7.280 -0.5388 -0.8624 -0.4467
 1799TIP3    H129592   6.116   5.152   7.273 -0.6742 -0.8627  0.8467
 1799TIP3    H229593   6.190   5.052   7.358  0.6441 -0.8935 -0.3077
 1800TIP3   OH229594   5.632   0.366   7.527 -0.0889 -0.0638 -0.5869
 1800TIP3    H129595   5.689   0.414   7.586  1.7120 -1.4576 -1.1283
 1800TIP3    H229596   5.619   0.282   7.569  1.0000 -0.9790 -1.9868
 1801TIP3   OH229597   0.655   1.799   9.205 -0.1918 -0.2552 -0.5298
 1801TIP3    H129598   0.677   1.804   9.298  2.7423  2.3392 -1.2209
 1801TIP3    H229599   0.599   1.875   9.190  0.1459 -0.1190 -1.0957
 1802TIP3   OH229600   2.539   3.371   8.670 -0.2984  0.6867 -0.2144
 1802TIP3    H129601   2.537   3.298   8.608 -1.2533  0.6390 -0.1421
 1802TIP3    H229602   2.602   3.343   8.737 -0.4666  0.0294 -0.3173
 1803TIP3   OH229603   4.715   5.916   8.086 -0.2862 -0.4653 -0.1517
 1803TIP3    H129604   4.626   5.935   8.056 -1.1059 -0.3464  2.1614
 1803TIP3    H229605   4.746   6.000   8.122  0.9745 -0.3837 -1.3476
 1804TIP3   OH229606   5.235   5.396   9.104 -0.0323  0.7552  0.4269
 1804TIP3    H129607   5.234   5.418   9.010 -1.3927  1.0645  0.4882
 1804TIP3    H229608   5.231   5.301   9.106  2.6990  0.5545  0.1837
 1805TIP3   OH229609   4.208   4.021   6.682 -0.0277  0.7753 -0.2185
 1805TIP3    H129610   4.189   4.008   6.775  1.5441  0.2305  0.0594
 1805TIP3    H229611   4.138   3.975   6.636 -0.2519  0.1709  0.7020
 1806TIP3   OH229612   2.341   0.092   8.409  0.3521 -0.1043  0.1962
 1806TIP3    H129613   2.369   0.104   8.500 -0.5614  2.3834  0.2355
 1806TIP3    H229614   2.408   0.035   8.370  0.7790 -1.1855  2.3933
 1807TIP3   OH229615   0.924   1.812   7.936  0.5925 -0.2419 -0.2034
 1807TIP3    H129616   0.916   1.740   7.998  1.4222  0.7468  1.0984
 1807TIP3    H229617   1.010   1.801   7.897 -0.3367 -1.4858 -2.0630
 1808TIP3   OH229618   3.464   1.648   7.807  0.2445 -0.3001  0.4377
 1808TIP3    H129619   3.401   1.720   7.808 -0.4896 -0.9185 -0.1793
 1808TIP3    H229620   3.520   1.664   7.883 -0.1805  0.6794  0.5521
 1809TIP3   OH229621   1.296   6.006   8.310 -0.8884  0.2828 -0.2272
 1809TIP3    H129622   1.298   6.098   8.283 -1.6108  0.5398  0.5431
 1809TIP3    H229623   1.375   5.994   8.362 -1.2201  0.7076  0.3852
 1810TIP3   OH229624   1.620   5.398   9.167 -0.6634 -0.2224  0.1129
 1810TIP3    H129625   1.607   5.313   9.207  0.7945  0.5525  2.4810
 1810TIP3    H229626   1.598   5.461   9.236  0.8462  1.2385 -0.6443
 1811TIP3   OH229627   4.849   7.608   7.805  0.0536  0.2768  0.5071
 1811TIP3    H129628   4.897   7.690   7.822 -0.3786  0.7024 -0.2632
 1811TIP3    H229629   4.838   7.607   7.710 -2.5382  0.8166  0.7235
 1812TIP3   OH229630   3.656   6.783   7.433 -0.4643  0.3122 -0.1066
 1812TIP3    H129631   3.667   6.806   7.340 -0.1518 -2.2967 -0.8031
 1812TIP3    H229632   3.673   6.688   7.436 -2.0370  0.0303  2.3733
 1813TIP3   OH229633   6.082   1.226   7.065  0.2428  0.3104  0.5156
 1813TIP3    H129634   6.049   1.221   7.155 -0.2812  0.1779  0.3191
 1813TIP3    H229635   6.150   1.160   7.061 -0.8426 -0.8356  0.3619
 1814TIP3   OH229636   0.643   5.497   7.434 -0.3072 -0.5104  0.0965
 1814TIP3    H129637   0.689   5.570   7.474 -0.0125  0.1657 -1.4094
 1814TIP3    H229638   0.553   5.505   7.467 -0.1913  0.3200  0.2406
 1815TIP3   OH229639   4.065   0.093   8.795 -0.2452  0.1981  0.3873
 1815TIP3    H129640   4.068   0.057   8.883 -0.9208 -1.7758 -0.3539
 1815TIP3    H229641   3.971   0.099   8.774 -0.0980  0.7932 -0.1511
 1816TIP3   OH229642   7.623   6.851   7.942  0.0109  0.4035  0.7485
 1816TIP3    H129643   7.547   6.797   7.919  0.4436  0.3779 -0.7436
 1816TIP3    H229644   7.654   6.814   8.025  0.7234 -2.1857 -0.5680
 1817TIP3   OH229645   4.273   0.520   9.324  0.3115 -0.1078  0.3067
 1817TIP3    H129646   4.313   0.438   9.352  0.0572 -0.7801 -1.2561
 1817TIP3    H229647   4.182   0.498   9.306 -0.2500  0.9358  1.6183
 1818TIP3   OH229648   1.592   2.657   8.622  0.1756 -0.1833 -0.2453
 1818TIP3    H129649   1.511   2.652   8.674  0.4295  2.0979  0.4804
 1818TIP3    H229650   1.618   2.566   8.610 -0.9118 -0.8843  2.0706
 1819TIP3   OH229651   5.738   6.618   7.124 -0.3410  0.1833 -0.0066
 1819TIP3    H129652   5.817   6.563   7.122  0.8254  1.8013 -0.9676
 1819TIP3    H229653   5.692   6.595   7.043 -0.2255  0.1118 -0.0535
 1820TIP3   OH229654   2.259   5.469   8.761 -0.2247  0.0281 -0.0699
 1820TIP3    H129655   2.230   5.378   8.769  0.2538  0.0013  1.6588
 1820TIP3    H229656   2.327   5.467   8.694 -1.1897 -0.6181 -1.0834
 1821TIP3   OH229657   5.527   5.982   9.845  0.7749 -0.1908 -0.5379
 1821TIP3    H129658   5.602   5.968   9.788  1.4537 -0.8882  0.4882
 1821TIP3    H229659   5.490   6.066   9.817  0.5504 -0.9189 -2.5552
 1822TIP3   OH229660   7.350   2.325   8.810  0.0319  0.3456  0.3990
 1822TIP3    H129661   7.302   2.285   8.738  1.0261 -0.6227  0.2441
 1822TIP3    H229662   7.292   2.316   8.885 -1.4010  2.1860 -0.4337
 1823TIP3   OH229663   3.577   6.026   8.893  0.0558  0.1787  0.0896
 1823TIP3    H129664   3.625   6.014   8.811 -2.3468 -1.6328 -1.1831
 1823TIP3    H229665   3.614   5.960   8.952  0.9350  0.6555  0.1052
 1824TIP3   OH229666   3.119   6.651   7.526 -0.3398  0.3033  0.4363
 1824TIP3    H129667   3.124   6.566   7.569 -0.7703  0.2606  0.4111
 1824TIP3    H229668   3.087   6.632   7.438  1.3537  0.3044 -0.2041
 1825TIP3   OH229669   1.724   1.179   9.479 -0.3522 -0.0090 -0.7456
 1825TIP3    H129670   1.695   1.251   9.423  0.4108 -1.2607 -2.8552
 1825TIP3    H229671   1.649   1.160   9.535 -0.5178  2.4823 -0.0215
 1826TIP3   OH229672   5.864   3.436   7.560 -0.5154  0.7359 -0.1922
 1826TIP3    H129673   5.837   3.449   7.470 -0.7165  2.5549  0.1034
 1826TIP3    H229674   5.816   3.358   7.589 -1.0320  0.5977 -1.3995
 1827TIP3   OH229675   3.509   4.110   9.074 -0.2901 -0.0614  0.0518
 1827TIP3    H129676   3.429   4.116   9.022 -0.3542  0.0461  0.1646
 1827TIP3    H229677   3.548   4.197   9.067 -0.3590 -0.0130  0.2844
 1828TIP3   OH229678   0.233   1.356   8.132 -0.0106  0.5762 -0.3198
 1828TIP3    H129679   0.279   1.272   8.129  0.1591  0.6628 -0.1416
 1828TIP3    H229680   0.255   1.392   8.218 -1.9354 -0.2497  0.5693
 1829TIP3   OH229681   4.197   5.252   8.826 -0.3035  0.0565 -0.1754
 1829TIP3    H129682   4.177   5.165   8.861 -0.2653 -0.8047 -2.1485
 1829TIP3    H229683   4.290   5.265   8.845  0.2160 -1.2557 -1.5891
 1830TIP3   OH229684   1.395   3.112   8.149 -0.1445  0.0290  0.6787
 1830TIP3    H129685   1.315   3.164   8.148 -0.8373 -0.9952  1.2474
 1830TIP3    H229686   1.463   3.173   8.175 -0.7529  0.8968  0.2687
 1831TIP3   OH229687   1.144   4.957   8.516  0.4322 -0.3184 -0.1095
 1831TIP3    H129688   1.051   4.976   8.532  0.2422 -1.3527  0.1158
 1831TIP3    H229689   1.159   4.985   8.426 -0.7374 -2.2830 -0.9775
 1832TIP3   OH229690   0.825   5.181   9.065  0.8538 -0.2755 -0.9547
 1832TIP3    H129691   0.869   5.097   9.051 -2.1078 -2.0551 -0.4572
 1832TIP3    H229692   0.821   5.190   9.160  0.8786  0.2769 -1.0044
 1833TIP3   OH229693   0.091   6.471   8.229 -0.0647  0.2571  0.5146
 1833TIP3    H129694   0.019   6.473   8.291 -0.7466  1.5141 -0.2829
 1833TIP3    H229695   0.083   6.386   8.185  0.2679 -0.5288  1.9250
 1834TIP3   OH229696   5.657   3.772   8.205 -0.0536 -0.0075  0.0737
 1834TIP3    H129697   5.674   3.693   8.155 -0.2086 -0.8570  1.3016
 1834TIP3    H229698   5.674   3.747   8.296 -0.4481  1.2708  0.5248
 1835TIP3   OH229699   4.430   4.615   7.671  0.2809 -0.4109  0.0039
 1835TIP3    H129700   4.451   4.522   7.669  0.3695 -0.4985  2.3448
 1835TIP3    H229701   4.515   4.658   7.681  0.0207 -0.4763  4.2574
 1836TIP3   OH229702   0.567   5.325   9.147  0.3558  0.3664 -0.1664
 1836TIP3    H129703   0.572   5.233   9.120  0.9709  0.3423  0.0106
 1836TIP3    H229704   0.563   5.374   9.065 -0.4006  0.1640 -0.2569
 1837TIP3   OH229705   7.406   5.724   8.372 -0.4995  0.3183  0.3689
 1837TIP3    H129706   7.363   5.641   8.352 -0.3441  0.1641  0.6712
 1837TIP3    H229707   7.451   5.709   8.455 -2.1738  1.3204  1.5313
 1838TIP3   OH229708   0.885   3.259   8.368  0.5926 -0.5972  0.0823
 1838TIP3    H129709   0.964   3.313   8.378  0.8999 -1.1302  0.6897
 1838TIP3    H229710   0.918   3.174   8.338  0.0767 -0.3428 -1.2474
 1839TIP3   OH229711   5.081   1.746   7.788 -0.1396  0.0582 -0.4990
 1839TIP3    H129712   5.154   1.688   7.812 -0.3737 -0.0269  0.0314
 1839TIP3    H229713   5.107   1.784   7.704  0.5620  0.1099 -0.2673
 1840TIP3   OH229714   6.175   0.310   9.475  0.0782 -0.4120 -0.2525
 1840TIP3    H129715   6.191   0.379   9.538 -1.0322 -1.6717  1.5104
 1840TIP3    H229716   6.261   0.288   9.440  0.3770  2.2976 -1.4249
 1841TIP3   OH229717   4.137   6.177   8.580  0.4997 -0.4842  0.9603
 1841TIP3    H129718   4.080   6.191   8.504  2.9044  1.1883 -0.6866
 1841TIP3    H229719   4.126   6.257   8.632  0.7111 -0.5199  1.0589
 1842TIP3   OH229720   3.528   2.574   9.397 -0.3576  0.0297  0.1105
 1842TIP3    H129721   3.562   2.613   9.478  1.5189  1.5383 -1.3192
 1842TIP3    H229722   3.529   2.646   9.334 -0.2180 -1.5027 -1.7065
 1843TIP3   OH229723   0.436   1.763   8.513  0.5584 -0.2123 -0.2427
 1843TIP3    H129724   0.519   1.771   8.466  0.6848 -1.4650 -0.2625
 1843TIP3    H229725   0.448   1.687   8.571  0.6364  1.6091  2.3230
 1844TIP3   OH229726   7.312   7.162   6.881 -0.5290 -0.0754  0.2851
 1844TIP3    H129727   7.340   7.207   6.960  0.9581 -0.3863 -0.0390
 1844TIP3    H229728   7.290   7.232   6.819  1.7763  0.2833 -0.2225
 1845TIP3   OH229729   1.764   6.746   7.751 -0.2306 -0.0955 -0.2147
 1845TIP3    H129730   1.839   6.690   7.731 -0.7140 -1.1879  0.8583
 1845TIP3    H229731   1.764   6.752   7.846 -1.6055 -0.2635 -0.1890
 1846TIP3   OH229732   3.095   4.201   9.050 -0.3777  0.3443 -0.6348
 1846TIP3    H129733   3.017   4.157   9.017 -0.4376 -0.1291  0.0942
 1846TIP3    H229734   3.095   4.181   9.144  0.8824 -0.0792 -0.7092
 1847TIP3   OH229735   5.701   5.778   8.841 -0.6869  0.2242  0.2705
 1847TIP3    H129736   5.711   5.863   8.885  2.5182  0.3674 -0.4907
 1847TIP3    H229737   5.669   5.800   8.753 -3.4701  0.2426  1.2044
 1848TIP3   OH229738   3.516   2.111   8.736 -0.2118  0.2569 -0.6048
 1848TIP3    H129739   3.434   2.121   8.689 -0.1000 -0.0755 -0.8719
 1848TIP3    H229740   3.509   2.172   8.810 -0.3946  0.7670 -1.0348
 1849TIP3   OH229741   5.081   2.146   7.405 -0.2709 -0.0741 -0.0290
 1849TIP3    H129742   4.991   2.115   7.403 -0.4059  0.3163  0.1091
 1849TIP3    H229743   5.109   2.143   7.313 -0.0794 -1.1859  0.0429
 1850TIP3   OH229744   1.191   3.434   6.596 -0.3695 -0.3901 -0.5284
 1850TIP3    H129745   1.215   3.374   6.525 -1.9648 -0.0178 -1.4439
 1850TIP3    H229746   1.156   3.377   6.665 -1.4881 -0.5700 -1.2242
 1851TIP3   OH229747   3.665   3.865   6.815 -0.0614  0.2863 -0.1930
 1851TIP3    H129748   3.735   3.803   6.831 -0.4477 -0.6170 -1.8337
 1851TIP3    H229749   3.588   3.811   6.796 -0.7874  1.2621 -0.1420
 1852TIP3   OH229750   2.946   7.015   9.341  0.4507 -0.2846  0.0057
 1852TIP3    H129751   3.023   7.070   9.358  0.0582 -0.3110  2.1154
 1852TIP3    H229752   2.928   6.971   9.424 -1.7710 -0.3742 -0.4481
 1853TIP3   OH229753   2.205   3.331   8.145  0.4336 -0.5311 -0.0313
 1853TIP3    H129754   2.172   3.408   8.098  0.6913  0.7075  1.6923
 1853TIP3    H229755   2.275   3.297   8.090 -0.1953  0.0013 -1.1964
 1854TIP3   OH229756   4.844   6.703   9.028 -0.0480  0.4672 -0.0751
 1854TIP3    H129757   4.924   6.719   8.978 -0.1437  0.3718 -0.2612
 1854TIP3    H229758   4.779   6.678   8.962  0.5675 -2.6106  0.3094
 1855TIP3   OH229759   5.694   2.276   7.345 -0.1692  0.2142 -0.4915
 1855TIP3    H129760   5.734   2.340   7.287  0.5451 -1.1596 -1.5747
 1855TIP3    H229761   5.646   2.329   7.409 -0.8475  1.8079 -2.1962
 1856TIP3   OH229762   0.751   3.232   8.087 -0.3618  1.1064  0.0877
 1856TIP3    H129763   0.736   3.308   8.030  1.6234  1.6863  0.2695
 1856TIP3    H229764   0.770   3.160   8.027  1.0418  1.5566 -0.0409
 1857TIP3   OH229765   0.161   7.170   7.593 -0.3282 -0.2387 -0.4718
 1857TIP3    H129766   0.249   7.171   7.630 -0.4570 -0.5115 -0.1525
 1857TIP3    H229767   0.144   7.261   7.567  0.1691 -0.2448 -0.8352
 1858TIP3   OH229768   0.389   7.291   7.225  0.0484  0.2808  0.2794
 1858TIP3    H129769   0.395   7.379   7.260 -1.0534  0.7405 -0.6365
 1858TIP3    H229770   0.297   7.265   7.239  0.0085 -0.1660 -0.7209
 1859TIP3   OH229771   5.423   3.927   9.263  0.2949  0.6738 -0.2853
 1859TIP3    H129772   5.464   4.013   9.257  1.0224  0.3239 -0.4032
 1859TIP3    H229773   5.495   3.865   9.252 -0.1905  0.0463  0.0152
 1860TIP3   OH229774   6.089   1.065   7.650  0.1711 -0.2812  0.4749
 1860TIP3    H129775   6.114   1.024   7.567  0.2819  0.1760  0.2777
 1860TIP3    H229776   6.000   1.096   7.636  0.3252  0.1359  0.3922
 1861TIP3   OH229777   6.249   6.280   8.829 -0.8082  0.2620 -0.0186
 1861TIP3    H129778   6.282   6.208   8.776 -1.2141  0.5731 -0.7070
 1861TIP3    H229779   6.186   6.325   8.773 -1.8216  0.1543  0.9927
 1862TIP3   OH229780   7.308   1.554   8.419  0.3287 -0.3097  0.5222
 1862TIP3    H129781   7.349   1.473   8.389 -0.5539 -0.1899 -1.1251
 1862TIP3    H229782   7.216   1.532   8.433  0.1343  0.3214  0.3089
 1863TIP3   OH229783   6.164   3.463   6.659  0.1822 -0.4766  0.0280
 1863TIP3    H129784   6.216   3.388   6.687 -0.0898 -0.7476 -0.1800
 1863TIP3    H229785   6.086   3.424   6.620 -1.3914 -0.1205  2.5467
 1864TIP3   OH229786   3.848   0.449   8.116  0.1720 -0.2094  0.2655
 1864TIP3    H129787   3.816   0.487   8.034  0.6526 -3.2363 -1.4440
 1864TIP3    H229788   3.941   0.471   8.118 -0.0219  0.6433  0.5156
 1865TIP3   OH229789   6.087   7.083   8.608 -0.3823 -0.3740 -0.0283
 1865TIP3    H129790   6.168   7.111   8.650  0.1045 -1.4877 -0.2149
 1865TIP3    H229791   6.040   7.035   8.676 -0.9597  0.3625  0.1145
 1866TIP3   OH229792   0.623   7.202   8.385  0.0781 -0.4997 -0.1729
 1866TIP3    H129793   0.666   7.244   8.310 -1.0162 -0.9945 -1.1182
 1866TIP3    H229794   0.625   7.108   8.363 -0.8262 -0.5886  0.1058
 1867TIP3   OH229795   6.983   5.576   7.782  0.4497 -0.2192  0.3425
 1867TIP3    H129796   6.955   5.531   7.702 -2.2002  1.2290  0.3671
 1867TIP3    H229797   6.966   5.513   7.852  0.7004 -0.6863 -0.0109
 1868TIP3   OH229798   7.173   6.517   8.161 -0.0533 -0.2546  0.3007
 1868TIP3    H129799   7.130   6.571   8.227  0.7133  0.7696 -0.0062
 1868TIP3    H229800   7.141   6.550   8.077 -0.2482 -0.8661  0.1307
 1869TIP3   OH229801   0.341   5.739   7.275  0.3474 -0.4370 -0.4101
 1869TIP3    H129802   0.397   5.816   7.272 -0.4987  0.1741 -0.8254
 1869TIP3    H229803   0.304   5.732   7.187 -0.7943 -0.3934  0.0497
 1870TIP3   OH229804   1.629   5.996   8.996  0.2671 -0.1344  0.5859
 1870TIP3    H129805   1.571   5.957   9.062 -1.1208 -0.4699 -0.7797
 1870TIP3    H229806   1.572   6.016   8.923  1.8984 -0.5074 -0.8488
 1871TIP3   OH229807   1.868   5.750   8.517 -0.2831 -0.0369  0.1713
 1871TIP3    H129808   1.808   5.676   8.518 -1.8284  1.1761  0.0957
 1871TIP3    H229809   1.860   5.787   8.430 -1.5328  1.7543  0.9834
 1872TIP3   OH229810   2.361   6.753   9.078  0.0345  0.5462  0.4219
 1872TIP3    H129811   2.456   6.743   9.074 -0.0647 -0.1977 -0.4546
 1872TIP3    H229812   2.346   6.845   9.056  0.5875  0.8580  1.3121
 1873TIP3   OH229813   3.440   3.384   9.621  0.5229  0.1688 -0.1375
 1873TIP3    H129814   3.513   3.403   9.681  0.2582  0.6790  0.0275
 1873TIP3    H229815   3.417   3.469   9.583  2.5041 -0.4636 -3.1297
 1874TIP3   OH229816   2.118   2.761   8.088  0.0567 -0.3999  0.2181
 1874TIP3    H129817   2.193   2.727   8.039 -0.3286  0.1813 -0.7952
 1874TIP3    H229818   2.153   2.836   8.136  0.4792 -1.0802  0.9982
 1875TIP3   OH229819   3.925   6.453   9.136  0.3128  0.6076  0.3465
 1875TIP3    H129820   3.983   6.386   9.100 -1.5084 -0.2241 -1.1967
 1875TIP3    H229821   3.940   6.450   9.231 -0.6412 -3.0000  0.5167
 1876TIP3   OH229822   7.496   1.917   8.490 -0.4057 -0.3265 -0.2227
 1876TIP3    H129823   7.425   1.901   8.553 -0.5224  0.9337 -0.0142
 1876TIP3    H229824   7.457   1.976   8.425  0.7917  1.3638  0.5481
 1877TIP3   OH229825   6.428   4.983   8.605 -0.3102 -0.1520  0.3571
 1877TIP3    H129826   6.499   4.968   8.542 -0.7942  0.1726 -0.2799
 1877TIP3    H229827   6.348   4.972   8.553 -0.7224 -0.1270  0.9778
 1878TIP3   OH229828   2.013   3.619   8.700  0.3471 -0.0704  0.5296
 1878TIP3    H129829   2.063   3.555   8.751 -1.5176 -1.9573  0.1724
 1878TIP3    H229830   1.970   3.674   8.765  0.6617 -0.2677  0.9070
 1879TIP3   OH229831   4.865   0.113   8.588  0.2315 -0.4162 -0.0292
 1879TIP3    H129832   4.842   0.198   8.550  0.5801  0.2283  1.1610
 1879TIP3    H229833   4.956   0.100   8.563  0.0690 -0.6254 -0.5273
 1880TIP3   OH229834   0.732   5.523   9.255 -0.4672 -0.0925 -0.2373
 1880TIP3    H129835   0.814   5.487   9.220  0.3650  0.3344  1.1697
 1880TIP3    H229836   0.664   5.466   9.219  0.4100 -0.3385 -1.6088
 1881TIP3   OH229837   1.775   0.928   7.780 -0.3970  0.3437  0.2946
 1881TIP3    H129838   1.695   0.914   7.830 -1.1091  1.1901 -0.5657
 1881TIP3    H229839   1.823   0.995   7.829 -0.4228  0.1535  0.5812
 1882TIP3   OH229840   4.563   5.199   9.113 -0.0296 -0.0349 -0.1489
 1882TIP3    H129841   4.528   5.111   9.126 -1.8015  0.3413 -1.8194
 1882TIP3    H229842   4.602   5.196   9.026  0.5539  0.6446  0.0812
 1883TIP3   OH229843   5.133   5.712   8.489  0.1281 -0.2843 -0.7874
 1883TIP3    H129844   5.203   5.765   8.528  0.6142  0.1235 -2.1385
 1883TIP3    H229845   5.103   5.655   8.560  1.4901 -0.1159 -0.0441
 1884TIP3   OH229846   5.217   1.195   8.029 -0.6841  0.0691 -0.1339
 1884TIP3    H129847   5.221   1.200   7.933 -0.2240  0.1859 -0.1074
 1884TIP3    H229848   5.147   1.257   8.053 -2.2283 -1.4524 -0.5248
 1885TIP3   OH229849   7.359   5.119   7.054 -0.6942 -0.2085  0.3922
 1885TIP3    H129850   7.357   5.167   6.971 -0.1286 -0.0630  0.4619
 1885TIP3    H229851   7.328   5.032   7.031 -0.4090 -0.2106  0.0005
 1886TIP3   OH229852   0.654   2.088   8.938 -0.1764  0.4193 -0.7431
 1886TIP3    H129853   0.684   2.036   9.013  0.7865  0.5144 -1.0543
 1886TIP3    H229854   0.679   2.036   8.862  0.1061  0.9822 -1.0365
 1887TIP3   OH229855   0.923   0.962   8.172  0.3436 -0.3958 -0.2902
 1887TIP3    H129856   0.940   0.973   8.078  1.3954 -1.5709 -0.2673
 1887TIP3    H229857   0.945   0.870   8.189 -1.4227 -0.6512  0.7870
 1888TIP3   OH229858   5.973   2.856   6.796  0.1818 -0.3692 -0.1586
 1888TIP3    H129859   5.885   2.851   6.834 -0.2644 -0.2365 -1.1663
 1888TIP3    H229860   5.988   2.949   6.781  0.4589 -0.4004 -0.0894
 1889TIP3   OH229861   2.747   3.844   8.076 -0.1308 -0.0638  0.5759
 1889TIP3    H129862   2.759   3.800   7.991 -0.0851 -0.5774  0.8464
 1889TIP3    H229863   2.835   3.853   8.111 -0.2124 -0.5150  0.8998
 1890TIP3   OH229864   2.343   0.700   8.325 -0.0562 -0.2300 -0.6250
 1890TIP3    H129865   2.319   0.631   8.263 -1.7673 -1.4254  1.2786
 1890TIP3    H229866   2.267   0.758   8.327 -0.3062 -0.5682  0.7951
 1891TIP3   OH229867   3.872   0.734   8.088 -0.3261 -0.0145  0.0439
 1891TIP3    H129868   3.956   0.754   8.047  0.9022 -3.0792  0.7855
 1891TIP3    H229869   3.894   0.714   8.179 -2.1997  1.0499  0.7937
 1892TIP3   OH229870   2.376   5.554   8.251  0.0348 -0.2654 -0.2331
 1892TIP3    H129871   2.317   5.617   8.210 -0.6800 -0.2738  0.7412
 1892TIP3    H229872   2.366   5.474   8.199  0.2920  0.1534 -0.9431
 1893TIP3   OH229873   0.625   4.568   9.225  0.2425 -0.4446  0.5207
 1893TIP3    H129874   0.607   4.484   9.267  0.6595 -0.1080  1.3967
 1893TIP3    H229875   0.717   4.585   9.243 -0.3004  1.1348  2.0982
 1894TIP3   OH229876   3.323   4.071   8.493  0.4372 -0.7197 -0.5550
 1894TIP3    H129877   3.256   4.017   8.534 -1.0569  1.2198 -0.2882
 1894TIP3    H229878   3.296   4.077   8.401 -0.0824  0.4709 -0.3444
 1895TIP3   OH229879   5.920   5.512   8.447  0.5137 -0.3372 -0.1213
 1895TIP3    H129880   5.832   5.484   8.473  1.0237 -1.0915  0.9064
 1895TIP3    H229881   5.949   5.444   8.385  0.6408 -0.5013  0.1132
 1896TIP3   OH229882   3.192   5.348   8.147 -0.8521 -0.2717 -0.5365
 1896TIP3    H129883   3.285   5.336   8.126 -0.7603 -0.0116 -0.2880
 1896TIP3    H229884   3.171   5.434   8.111 -0.8768 -0.1294 -0.1773
 1897TIP3   OH229885   6.384   7.650   9.311 -0.3952 -0.2940 -0.7733
 1897TIP3    H129886   6.442   7.582   9.275  0.8833 -0.3403  1.2540
 1897TIP3    H229887   6.313   7.602   9.353 -1.1277 -0.2683 -1.9384
 1898TIP3   OH229888   4.324   1.914   7.770 -0.1507 -0.3538 -0.2093
 1898TIP3    H129889   4.330   1.860   7.849  0.5887  0.6600  0.4460
 1898TIP3    H229890   4.399   1.888   7.716 -0.8717 -1.3230 -0.7836
 1899TIP3   OH229891   0.028   4.324   9.010  0.2151  0.2891 -0.2018
 1899TIP3    H129892   0.030   4.253   8.946  0.9142  0.1924 -0.0806
 1899TIP3    H229893  -0.043   4.381   8.981  1.0497  0.6888 -1.5497
 1900TIP3   OH229894   6.701   5.995   9.663  0.3692  0.5592 -0.9768
 1900TIP3    H129895   6.680   6.031   9.749  0.2976 -1.4185 -0.1265
 1900TIP3    H229896   6.621   6.007   9.612 -1.4537 -2.6149  0.7850
 1901TIP3   OH229897   3.618   5.681   8.688  0.0861  0.3853 -0.4266
 1901TIP3    H129898   3.534   5.713   8.722 -0.2860 -0.7168 -0.2539
 1901TIP3    H229899   3.682   5.706   8.754 -0.4643 -0.7713  0.5733
 1902TIP3   OH229900   4.834   7.614   7.535 -0.0452  0.2527  0.6945
 1902TIP3    H129901   4.782   7.539   7.507 -0.7719  0.4316  1.5090
 1902TIP3    H229902   4.918   7.604   7.490  0.1496 -1.4595  1.3671
 1903TIP3   OH229903   2.616   0.027   7.297  0.2377  0.0035  0.6191
 1903TIP3    H129904   2.548   0.037   7.364  0.3023  0.5137  0.6114
 1903TIP3    H229905   2.571  -0.014   7.223 -0.4871  1.8516 -0.0211
 1904TIP3   OH229906   6.507   6.752   7.745 -0.1509  0.1331  0.5372
 1904TIP3    H129907   6.596   6.781   7.727 -0.7128  1.3477 -0.4950
 1904TIP3    H229908   6.485   6.793   7.829  0.1016  0.2316  0.5567
 1905TIP3   OH229909   1.550   3.427   9.109 -0.3009  0.0224 -0.5712
 1905TIP3    H129910   1.490   3.403   9.179  1.2836  0.7561  1.1259
 1905TIP3    H229911   1.594   3.345   9.086 -0.6534 -0.1799 -0.5215
 1906TIP3   OH229912   7.072   5.330   9.675 -0.2846  0.2592 -0.6732
 1906TIP3    H129913   7.025   5.253   9.706  0.3360 -0.1055 -0.6057
 1906TIP3    H229914   7.080   5.316   9.580 -0.9416  0.6776 -0.7948
 1907TIP3   OH229915   3.061   4.709   8.074 -0.2453  0.3005 -0.5966
 1907TIP3    H129916   2.983   4.662   8.101  0.6559 -0.8950 -0.0214
 1907TIP3    H229917   3.125   4.692   8.143  0.9185  0.2462 -1.6648
 1908TIP3   OH229918   0.106   4.587   8.828  0.4260 -0.3129  0.3134
 1908TIP3    H129919   0.027   4.535   8.842  1.1729 -1.3628  0.7175
 1908TIP3    H229920   0.160   4.535   8.770  0.9720  0.2544  0.2993
 1909TIP3   OH229921   5.954   2.880   7.565  0.4170  0.1250 -0.0103
 1909TIP3    H129922   5.914   2.834   7.639  0.4865  0.3892  0.1913
 1909TIP3    H229923   6.048   2.870   7.578  0.4438  0.8294  0.3556
 1910TIP3   OH229924   2.829   2.922   6.901 -0.2935 -0.1374 -0.2875
 1910TIP3    H129925   2.850   2.867   6.976  2.6653  0.9834 -0.1862
 1910TIP3    H229926   2.835   2.863   6.825 -0.3417 -0.6269  0.0834
 1911TIP3   OH229927   0.534   4.767   8.299 -0.4202 -0.2386 -0.2875
 1911TIP3    H129928   0.583   4.685   8.303  0.2059  0.1945  2.0959
 1911TIP3    H229929   0.575   4.816   8.228 -0.3416 -1.6517 -1.2705
 1912TIP3   OH229930   6.863   2.781   8.445  0.0938 -0.0627  0.7295
 1912TIP3    H129931   6.935   2.758   8.505  0.7496 -0.2413 -0.1050
 1912TIP3    H229932   6.813   2.848   8.492  2.2280  1.9249  0.4161
 1913TIP3   OH229933   5.059   1.788   8.649 -0.1841 -0.1355  0.5092
 1913TIP3    H129934   5.075   1.814   8.559 -0.0709 -0.4168  0.4485
 1913TIP3    H229935   5.090   1.698   8.654  1.2960  0.3766  1.2450
 1914TIP3   OH229936   7.176   1.239   8.071  0.4373 -0.1342  0.2233
 1914TIP3    H129937   7.143   1.149   8.068 -1.0759  0.3767  0.8799
 1914TIP3    H229938   7.245   1.241   8.005  0.1357 -1.6391 -0.1744
 1915TIP3   OH229939   4.809   5.512   7.622 -0.4255  0.0411  0.5647
 1915TIP3    H129940   4.787   5.426   7.585  0.2851 -0.1370  0.5215
 1915TIP3    H229941   4.871   5.492   7.692  2.0093  0.6308 -1.2452
 1916TIP3   OH229942   4.231   3.298   9.279 -0.1894  0.1970  0.2018
 1916TIP3    H129943   4.143   3.288   9.316  0.1762 -0.2345  0.9803
 1916TIP3    H229944   4.254   3.210   9.249  0.0344  0.2718  0.1536
 1917TIP3   OH229945   4.700   7.283   6.986  0.2646 -0.3450  0.5213
 1917TIP3    H129946   4.787   7.322   6.986 -0.1025  0.5613  2.1215
 1917TIP3    H229947   4.716   7.190   6.969  1.2183  0.2947 -2.5552
 1918TIP3   OH229948   7.095   0.391   8.470  0.4411  0.4669  0.4379
 1918TIP3    H129949   7.020   0.402   8.412 -0.0823  0.7515  1.1430
 1918TIP3    H229950   7.172   0.402   8.414 -0.0009 -1.7704 -0.6802
 1919TIP3   OH229951   2.852   3.960   7.817  0.0161 -0.2933 -0.8326
 1919TIP3    H129952   2.771   4.002   7.847  0.7869 -0.1720  1.2282
 1919TIP3    H229953   2.921   4.022   7.842  0.8909 -1.2258 -0.8909
 1920TIP3   OH229954   7.025   7.579   8.153  0.1099 -0.4830 -0.2974
 1920TIP3    H129955   6.978   7.505   8.114  1.6827 -0.9919 -1.3029
 1920TIP3    H229956   7.106   7.542   8.187  0.6167  0.6667 -0.2058
 1921TIP3   OH229957   3.339   1.075   8.126  0.1604 -0.4967 -0.2190
 1921TIP3    H129958   3.389   1.021   8.188 -1.7185 -1.4748  0.5352
 1921TIP3    H229959   3.273   1.117   8.180  0.1673  0.7969 -1.1784
 1922TIP3   OH229960   4.316   6.871   7.423  0.7192 -0.3889 -0.0521
 1922TIP3    H129961   4.354   6.853   7.337  0.9152  0.4270 -0.1408
 1922TIP3    H229962   4.370   6.821   7.484  0.1570 -1.5245 -0.4629
 1923TIP3   OH229963   3.728   5.627   9.072  0.4561 -0.1550  0.1513
 1923TIP3    H129964   3.639   5.661   9.066  0.0890 -0.3278  3.2184
 1923TIP3    H229965   3.784   5.705   9.068  0.2504 -0.0540 -1.8511
 1924TIP3   OH229966   4.397   1.582   7.786  0.0007  0.1887 -0.8075
 1924TIP3    H129967   4.432   1.538   7.708  1.6776 -0.1517  0.0895
 1924TIP3    H229968   4.454   1.658   7.797 -0.0777  0.1021  0.2185
 1925TIP3   OH229969   3.949   7.119   6.573 -0.3655  0.3798  0.6053
 1925TIP3    H129970   3.995   7.039   6.599 -0.5889  0.4859  1.3350
 1925TIP3    H229971   3.939   7.111   6.478  1.8024  0.6936  0.3095
 1926TIP3   OH229972   1.730   3.441   7.841 -0.1998 -0.0239 -0.3820
 1926TIP3    H129973   1.750   3.513   7.780 -0.1142 -1.0737 -1.6482
 1926TIP3    H229974   1.661   3.476   7.897  1.0929  1.6570  0.2362
 1927TIP3   OH229975   3.932   7.010   8.957  0.1892 -0.6579 -0.1453
 1927TIP3    H129976   3.938   6.991   8.864  0.4059 -0.3962 -0.1874
 1927TIP3    H229977   3.985   6.942   9.000 -0.2073 -0.9910 -0.1859
 1928TIP3   OH229978   5.606   2.566   6.932  0.0437 -0.0587 -0.4512
 1928TIP3    H129979   5.595   2.522   6.848  0.4764 -1.2170  0.0722
 1928TIP3    H229980   5.567   2.652   6.920  0.3420 -0.1124 -1.9150
 1929TIP3   OH229981   1.996   5.665   7.020  0.0533  0.1320 -0.5395
 1929TIP3    H129982   1.917   5.615   6.999  0.0048  0.7288 -1.8131
 1929TIP3    H229983   2.068   5.613   6.983  0.0916  0.5099 -0.9975
 1930TIP3   OH229984   4.233   1.502   7.999 -0.2117  0.1702 -0.1303
 1930TIP3    H129985   4.279   1.528   8.079  0.2583  0.5857 -0.5304
 1930TIP3    H229986   4.297   1.516   7.929 -0.3772 -0.8629 -0.5044
 1931TIP3   OH229987   3.606   1.492   8.287  0.0592  0.2685  0.1767
 1931TIP3    H129988   3.659   1.572   8.283  1.2964 -0.4714  1.2671
 1931TIP3    H229989   3.637   1.446   8.364 -0.6402 -1.2745 -0.4209
 1932TIP3   OH229990   1.287   7.004   7.703 -0.1167  0.1205 -0.2263
 1932TIP3    H129991   1.226   7.077   7.712  0.1082  0.4852 -1.5003
 1932TIP3    H229992   1.285   6.981   7.610  1.1252 -0.3380 -0.1698
 1933TIP3   OH229993   2.483   5.669   9.515 -0.4708  0.4225  0.4467
 1933TIP3    H129994   2.388   5.660   9.522 -0.3156 -1.0344  1.0828
 1933TIP3    H229995   2.517   5.581   9.533  0.9914  0.8676  0.0113
 1934TIP3   OH229996   2.052   1.282   7.757  1.0237 -0.3964 -0.0088
 1934TIP3    H129997   2.006   1.288   7.673  0.8415 -0.2026  0.1015
 1934TIP3    H229998   2.120   1.217   7.743  0.1720 -1.3250  0.0713
 1935TIP3   OH229999   1.561   5.568   7.790  0.6644  0.2409 -0.5613
 1935TIP3    H130000   1.542   5.475   7.802  2.0096 -0.0233 -0.3806
 1935TIP3    H230001   1.601   5.595   7.873  0.0386  1.0533 -0.5132
 1936TIP3   OH230002   0.128   3.277   7.826 -0.2621 -0.3520 -0.4426
 1936TIP3    H130003   0.202   3.226   7.791  0.4498 -0.0651  0.5840
 1936TIP3    H230004   0.051   3.228   7.798  0.3260 -0.8934 -1.1920
 1937TIP3   OH230005   7.200   4.385   9.401  0.0323  0.0675  0.1822
 1937TIP3    H130006   7.255   4.307   9.405  0.7579  0.5714  0.0687
 1937TIP3    H230007   7.238   4.445   9.465  0.5489  1.0134 -0.9759
 1938TIP3   OH230008   5.592   3.842   7.673  0.1884  0.0948 -0.3554
 1938TIP3    H130009   5.621   3.930   7.698  1.2620  0.0668 -1.3867
 1938TIP3    H230010   5.672   3.799   7.642 -0.3193 -1.2588  0.1378
 1939TIP3   OH230011   2.885   4.035   9.283  0.4039 -0.8214  0.3246
 1939TIP3    H130012   2.912   3.947   9.260 -1.6716 -1.2161 -0.8568
 1939TIP3    H230013   2.833   4.065   9.208  1.6360  1.7035  0.3662
 1940TIP3   OH230014   0.582   7.607   8.743 -0.2551 -0.1408 -0.0080
 1940TIP3    H130015   0.608   7.525   8.701 -0.2962  0.3244 -0.9829
 1940TIP3    H230016   0.490   7.596   8.763 -0.0309 -0.6869  0.7351
 1941TIP3   OH230017   0.954   5.289   8.228  0.2619 -0.0028  0.8791
 1941TIP3    H130018   0.929   5.247   8.145  0.3206  0.8794  0.4104
 1941TIP3    H230019   0.872   5.296   8.276 -0.1191  1.2679  0.0752
 1942TIP3   OH230020   7.171   0.254   7.001  0.0703 -0.0775 -0.0343
 1942TIP3    H130021   7.093   0.226   6.953  0.7671  0.0294 -1.2835
 1942TIP3    H230022   7.190   0.341   6.966  0.1140  0.3746  1.0708
 1943TIP3   OH230023   2.785   3.751   8.823 -0.1811  0.3169 -0.6801
 1943TIP3    H130024   2.819   3.770   8.735  0.3072 -1.3563 -0.8706
 1943TIP3    H230025   2.701   3.709   8.807  0.3745 -0.9272 -0.3876
 1944TIP3   OH230026   7.097   5.782   8.245  0.6533 -0.7890  0.0894
 1944TIP3    H130027   7.084   5.871   8.212 -1.2096 -0.8868  0.4566
 1944TIP3    H230028   7.168   5.747   8.191  0.6781  0.5485 -0.7975
 1945TIP3   OH230029   5.124   0.045   7.797 -0.0582 -0.3983 -0.0397
 1945TIP3    H130030   5.157  -0.035   7.838  1.0241  1.1544  2.3751
 1945TIP3    H230031   5.202   0.089   7.763 -0.8590 -1.2453 -3.2556
 1946TIP3   OH230032   5.492   7.472   8.949 -0.5880 -0.0441  0.0727
 1946TIP3    H130033   5.458   7.456   9.037 -0.3258 -0.2693  0.1347
 1946TIP3    H230034   5.566   7.412   8.941  0.5958  1.3177  0.4030
 1947TIP3   OH230035   3.524   7.335   8.194 -0.0255 -0.0383  0.2909
 1947TIP3    H130036   3.594   7.271   8.177 -0.1722 -0.5622  1.5737
 1947TIP3    H230037   3.444   7.291   8.165  0.0550  0.1955 -0.3026
 1948TIP3   OH230038   2.489   0.359   8.639  0.4159 -0.2712  0.0011
 1948TIP3    H130039   2.449   0.349   8.725  0.2029  1.7886  0.1770
 1948TIP3    H230040   2.513   0.269   8.613  0.4135 -0.9344  2.1415
 1949TIP3   OH230041   6.164   4.268   8.839  0.4190 -0.3263  0.5505
 1949TIP3    H130042   6.137   4.177   8.856  0.9768 -0.2733  1.8837
 1949TIP3    H230043   6.229   4.261   8.769  0.7538 -1.0176  0.9103
 1950TIP3   OH230044   1.633   0.047   8.986 -0.4987 -0.2476  0.1868
 1950TIP3    H130045   1.640   0.087   9.072  1.2595  1.8300 -0.8246
 1950TIP3    H230046   1.618  -0.046   9.003  2.5582 -0.4253  2.8012
 1951TIP3   OH230047   7.107   6.555   7.655 -0.4360 -0.7297 -0.3363
 1951TIP3    H130048   7.029   6.506   7.630  0.6980 -1.3870 -2.9070
 1951TIP3    H230049   7.112   6.627   7.593 -0.5439  1.0827  1.6567
 1952TIP3   OH230050   2.111   2.290   7.643  0.2448  0.1367 -0.0664
 1952TIP3    H130051   2.076   2.317   7.558 -2.0143 -1.3329  0.2940
 1952TIP3    H230052   2.134   2.198   7.630  0.7817  0.1654  0.6700
 1953TIP3   OH230053   5.732   4.085   9.011 -0.2593  0.1761 -0.1544
 1953TIP3    H130054   5.720   4.161   8.955 -1.6918 -0.6497 -1.0458
 1953TIP3    H230055   5.740   4.012   8.949 -1.8643 -0.7548  0.6813
 1954TIP3   OH230056   1.258   3.907   8.090 -0.0751 -0.1301 -0.3270
 1954TIP3    H130057   1.174   3.909   8.044 -0.4764 -2.2812  0.1689
 1954TIP3    H230058   1.272   3.814   8.110  1.7766  0.3316  0.7994
 1955TIP3   OH230059   5.859   3.023   9.113 -0.0187 -0.2524  0.2250
 1955TIP3    H130060   5.944   3.050   9.078  0.1462 -0.4591  0.4624
 1955TIP3    H230061   5.841   2.939   9.070  0.0938 -0.4122  0.4878
 1956TIP3   OH230062   4.445   1.207   8.008 -0.4373 -0.3280 -0.5512
 1956TIP3    H130063   4.505   1.271   7.970 -0.4608  0.1898  0.2701
 1956TIP3    H230064   4.427   1.240   8.096 -2.3035 -0.2257 -0.9331
 1957TIP3   OH230065   1.588   3.140   7.858 -0.5661  0.2450  0.6221
 1957TIP3    H130066   1.676   3.169   7.834 -0.7496  1.0544  0.8720
 1957TIP3    H230067   1.541   3.133   7.775 -0.1982 -0.4408  0.4678
 1958TIP3   OH230068   4.798   7.042   6.967  0.0555 -0.6415 -0.1554
 1958TIP3    H130069   4.890   7.016   6.954  0.2171 -0.9130  1.4172
 1958TIP3    H230070   4.777   7.014   7.056 -1.5236 -0.4478 -0.4403
 1959TIP3   OH230071   2.142   4.385   7.990 -0.5830  0.1222  0.2194
 1959TIP3    H130072   2.130   4.416   7.900  0.8606  0.6854  0.1947
 1959TIP3    H230073   2.078   4.315   8.000 -1.3353  0.6079 -0.9725
 1960TIP3   OH230074   3.358   2.137   8.006 -0.3002 -0.2167 -0.4015
 1960TIP3    H130075   3.435   2.157   7.953 -1.5407  0.1966 -2.1418
 1960TIP3    H230076   3.385   2.065   8.063  1.0490 -0.8185 -1.7491
 1961TIP3   OH230077   4.063   1.291   7.976  0.1815 -0.3908 -0.1887
 1961TIP3    H130078   4.129   1.357   7.996  0.3839 -0.3040 -1.1098
 1961TIP3    H230079   4.021   1.273   8.060  1.5177 -0.6039  0.4576
 1962TIP3   OH230080   7.425   5.246   7.276 -0.1293 -0.1970  0.7565
 1962TIP3    H130081   7.399   5.199   7.197 -2.9158 -0.0633  1.4785
 1962TIP3    H230082   7.440   5.336   7.246  1.4783 -0.7020 -0.0146
 1963TIP3   OH230083   0.368   4.595   9.356  0.4440  0.0988  0.4136
 1963TIP3    H130084   0.377   4.593   9.451  3.0316  0.7477  0.2637
 1963TIP3    H230085   0.457   4.613   9.324 -0.5258  0.8662 -2.0900
 1964TIP3   OH230086   6.838   0.777   9.003 -0.2435  0.3383 -0.6799
 1964TIP3    H130087   6.825   0.683   9.015 -0.7696  0.6776  2.1296
 1964TIP3    H230088   6.840   0.813   9.092  3.1063  2.6000 -1.4673
 1965TIP3   OH230089   6.380   1.184   7.282 -0.1563  0.4189 -0.2422
 1965TIP3    H130090   6.367   1.278   7.293  0.8678  0.4758  0.6561
 1965TIP3    H230091   6.475   1.172   7.284 -0.2915 -0.7803  1.1111
 1966TIP3   OH230092   2.357   3.027   7.964  0.5992 -0.2474 -0.3958
 1966TIP3    H130093   2.402   3.098   8.011  1.2682 -1.3058  0.6285
 1966TIP3    H230094   2.386   3.036   7.873  1.7298 -0.0100 -0.0277
 1967TIP3   OH230095   5.908   1.768   7.112 -0.5154 -0.2146  0.8688
 1967TIP3    H130096   5.925   1.748   7.020 -2.0243  0.6107  0.3784
 1967TIP3    H230097   5.855   1.695   7.143  1.6188 -1.5165  1.6988
 1968TIP3   OH230098   1.128   6.616   7.384  0.4322 -0.1410 -0.5878
 1968TIP3    H130099   1.164   6.607   7.472  0.3495 -2.9178 -0.7593
 1968TIP3    H230100   1.097   6.707   7.380  3.4071  1.0949  1.0424
 1969TIP3   OH230101   6.572   5.030   7.960 -0.2540  0.3046 -0.5468
 1969TIP3    H130102   6.659   5.062   7.938 -0.0020 -0.5083 -0.7997
 1969TIP3    H230103   6.538   5.092   8.024  1.2664 -0.3893  0.9858
 1970TIP3   OH230104   0.403   3.087   8.944 -0.3852  0.0461 -0.4307
 1970TIP3    H130105   0.329   3.041   8.984 -0.7874 -0.1372 -1.3652
 1970TIP3    H230106   0.442   3.137   9.016  0.6289 -2.4261  0.8534
 1971TIP3   OH230107   2.713   4.750   7.832 -0.5902  0.0031 -0.1730
 1971TIP3    H130108   2.621   4.776   7.826 -1.1745 -2.0038 -0.6727
 1971TIP3    H230109   2.745   4.756   7.743 -0.9365 -1.5872 -0.4245
 1972TIP3   OH230110   4.501   1.078   7.421  0.1278  0.1427  0.1109
 1972TIP3    H130111   4.548   1.056   7.501  2.2312 -0.1842 -1.1244
 1972TIP3    H230112   4.453   1.158   7.442 -0.5240 -0.7069  2.0717
 1973TIP3   OH230113   3.618   2.589   7.861 -0.1386  0.8776 -0.2908
 1973TIP3    H130114   3.528   2.587   7.895 -0.1626 -1.8394 -0.2885
 1973TIP3    H230115   3.609   2.567   7.769  0.5943 -1.4431  0.1262
 1974TIP3   OH230116   6.241   2.809   9.245 -0.2758  0.1243 -0.0134
 1974TIP3    H130117   6.191   2.877   9.290  1.4214  0.8587  0.8319
 1974TIP3    H230118   6.178   2.770   9.184 -1.7313  1.3360  0.6426
 1975TIP3   OH230119   7.174   5.419   9.364  0.4965 -0.0166 -0.1771
 1975TIP3    H130120   7.081   5.429   9.384  0.3048 -2.3924  0.3480
 1975TIP3    H230121   7.192   5.486   9.298 -1.5382  0.5784 -0.1892
 1976TIP3   OH230122   6.191   7.466   9.431  0.6351  0.1400  0.0720
 1976TIP3    H130123   6.224   7.379   9.455  0.6594  0.1867  0.2090
 1976TIP3    H230124   6.113   7.448   9.378  0.1788  0.0306  0.7588
 1977TIP3   OH230125   4.775   7.143   9.285 -0.0156 -0.4392 -0.7085
 1977TIP3    H130126   4.766   7.068   9.343 -1.3406 -0.9704 -1.5697
 1977TIP3    H230127   4.700   7.198   9.305  0.7752  0.5251 -0.3120
 1978TIP3   OH230128   4.233   0.275   8.725  0.7227  0.4636 -0.2840
 1978TIP3    H130129   4.183   0.199   8.754  0.6812 -0.2199 -2.0325
 1978TIP3    H230130   4.230   0.336   8.799 -0.5246 -0.6065  0.5788
 1979TIP3   OH230131   5.756   2.811   9.328 -0.0644 -0.4353 -0.1893
 1979TIP3    H130132   5.709   2.729   9.346  0.5476 -0.7416  0.0793
 1979TIP3    H230133   5.711   2.877   9.381  0.9046 -1.0796  1.5073
 1980TIP3   OH230134   7.096   3.183   7.507 -0.1864 -0.5100  0.4446
 1980TIP3    H130135   7.152   3.120   7.552  0.4055  0.1732  0.6837
 1980TIP3    H230136   7.098   3.155   7.415  0.4470 -0.5739  0.4698
 1981TIP3   OH230137   0.398   5.461   8.928  0.2079 -0.4869  0.7257
 1981TIP3    H130138   0.340   5.396   8.888  0.0560 -0.7639  1.3866
 1981TIP3    H230139   0.339   5.526   8.965  0.1812 -1.7460  3.1053
 1982TIP3   OH230140   4.541   0.060   7.288  0.5760  0.3440  0.1025
 1982TIP3    H130141   4.494   0.141   7.307 -0.4300 -0.0252 -0.7043
 1982TIP3    H230142   4.578   0.034   7.372 -0.0279  1.0619  0.6069
 1983TIP3   OH230143   7.433   5.429   8.413 -0.6234 -0.0444 -1.4866
 1983TIP3    H130144   7.415   5.421   8.507 -0.2959  1.2611 -1.2925
 1983TIP3    H230145   7.528   5.421   8.406 -0.7389 -1.2486 -1.8471
 1984TIP3   OH230146   6.697   0.064   8.138 -0.1861 -0.1981  0.6322
 1984TIP3    H130147   6.682  -0.023   8.100 -3.0207  0.3834  0.1675
 1984TIP3    H230148   6.640   0.066   8.215  0.0205  1.1592  0.7680
 1985TIP3   OH230149   3.843   0.182   8.173  0.5321 -0.2633 -0.0629
 1985TIP3    H130150   3.824   0.265   8.129  0.2498 -0.3237 -0.0558
 1985TIP3    H230151   3.937   0.186   8.191  0.5558 -0.0247 -0.2283
 1986TIP3   OH230152   4.803   1.849   7.598 -0.1406  0.5668  0.0852
 1986TIP3    H130153   4.809   1.786   7.526 -0.7311  1.7949 -1.0824
 1986TIP3    H230154   4.837   1.930   7.562 -2.1351  1.6985  0.5647
 1987TIP3   OH230155   1.675   3.585   8.694  0.2299 -0.3018 -0.1063
 1987TIP3    H130156   1.715   3.592   8.607  0.4866  0.7822  0.0860
 1987TIP3    H230157   1.725   3.645   8.749  0.4864 -1.4704  0.9663
 1988TIP3   OH230158   2.096   2.083   8.328  0.1583  0.0578 -0.2606
 1988TIP3    H130159   2.091   2.174   8.358 -1.3908  0.1040 -0.5705
 1988TIP3    H230160   2.139   2.089   8.243 -0.2521  0.5596 -0.4429
 1989TIP3   OH230161   5.017   5.238   7.877 -0.1966 -0.1095  0.2803
 1989TIP3    H130162   4.962   5.311   7.905 -1.0211 -0.6826  0.1724
 1989TIP3    H230163   5.039   5.258   7.786  3.0627  2.1142  1.3488
 1990TIP3   OH230164   5.926   5.988   8.362 -0.1725  0.5753  0.1469
 1990TIP3    H130165   5.891   5.901   8.342 -1.1277  1.1979 -0.9556
 1990TIP3    H230166   5.860   6.029   8.417  0.6289  0.3553  1.3251
 1991TIP3   OH230167   7.478   4.272   7.816 -0.1799  0.0722  0.3654
 1991TIP3    H130168   7.564   4.232   7.803 -0.1168  0.4844 -0.4933
 1991TIP3    H230169   7.458   4.254   7.908  0.9943  0.3177  0.6830
 1992TIP3   OH230170   1.293   2.304   7.722 -0.4359  0.3032 -0.2670
 1992TIP3    H130171   1.228   2.343   7.781  0.4513  0.0831  0.8962
 1992TIP3    H230172   1.286   2.355   7.641 -2.7663 -0.3804 -0.5581
 1993TIP3   OH230173   0.528   6.011   8.392  0.3073  0.8912 -0.2998
 1993TIP3    H130174   0.516   6.104   8.415 -2.4280  0.4312  0.4597
 1993TIP3    H230175   0.565   5.972   8.471 -1.7101  0.7821  0.6626
 1994TIP3   OH230176   5.791   7.005   8.374 -0.6739 -0.6868 -0.0088
 1994TIP3    H130177   5.793   6.913   8.347  1.5701 -0.6244 -0.2602
 1994TIP3    H230178   5.755   7.004   8.463 -0.2794 -1.8619  0.1462
 1995TIP3   OH230179   5.022   5.340   8.716  0.1531  0.0804 -0.2527
 1995TIP3    H130180   4.939   5.292   8.719 -0.7081  1.5567  0.5673
 1995TIP3    H230181   5.014   5.396   8.639 -0.7905  2.1631  1.2669
 1996TIP3   OH230182   3.257   6.484   8.786  0.3865  0.3626  0.1381
 1996TIP3    H130183   3.260   6.456   8.878 -0.6694 -1.5692 -0.3656
 1996TIP3    H230184   3.318   6.558   8.782  3.2870 -1.7447  1.6228
 1997TIP3   OH230185   1.259   3.630   9.363  0.0040  0.1543  0.4207
 1997TIP3    H130186   1.349   3.660   9.378  0.9038 -1.2872 -1.6433
 1997TIP3    H230187   1.232   3.594   9.447  1.6203 -0.0002  0.9224
 1998TIP3   OH230188   7.175   3.734   8.703 -0.1861 -0.4790  0.0119
 1998TIP3    H130189   7.130   3.726   8.619 -2.0145 -1.5730  1.0403
 1998TIP3    H230190   7.255   3.682   8.692 -0.7203 -1.1466 -0.8441
 1999TIP3   OH230191   2.416   6.619   8.115 -0.2468 -0.3847  0.0992
 1999TIP3    H130192   2.380   6.536   8.084 -2.0337  0.4477 -0.2191
 1999TIP3    H230193   2.421   6.609   8.210 -1.5618 -0.4641  0.1732
 2000TIP3   OH230194   5.985   2.334   7.673 -0.5953  0.0502 -0.2252
 2000TIP3    H130195   6.045   2.279   7.724  0.4406  0.4198 -1.0014
 2000TIP3    H230196   5.898   2.307   7.701 -0.1673 -2.5249 -1.0648
 2001TIP3   OH230197   6.365   6.831   7.989 -0.2288 -0.0744 -0.0709
 2001TIP3    H130198   6.435   6.883   8.028 -0.1001  0.7545 -1.3386
 2001TIP3    H230199   6.309   6.896   7.946 -0.2805 -0.9488 -1.3739
 2002TIP3   OH230200   7.541   5.962   8.585  0.5644  0.0469 -0.4683
 2002TIP3    H130201   7.609   6.014   8.627  0.3536 -0.4845  0.5494
 2002TIP3    H230202   7.583   5.928   8.505  1.2587  0.3032 -0.2185
 2003TIP3   OH230203   0.502   1.500   8.653 -0.5250 -0.6264 -0.0544
 2003TIP3    H130204   0.578   1.489   8.710  0.1030  0.2335 -0.6915
 2003TIP3    H230205   0.426   1.496   8.711  0.1421  1.7142  1.0963
 2004TIP3   OH230206   5.032   6.262   7.743 -0.0701 -0.0479  0.0836
 2004TIP3    H130207   4.968   6.248   7.672  2.0101 -0.7999 -1.7610
 2004TIP3    H230208   5.087   6.334   7.711  1.1099 -0.6244  0.7749
 2005TIP3   OH230209   6.779   0.460   7.021  0.6063 -0.3607 -0.6259
 2005TIP3    H130210   6.862   0.478   6.977  0.4141 -1.4423 -1.4818
 2005TIP3    H230211   6.727   0.538   7.007  0.9506 -0.2563 -1.3868
 2006TIP3   OH230212   6.080   6.708   8.530  0.8441  0.4380 -0.3111
 2006TIP3    H130213   6.032   6.694   8.449 -0.0348 -0.3310  0.3222
 2006TIP3    H230214   6.020   6.758   8.585  1.5440  1.2085 -0.2292
 2007TIP3   OH230215   4.934   4.477   8.230 -0.4410 -0.0320  0.4603
 2007TIP3    H130216   4.953   4.497   8.138  2.2193 -2.3306  0.3742
 2007TIP3    H230217   4.904   4.386   8.229  1.5468 -0.7878  1.9538
 2008TIP3   OH230218   1.110   5.125   8.851  0.0627 -0.3332  0.5302
 2008TIP3    H130219   1.071   5.183   8.784  0.5964 -0.6370 -0.0503
 2008TIP3    H230220   1.036   5.101   8.907 -0.1192  1.1518  0.9740
 2009TIP3   OH230221   0.077   3.695   7.725 -0.2007 -1.0810  0.4381
 2009TIP3    H130222   0.148   3.632   7.709 -0.5820 -2.8802  4.4114
 2009TIP3    H230223   0.003   3.640   7.753 -2.0907  0.9610 -0.2968
 2010TIP3   OH230224   6.515   7.422   9.198 -0.0148 -0.4427  0.8091
 2010TIP3    H130225   6.481   7.352   9.143  0.5098  1.9052 -2.8506
 2010TIP3    H230226   6.609   7.423   9.181  0.0226  0.9639  0.9423
 2011TIP3   OH230227   7.438   0.084   9.272 -0.2313 -0.0391  0.5616
 2011TIP3    H130228   7.452   0.074   9.178 -1.3606  0.1116  0.3665
 2011TIP3    H230229   7.487   0.012   9.311  0.6077  0.1511 -0.1048
 2012TIP3   OH230230   5.100   3.706   6.675  0.1125  0.3287  0.4787
 2012TIP3    H130231   5.069   3.648   6.745 -2.0003  0.3707 -0.3645
 2012TIP3    H230232   5.076   3.794   6.705 -0.1877  0.4039  0.0234
 2013TIP3   OH230233   2.419   2.763   8.709 -0.8653  0.1246  0.1799
 2013TIP3    H130234   2.506   2.797   8.731 -1.6230  1.4365  1.3315
 2013TIP3    H230235   2.390   2.719   8.788 -0.9901 -0.9273 -0.4375
 2014TIP3   OH230236   6.828   0.880   9.258 -0.2842 -0.1705  0.0826
 2014TIP3    H130237   6.856   0.858   9.347  1.1105  1.0917 -0.0137
 2014TIP3    H230238   6.836   0.975   9.253  1.0909 -0.3264 -1.8356
 2015TIP3   OH230239   1.482   1.814   7.971 -0.3709  0.6870  0.3951
 2015TIP3    H130240   1.507   1.835   8.061 -1.1983 -0.4785  0.9275
 2015TIP3    H230241   1.558   1.840   7.918  0.8017 -0.0927  1.6187
 2016TIP3   OH230242   2.929   0.897   8.797  0.2809  0.0446 -0.2197
 2016TIP3    H130243   2.962   0.986   8.810 -1.2932  0.6878 -0.3333
 2016TIP3    H230244   2.975   0.866   8.719  0.4928  0.9508 -0.4745
 2017TIP3   OH230245   6.044   6.037   6.716  0.6400  0.1731 -0.3178
 2017TIP3    H130246   6.013   6.122   6.684  4.1192  1.6527 -0.1491
 2017TIP3    H230247   6.058   6.049   6.809  1.1842 -0.5874 -0.2894
 2018TIP3   OH230248   2.656   0.470   9.031  0.2179  0.1658  0.6295
 2018TIP3    H130249   2.715   0.519   9.090 -1.2931  1.8089  0.8634
 2018TIP3    H230250   2.571   0.514   9.040 -1.5064 -3.0320  1.4621
 2019TIP3   OH230251   5.636   7.043   8.597  0.2668  0.1881 -0.4378
 2019TIP3    H130252   5.580   7.109   8.556 -1.3233 -1.6930 -1.4897
 2019TIP3    H230253   5.576   6.971   8.617  1.6457 -0.3655  2.0802
 2020TIP3   OH230254   0.752   3.666   8.805 -0.1604  0.6456  0.1289
 2020TIP3    H130255   0.692   3.625   8.868 -0.7297  1.2883  0.0172
 2020TIP3    H230256   0.703   3.671   8.724  2.2286 -5.1826 -2.2288
 2021TIP3   OH230257   5.949   2.481   8.441  0.2586 -0.3404 -0.0799
 2021TIP3    H130258   5.856   2.461   8.432 -0.3651  1.7647  0.9829
 2021TIP3    H230259   5.994   2.414   8.388 -1.9784  0.2429 -2.9662
 2022TIP3   OH230260   2.778   5.932   9.118  0.1090 -0.4293 -0.6582
 2022TIP3    H130261   2.730   5.929   9.036  1.2436 -0.6733 -1.3456
 2022TIP3    H230262   2.795   5.840   9.139 -0.8382 -0.4108  0.2778
 2023TIP3   OH230263   3.403   3.407   8.949  0.2341 -0.5723  0.0163
 2023TIP3    H130264   3.471   3.468   8.920  0.7985 -1.9139 -1.6616
 2023TIP3    H230265   3.321   3.448   8.923  0.6224 -0.6378 -1.4095
 2024TIP3   OH230266   3.057   6.723   8.361  0.3183 -0.1313 -0.4392
 2024TIP3    H130267   3.149   6.695   8.368  0.2712 -0.3090 -0.5228
 2024TIP3    H230268   3.023   6.714   8.450  0.3345 -0.2360 -0.4430
 2025TIP3   OH230269   2.030   5.495   9.412 -0.4886  0.8964 -0.7944
 2025TIP3    H130270   2.053   5.442   9.336  0.6313  0.5098 -0.2145
 2025TIP3    H230271   1.935   5.490   9.417 -0.4135 -1.3906 -0.5562
 2026TIP3   OH230272   2.037   6.880   7.912 -0.4215 -0.1042  0.6231
 2026TIP3    H130273   2.078   6.878   7.825 -0.0214 -0.3453  0.8145
 2026TIP3    H230274   2.043   6.790   7.944 -2.0613 -0.3753  0.2277
 2027TIP3   OH230275   7.328   2.182   8.574  0.1626 -0.3820  0.1119
 2027TIP3    H130276   7.415   2.216   8.550  0.4116 -1.7258 -1.0346
 2027TIP3    H230277   7.275   2.194   8.495 -0.7098  0.3982  0.7958
 2028TIP3   OH230278   7.197   2.027   9.185  0.3291  0.5455  0.3655
 2028TIP3    H130279   7.142   1.965   9.136 -0.4110  2.3620 -1.2151
 2028TIP3    H230280   7.153   2.111   9.176  2.3930  1.7314  0.6185
 2029TIP3   OH230281   0.769   3.674   9.239 -0.0145  0.1356 -0.3699
 2029TIP3    H130282   0.862   3.676   9.263  0.2768 -0.4780 -1.4192
 2029TIP3    H230283   0.768   3.641   9.150 -1.2965 -0.5455 -0.1194
 2030TIP3   OH230284   4.197   4.158   8.204 -0.5011  0.0279  0.5594
 2030TIP3    H130285   4.122   4.199   8.248 -0.5816  1.1289 -0.5709
 2030TIP3    H230286   4.158   4.100   8.139 -0.3745 -1.2896  1.6184
 2031TIP3   OH230287   4.199   5.448   8.155 -0.1251  0.4782 -0.3380
 2031TIP3    H130288   4.255   5.412   8.086  2.5915  0.2978  1.8024
 2031TIP3    H230289   4.138   5.377   8.175  1.6165 -0.9817  0.0748
 2032TIP3   OH230290   3.545   1.152   8.304  1.1783  0.1087  0.3824
 2032TIP3    H130291   3.467   1.202   8.325  0.7628 -0.6192  0.6098
 2032TIP3    H230292   3.584   1.199   8.230  0.4350  0.3804  0.1531
 2033TIP3   OH230293   5.623   2.931   7.876 -0.3146  0.3613  0.4088
 2033TIP3    H130294   5.562   2.871   7.921 -0.0995  1.5301  2.3524
 2033TIP3    H230295   5.675   2.873   7.820 -0.7872 -1.1593  1.4514
 2034TIP3   OH230296   4.672   0.254   8.857 -0.5921  0.1679  0.0639
 2034TIP3    H130297   4.719   0.182   8.815 -0.0679  0.4681  0.1330
 2034TIP3    H230298   4.608   0.282   8.791 -0.2025  0.2197 -0.2960
 2035TIP3   OH230299   1.512   1.475   8.160  0.1847  0.5059 -0.0127
 2035TIP3    H130300   1.579   1.540   8.140 -0.5331  1.5019  0.6785
 2035TIP3    H230301   1.436   1.503   8.109 -0.5195  0.9651  1.2456
 2036TIP3   OH230302   1.131   0.267   8.920  0.7741 -0.3181 -0.2727
 2036TIP3    H130303   1.160   0.344   8.968 -1.2567 -0.1298  0.7451
 2036TIP3    H230304   1.180   0.194   8.958  1.8061  0.2892 -0.4119
 2037TIP3   OH230305   0.686   4.943   8.858  0.3410  0.1239 -0.4383
 2037TIP3    H130306   0.614   5.003   8.839  0.4412  0.3082 -0.2427
 2037TIP3    H230307   0.657   4.895   8.936  1.6578  2.3006  1.5155
 2038TIP3   OH230308   5.901   7.106   7.390  0.8746  0.2685 -0.2241
 2038TIP3    H130309   5.913   7.169   7.319 -0.4876  0.6666 -0.1447
 2038TIP3    H230310   5.909   7.157   7.470  0.2109  0.2771 -0.1516
 2039TIP3   OH230311   6.402   3.317   7.824  0.0035  0.1459  0.0235
 2039TIP3    H130312   6.408   3.373   7.902  0.1118  0.3560 -0.1368
 2039TIP3    H230313   6.462   3.244   7.843 -0.3208 -0.0451  0.3363
 2040TIP3   OH230314   5.655   2.540   8.884  0.0620 -0.2202  0.2264
 2040TIP3    H130315   5.641   2.447   8.903  1.0954 -0.4887 -0.1966
 2040TIP3    H230316   5.595   2.559   8.812  1.5461 -1.2556 -1.3948
 2041TIP3   OH230317   2.012   0.213   8.319  0.1781 -0.5099 -0.0328
 2041TIP3    H130318   2.071   0.149   8.281  1.0987 -0.7590  1.7263
 2041TIP3    H230319   1.991   0.178   8.405  0.2075  1.2358  0.7264
 2042TIP3   OH230320   5.604   3.987   7.108 -0.3530 -0.4136  0.2272
 2042TIP3    H130321   5.584   4.059   7.168 -1.2403  0.6384 -1.2786
 2042TIP3    H230322   5.626   4.029   7.025 -4.0452 -1.7718 -1.6904
 2043TIP3   OH230323   4.849   2.930   8.753 -0.0934 -0.5558 -0.1523
 2043TIP3    H130324   4.803   2.998   8.703 -0.6532  0.0525  1.1252
 2043TIP3    H230325   4.802   2.927   8.836 -2.0001 -4.5966 -1.1571
 2044TIP3   OH230326   2.341   7.117   9.269 -0.0526 -0.1112  0.5863
 2044TIP3    H130327   2.378   7.075   9.191 -0.4123  0.4983  0.0677
 2044TIP3    H230328   2.416   7.130   9.327  0.1739 -0.8330  0.4629
 2045TIP3   OH230329   5.707   7.225   7.107 -0.1687 -0.0565 -0.1569
 2045TIP3    H130330   5.679   7.155   7.165  0.8564 -0.6090 -0.2984
 2045TIP3    H230331   5.778   7.187   7.055 -0.0328  0.8849 -0.6962
 2046TIP3   OH230332   5.910   4.438   9.346 -0.4149 -0.7591 -0.0046
 2046TIP3    H130333   5.976   4.378   9.310 -0.0265 -1.1759  1.3208
 2046TIP3    H230334   5.924   4.520   9.298  0.6340 -1.0375 -0.2192
 2047TIP3   OH230335   0.077   4.649   7.880  0.1142 -0.1852  0.1559
 2047TIP3    H130336   0.170   4.649   7.857  0.0556  1.5815 -0.1692
 2047TIP3    H230337   0.037   4.708   7.816 -1.3514 -1.4085 -0.0944
 2048TIP3   OH230338   4.733   5.932   7.474 -0.3021  0.4535 -0.0349
 2048TIP3    H130339   4.742   5.978   7.557  0.5746  1.9237 -0.9062
 2048TIP3    H230340   4.640   5.937   7.453 -0.4681  0.3877  0.6648
 2049TIP3   OH230341   2.768   5.049   7.448  0.0908 -0.0798 -0.1275
 2049TIP3    H130342   2.723   5.093   7.520 -0.9089 -0.9668 -0.1861
 2049TIP3    H230343   2.860   5.075   7.458 -0.1677  0.4849  0.9536
 2050TIP3   OH230344   6.180   2.887   8.917  0.4363  0.5230 -0.8187
 2050TIP3    H130345   6.097   2.913   8.876 -0.1255 -1.1146 -0.8317
 2050TIP3    H230346   6.194   2.951   8.987 -0.6195  1.0791 -1.0947
 2051TIP3   OH230347   4.861   2.438   9.130  0.5772 -0.5013 -0.4445
 2051TIP3    H130348   4.766   2.454   9.132  0.7298  0.5344 -0.8930
 2051TIP3    H230349   4.873   2.377   9.057  0.2475 -0.7346 -0.3095
 2052TIP3   OH230350   5.592   3.690   7.928  0.2415  0.2252  0.3719
 2052TIP3    H130351   5.660   3.627   7.905 -1.7527 -2.5615  1.4900
 2052TIP3    H230352   5.557   3.720   7.844 -0.1899 -1.9412 -0.2836
 2053TIP3   OH230353   5.341   7.257   8.652 -0.0857 -0.0781 -0.4584
 2053TIP3    H130354   5.358   7.163   8.660 -0.6630 -0.2130 -0.8050
 2053TIP3    H230355   5.357   7.277   8.560 -1.1576 -0.0843 -0.6552
 2054TIP3   OH230356   3.924   0.726   7.277 -0.1538 -0.2513 -0.0545
 2054TIP3    H130357   3.863   0.757   7.344  0.5315  1.2805 -0.1075
 2054TIP3    H230358   3.978   0.661   7.322 -0.3667  0.0223  0.6142
 2055TIP3   OH230359   2.339   4.565   7.588  0.3914  0.2226 -0.0491
 2055TIP3    H130360   2.298   4.491   7.634 -1.2054  1.0039 -0.1434
 2055TIP3    H230361   2.304   4.559   7.499 -0.2239  1.4007  0.0917
 2056TIP3   OH230362   5.109   4.423   6.881  0.3188  0.8069 -0.1775
 2056TIP3    H130363   5.104   4.468   6.796  0.4965  0.6090 -0.2952
 2056TIP3    H230364   5.187   4.368   6.874  1.2651  2.0116  0.7101
 2057TIP3   OH230365   6.722   6.304   7.162 -0.0447 -0.5232 -0.1151
 2057TIP3    H130366   6.729   6.210   7.175  0.1542 -0.6004 -0.7203
 2057TIP3    H230367   6.748   6.317   7.070  1.7479  0.3191  0.4521
 2058TIP3   OH230368   7.062   0.425   7.534  0.1117 -0.2811 -0.0496
 2058TIP3    H130369   7.035   0.409   7.444 -0.3646 -0.5874  0.1411
 2058TIP3    H230370   7.032   0.514   7.553  0.3720 -0.1500 -0.2492
 2059TIP3   OH230371   1.029   2.805   8.021  0.2483 -0.6341 -0.4925
 2059TIP3    H130372   1.007   2.779   7.932 -0.9977 -1.1303 -0.0502
 2059TIP3    H230373   1.104   2.864   8.011 -0.8618  0.6028 -1.9957
 2060TIP3   OH230374   5.823   7.342   9.107  0.2724  0.1463  0.0611
 2060TIP3    H130375   5.838   7.437   9.109  1.2550 -0.0024  0.5357
 2060TIP3    H230376   5.859   7.314   9.023  1.4524 -0.0083  0.5925
 2061TIP3   OH230377   6.846   5.730   7.137  0.0324  0.8542 -0.3951
 2061TIP3    H130378   6.835   5.746   7.043 -0.9269  1.6991 -0.1622
 2061TIP3    H230379   6.936   5.699   7.146 -0.7504 -2.2450 -1.9522
 2062TIP3   OH230380   3.767   0.953   9.025 -0.1674  0.2061  0.0641
 2062TIP3    H130381   3.820   0.982   8.951  1.0684 -0.8803  0.4713
 2062TIP3    H230382   3.820   0.885   9.067 -1.1099  0.3552  1.5792
 2063TIP3   OH230383   1.750   5.969   8.641 -0.2389 -0.2301  0.1558
 2063TIP3    H130384   1.669   5.929   8.608  0.6277 -1.7021 -0.2971
 2063TIP3    H230385   1.819   5.914   8.605  1.0459  1.7526 -0.5219
 2064TIP3   OH230386   1.730   3.174   9.479 -0.4859 -0.0431  0.7479
 2064TIP3    H130387   1.648   3.218   9.501  0.6220  1.9967  1.0751
 2064TIP3    H230388   1.798   3.239   9.500  1.1589 -1.3520 -0.3082
 2065TIP3   OH230389   3.487   1.959   7.375  0.3848 -0.2460  0.6309
 2065TIP3    H130390   3.569   2.001   7.401  0.8072 -0.3615 -0.4794
 2065TIP3    H230391   3.485   1.968   7.280 -0.0938 -1.7252  0.4901
 2066TIP3   OH230392   4.447   6.028   8.048  0.2553 -0.3068 -0.2766
 2066TIP3    H130393   4.440   6.072   7.963  0.6515  0.2494 -0.0305
 2066TIP3    H230394   4.385   5.956   8.043 -0.7708  0.5726 -0.5237
 2067TIP3   OH230395   1.348   2.878   8.297  0.0062  0.1261  0.4235
 2067TIP3    H130396   1.279   2.908   8.356 -0.9291 -0.8458 -0.1341
 2067TIP3    H230397   1.364   2.952   8.238 -0.5652  0.3544  0.5528
 2068TIP3   OH230398   7.093   2.993   8.276  0.1430 -0.2711  0.0052
 2068TIP3    H130399   7.136   3.069   8.238  0.3540 -0.7662 -0.7735
 2068TIP3    H230400   7.000   3.011   8.269  0.1587 -0.6726 -1.4464
 2069TIP3   OH230401   3.073   7.310   8.835  0.2150 -0.9540 -0.4831
 2069TIP3    H130402   3.134   7.383   8.839  0.8526 -1.5277  0.6640
 2069TIP3    H230403   3.028   7.321   8.751  0.9525  0.2172 -0.7457
 2070TIP3   OH230404   1.120   7.447   7.824  0.2803  0.3748 -0.0963
 2070TIP3    H130405   1.142   7.457   7.916  2.2387  0.1725 -0.4984
 2070TIP3    H230406   1.094   7.535   7.796 -0.8860  0.3222  0.7491
 2071TIP3   OH230407   0.080   5.622   7.442  0.3259  0.1670  0.2983
 2071TIP3    H130408   0.148   5.653   7.383 -0.1245 -0.5079 -0.6028
 2071TIP3    H230409   0.011   5.689   7.437 -0.3042 -0.5474 -1.0285
 2072TIP3   OH230410   3.344   5.637   7.799 -0.1036 -0.2110 -0.2074
 2072TIP3    H130411   3.422   5.691   7.792  0.3779 -0.6515  1.3365
 2072TIP3    H230412   3.274   5.691   7.764  0.8549  0.2629 -1.4438
 2073TIP3   OH230413   7.395   5.519   8.076 -0.7298 -0.0715  0.4956
 2073TIP3    H130414   7.329   5.504   8.143 -1.9236  1.8085 -0.1910
 2073TIP3    H230415   7.345   5.540   7.997  0.6047 -2.8805 -1.2602
 2074TIP3   OH230416   3.857   7.534   7.872  0.0600  0.3991  0.4738
 2074TIP3    H130417   3.951   7.522   7.862  0.0023  0.2219  0.1243
 2074TIP3    H230418   3.824   7.446   7.893 -0.2154  0.1461 -0.9205
 2075TIP3   OH230419   6.171   5.684   7.789 -0.3845  0.4401  0.6607
 2075TIP3    H130420   6.077   5.679   7.805 -0.6064 -0.7781 -0.9019
 2075TIP3    H230421   6.210   5.666   7.875 -1.5541  0.1545  1.1529
 2076TIP3   OH230422   3.102   2.082   8.784  0.5038  0.7981  0.2706
 2076TIP3    H130423   3.057   2.015   8.835 -0.7111  2.3630  1.3610
 2076TIP3    H230424   3.034   2.144   8.760  1.4322  1.2023 -1.5062
 2077TIP3   OH230425   2.657   7.519   7.768  0.1012  0.3208 -0.0142
 2077TIP3    H130426   2.689   7.589   7.711  0.1800  0.4793  0.2253
 2077TIP3    H230427   2.608   7.564   7.837 -0.9475  0.0684 -0.5653
 2078TIP3   OH230428   1.752   6.862   8.389 -0.1447 -0.2003  0.8254
 2078TIP3    H130429   1.696   6.897   8.319  0.0058 -2.0338 -0.2989
 2078TIP3    H230430   1.835   6.909   8.380  0.0751 -0.8114 -0.6718
 2079TIP3   OH230431   7.059   0.983   8.649 -0.6167 -0.0623  0.5406
 2079TIP3    H130432   7.110   0.967   8.569 -0.6723 -0.9562  0.6754
 2079TIP3    H230433   7.120   1.026   8.708 -0.3262 -0.1678  0.3194
 2080TIP3   OH230434   7.674   5.879   8.862 -0.3880 -0.7324 -0.1358
 2080TIP3    H130435   7.737   5.951   8.856 -2.1703  1.0850  1.5131
 2080TIP3    H230436   7.630   5.892   8.946 -2.0918 -2.6913 -0.6316
 2081TIP3   OH230437   4.194   5.807   7.516  0.4958  0.0590 -0.7742
 2081TIP3    H130438   4.126   5.742   7.536 -0.3347  1.4259  1.0511
 2081TIP3    H230439   4.217   5.845   7.600  0.3718  2.7065 -1.8415
 2082TIP3   OH230440   4.153   1.567   7.667 -0.2002  0.9134 -0.3046
 2082TIP3    H130441   4.194   1.485   7.694  1.2253  0.9571 -2.1194
 2082TIP3    H230442   4.223   1.632   7.672 -0.5110  1.3886 -1.6608
 2083TIP3   OH230443   5.678   0.029   8.327  0.0694 -0.2502  0.2277
 2083TIP3    H130444   5.615   0.090   8.288  1.4868  0.4187 -1.0867
 2083TIP3    H230445   5.761   0.075   8.326  0.6915 -1.2449  1.6325
 2084TIP3   OH230446   3.213   1.946   8.573  0.3096  0.3001  0.8454
 2084TIP3    H130447   3.179   1.998   8.646 -1.3300  1.7724 -0.8585
 2084TIP3    H230448   3.140   1.889   8.548 -0.0021  1.4153 -1.0070
 2085TIP3   OH230449   2.051   5.065   7.320  0.0549  0.2369  0.0763
 2085TIP3    H130450   2.108   5.117   7.377  1.5829 -0.3425 -0.8667
 2085TIP3    H230451   2.070   4.974   7.344  0.5396 -0.0066 -1.1686
 2086TIP3   OH230452   6.606   7.519   8.603  0.1758 -0.4813 -0.0070
 2086TIP3    H130453   6.680   7.549   8.657  0.1905 -1.9575  0.8499
 2086TIP3    H230454   6.543   7.591   8.607  0.7965  0.0423  0.7841
 2087TIP3   OH230455   2.952   4.830   9.310  0.3195  0.2211 -0.0265
 2087TIP3    H130456   2.892   4.772   9.356  0.8632  0.1127  0.5577
 2087TIP3    H230457   2.938   4.810   9.217 -0.9648  0.6297  0.0638
 2088TIP3   OH230458   1.958   1.853   8.264 -0.3057 -0.6586  0.7768
 2088TIP3    H130459   1.988   1.936   8.300  0.3140 -0.2839 -0.5171
 2088TIP3    H230460   2.036   1.817   8.220 -0.5744 -1.9049  1.2686
 2089TIP3   OH230461   6.770   5.688   8.737  0.2497 -0.0367  0.1917
 2089TIP3    H130462   6.744   5.760   8.681  0.0033 -0.5662 -0.3826
 2089TIP3    H230463   6.777   5.726   8.825 -1.9927  0.2308  0.2904
 2090TIP3   OH230464   5.831   2.548   7.553  0.2041 -0.1210  0.2663
 2090TIP3    H130465   5.749   2.500   7.552  0.6369 -0.9569  1.4784
 2090TIP3    H230466   5.899   2.480   7.556  1.0223  0.5207 -1.7479
 2091TIP3   OH230467   7.450   1.675   8.180 -0.4119 -0.0359  0.1683
 2091TIP3    H130468   7.373   1.666   8.123 -0.4325 -0.6478  0.2850
 2091TIP3    H230469   7.421   1.639   8.264  0.0508 -0.3963  0.1709
 2092TIP3   OH230470   6.630   1.796   7.644  0.4164 -0.2335 -0.0213
 2092TIP3    H130471   6.718   1.786   7.608 -0.2293  0.7078 -2.0690
 2092TIP3    H230472   6.636   1.762   7.733  2.2285 -2.5945 -0.9154
 2093TIP3   OH230473   5.048   3.512   8.405  0.5077  0.7479 -0.0314
 2093TIP3    H130474   5.072   3.505   8.313 -2.0274  0.9680 -0.7972
 2093TIP3    H230475   5.065   3.604   8.427 -0.9219  1.2818 -0.9836
 2094TIP3   OH230476   4.218   1.861   7.516  0.5506 -0.3511  0.4075
 2094TIP3    H130477   4.261   1.923   7.457  0.6618 -0.9989 -0.2031
 2094TIP3    H230478   4.212   1.908   7.600 -1.3951  1.3276 -0.6083
 2095TIP3   OH230479   1.330   1.337   7.868  0.0027 -0.5187 -0.0298
 2095TIP3    H130480   1.357   1.419   7.910  2.6275 -0.6507 -1.2290
 2095TIP3    H230481   1.309   1.279   7.940 -2.5161  1.3068  0.8458
 2096TIP3   OH230482   5.285   0.446   7.140 -0.2378 -0.4050 -0.3433
 2096TIP3    H130483   5.347   0.437   7.068 -0.8430  0.2127 -0.9528
 2096TIP3    H230484   5.243   0.531   7.126 -1.5128 -0.9799 -0.1783
 2097TIP3   OH230485   2.655   0.681   8.174 -0.4736 -0.0331  0.2582
 2097TIP3    H130486   2.583   0.715   8.122  0.3018  0.4142 -0.5563
 2097TIP3    H230487   2.623   0.683   8.264 -2.1972 -1.7035 -0.2513
 2098TIP3   OH230488   2.872   2.935   8.031  0.2382  0.1110 -0.3178
 2098TIP3    H130489   2.859   2.979   7.947  0.2299  1.5045  0.3838
 2098TIP3    H230490   2.784   2.929   8.069  0.4121  0.8665  0.2364
 2099TIP3   OH230491   5.159   0.753   8.049 -0.3360  0.1306  0.2215
 2099TIP3    H130492   5.089   0.763   7.984 -0.3465  1.7624  0.4452
 2099TIP3    H230493   5.133   0.675   8.099 -0.9217 -0.4804 -0.9732
 2100TIP3   OH230494   4.128   6.204   8.098  0.0467  0.4994  0.1621
 2100TIP3    H130495   4.206   6.258   8.108  0.4828 -0.2153  0.7650
 2100TIP3    H230496   4.082   6.242   8.023  0.2338  1.7986  0.6812
 2101TIP3   OH230497   7.411   3.958   9.565  0.4921  0.1290  0.6741
 2101TIP3    H130498   7.448   3.885   9.614 -0.7511 -0.0036  1.4520
 2101TIP3    H230499   7.433   3.939   9.473  1.0943 -0.6599  0.9715
 2102TIP3   OH230500   7.224   0.945   8.097 -0.3699  0.4551 -0.1106
 2102TIP3    H130501   7.192   0.895   8.172  0.7260  0.8137  0.6191
 2102TIP3    H230502   7.217   0.885   8.023  3.2005 -1.7808  1.1074
 2103TIP3   OH230503   5.354   4.463   7.925  0.0926  0.4691  0.2355
 2103TIP3    H130504   5.446   4.436   7.931 -0.0603  0.0206  0.5706
 2103TIP3    H230505   5.344   4.494   7.835 -0.0910 -1.9388 -0.6247
 2104TIP3   OH230506   3.294   6.191   8.816  0.9107  0.1301 -0.2023
 2104TIP3    H130507   3.292   6.106   8.858  0.2527  0.9995  1.6223
 2104TIP3    H230508   3.365   6.238   8.858  0.7288  0.7767 -0.5991
 2105TIP3   OH230509   4.680   2.325   6.781  0.0581  0.2313 -0.2849
 2105TIP3    H130510   4.762   2.325   6.830 -1.1211 -0.5798  1.7903
 2105TIP3    H230511   4.653   2.233   6.779 -1.3485  0.6121  0.0358
 2106TIP3   OH230512   2.064   6.624   8.027  0.4479  0.3943 -0.4829
 2106TIP3    H130513   2.041   6.534   8.051 -0.0184  0.0173 -2.2212
 2106TIP3    H230514   2.159   6.625   8.024  0.4783  0.1506  0.1766
 2107TIP3   OH230515   3.065   5.279   8.369 -0.3783 -0.9306  0.0956
 2107TIP3    H130516   3.074   5.307   8.278 -1.1336 -1.3471 -0.1168
 2107TIP3    H230517   3.155   5.269   8.400 -0.0812 -2.7536 -1.2160
 2108TIP3   OH230518   4.451   4.132   8.092  0.0867  0.1253 -0.1213
 2108TIP3    H130519   4.358   4.113   8.110  0.5696 -2.5746 -0.0399
 2108TIP3    H230520   4.486   4.158   8.177 -0.5318  0.9136 -0.0976
 2109TIP3   OH230521   1.187   7.601   8.829 -0.9345 -0.0400 -0.5560
 2109TIP3    H130522   1.182   7.665   8.758  1.5509 -0.1516 -0.9088
 2109TIP3    H230523   1.192   7.655   8.908 -0.7027  0.1751 -0.7126
 2110TIP3   OH230524   0.456   2.750   8.840 -0.3514 -0.3251 -0.0835
 2110TIP3    H130525   0.508   2.823   8.872 -1.1628  0.2981 -0.1492
 2110TIP3    H230526   0.491   2.733   8.752  0.5942 -0.7713  0.3739
 2111TIP3   OH230527   3.922   6.420   8.323 -0.1199 -0.5520  0.1755
 2111TIP3    H130528   3.882   6.431   8.409  0.7386 -1.6263  0.7456
 2111TIP3    H230529   4.016   6.433   8.338 -0.1997  2.0329 -1.1557
 2112TIP3   OH230530   1.711   5.333   8.007 -0.0509 -0.4873  0.2707
 2112TIP3    H130531   1.787   5.354   7.955 -0.6161  1.6823  0.2522
 2112TIP3    H230532   1.741   5.338   8.098  0.1774 -1.1708  0.2395
 2113TIP3   OH230533   0.185   1.399   9.298  0.1229  0.2243  0.3008
 2113TIP3    H130534   0.233   1.383   9.217 -2.3582  0.7921 -1.4120
 2113TIP3    H230535   0.196   1.493   9.314 -0.4258  0.3757 -0.1510
 2114TIP3   OH230536   2.845   6.387   8.015  0.3955  0.1804  0.0624
 2114TIP3    H130537   2.822   6.466   8.063 -0.2879 -0.6958  1.2498
 2114TIP3    H230538   2.941   6.388   8.011  0.4237  0.7390  0.6706
 2115TIP3   OH230539   5.834   4.267   8.168 -0.8614 -0.4699  0.4714
 2115TIP3    H130540   5.743   4.274   8.196 -0.2683 -1.9348  3.0987
 2115TIP3    H230541   5.842   4.178   8.134 -0.0960 -0.9158  1.7521
 2116TIP3   OH230542   7.408   2.332   9.181  0.1471 -0.2521 -0.4713
 2116TIP3    H130543   7.487   2.385   9.172 -0.1068 -0.0708 -1.7658
 2116TIP3    H230544   7.439   2.242   9.176  0.4283 -0.2260  0.4968
 2117TIP3   OH230545   0.235   5.561   8.080 -0.2570  0.0462 -0.1391
 2117TIP3    H130546   0.164   5.583   8.140 -0.1779  0.7412 -0.2920
 2117TIP3    H230547   0.309   5.614   8.110  0.4198 -1.1840  0.4487
 2118TIP3   OH230548   1.164   3.362   8.411 -0.1185 -0.3418  0.3551
 2118TIP3    H130549   1.255   3.337   8.397  0.3125  1.5557 -0.6615
 2118TIP3    H230550   1.168   3.429   8.479 -0.3671  1.6364 -1.4561
 2119TIP3   OH230551   2.555   4.177   6.940  0.0284 -0.2314 -0.0078
 2119TIP3    H130552   2.552   4.163   7.035 -0.1509 -0.9034 -0.1074
 2119TIP3    H230553   2.599   4.099   6.906 -0.1041 -0.0952 -0.4957
 2120TIP3   OH230554   2.489   0.662   9.291  0.4741 -0.2246  1.0132
 2120TIP3    H130555   2.465   0.738   9.237  0.0013 -1.1916 -0.1959
 2120TIP3    H230556   2.583   0.652   9.277  0.4493 -0.1522  0.7861
 2121TIP3   OH230557   5.093   2.138   8.225 -0.2226 -0.5878  0.1377
 2121TIP3    H130558   5.002   2.163   8.243 -1.8660 -4.3111 -1.7939
 2121TIP3    H230559   5.118   2.192   8.150 -2.0066 -1.5343 -1.2117
 2122TIP3   OH230560   5.113   4.669   7.453 -0.1057  0.7256  0.4256
 2122TIP3    H130561   5.068   4.622   7.383 -1.1846  1.3160  0.6929
 2122TIP3    H230562   5.117   4.606   7.525  1.3023  0.0061 -0.2514
 2123TIP3   OH230563   4.897   4.774   8.264 -0.3158 -0.1672 -0.3091
 2123TIP3    H130564   4.868   4.683   8.254 -0.9363 -0.3492  2.4565
 2123TIP3    H230565   4.979   4.778   8.215  2.2806 -3.6107  3.1713
 2124TIP3   OH230566   2.809   7.163   8.444 -0.0960  0.7743 -0.4114
 2124TIP3    H130567   2.860   7.177   8.524 -0.9270  1.1734  0.0558
 2124TIP3    H230568   2.865   7.107   8.390  0.5139  0.5703  0.4099
 2125TIP3   OH230569   4.714   0.896   9.049  0.1590  0.4455  0.5705
 2125TIP3    H130570   4.647   0.839   9.011  0.3979 -0.0352  0.8607
 2125TIP3    H230571   4.779   0.836   9.086  0.3463  0.9045  1.0054
 2126TIP3   OH230572   5.867   0.655   7.952 -0.0829 -0.0878 -0.1715
 2126TIP3    H130573   5.914   0.725   7.907  1.7311  0.4053  2.2760
 2126TIP3    H230574   5.780   0.692   7.968  0.1483  0.7758 -0.8116
 2127TIP3   OH230575   7.616   3.257   8.427 -0.1498 -0.0071 -0.2823
 2127TIP3    H130576   7.596   3.219   8.513  0.5388  1.2186  0.4473
 2127TIP3    H230577   7.688   3.318   8.444 -2.1653  2.7857 -1.0673
 2128TIP3   OH230578   1.385   4.344   9.560  0.2933 -0.0280  0.0765
 2128TIP3    H130579   1.387   4.364   9.466 -2.3326 -0.3330 -0.1237
 2128TIP3    H230580   1.310   4.394   9.593  0.0812 -1.2989  1.6325
 2129TIP3   OH230581   5.454   5.792   6.657 -0.1692  0.9837  0.8357
 2129TIP3    H130582   5.497   5.823   6.736 -1.0947  0.5073  1.5393
 2129TIP3    H230583   5.458   5.866   6.596  2.0694  0.8102  0.6759
 2130TIP3   OH230584   0.127   0.034   7.232  0.2381  0.6522 -0.3271
 2130TIP3    H130585   0.059   0.063   7.293 -0.5225  1.1369 -1.3576
 2130TIP3    H230586   0.081   0.026   7.148  0.9693 -1.2009 -0.6019
 2131TIP3   OH230587   0.205   1.305   7.710 -0.4252 -0.0286 -0.7742
 2131TIP3    H130588   0.267   1.371   7.681  0.0178 -0.4127 -0.7104
 2131TIP3    H230589   0.248   1.221   7.694  0.1632 -0.2711  1.5997
 2132TIP3   OH230590   6.274   0.490   8.819 -0.0495  0.1634 -0.2012
 2132TIP3    H130591   6.287   0.553   8.749  0.8650  0.3285  0.1115
 2132TIP3    H230592   6.287   0.540   8.899  0.9997 -0.4896  0.0443
 2133TIP3   OH230593   6.196   3.081   7.729 -0.0508 -0.1289 -0.3021
 2133TIP3    H130594   6.229   2.994   7.705 -1.4393 -1.1606  1.3311
 2133TIP3    H230595   6.201   3.083   7.825 -1.2668  1.0880 -0.2338
 2134TIP3   OH230596   3.006   7.344   7.213  0.5232  0.3075  0.0627
 2134TIP3    H130597   2.948   7.365   7.140  0.5855  0.0792 -0.0537
 2134TIP3    H230598   3.055   7.425   7.228  0.4990  0.3607 -0.1394
 2135TIP3   OH230599   3.112   2.503   7.994 -0.3376  0.2301  0.3131
 2135TIP3    H130600   3.026   2.475   8.026 -0.4308 -0.4378 -0.4862
 2135TIP3    H230601   3.120   2.462   7.908  0.8105  0.2462  0.4028
 2136TIP3   OH230602   3.607   0.821   9.234 -0.2047  0.3384  0.1211
 2136TIP3    H130603   3.591   0.890   9.298 -1.6673  1.2016 -1.1017
 2136TIP3    H230604   3.647   0.866   9.160 -0.9896 -0.1433 -0.6131
 2137TIP3   OH230605   3.215   3.986   7.298 -0.2605  0.1154 -0.0337
 2137TIP3    H130606   3.264   3.907   7.321  1.7720  1.7435  1.6708
 2137TIP3    H230607   3.256   4.015   7.216 -2.4448 -1.6369 -1.8630
 2138TIP3   OH230608   2.585   0.107   7.890  0.0330 -0.5052  0.3118
 2138TIP3    H130609   2.616   0.115   7.800 -2.1014 -0.2409 -0.4343
 2138TIP3    H230610   2.659   0.138   7.943  1.2017 -0.3371 -1.3325
 2139TIP3   OH230611   2.000   3.986   8.324 -0.1172  0.4499  0.0930
 2139TIP3    H130612   2.048   3.905   8.304 -0.0476  0.4161  0.3950
 2139TIP3    H230613   1.963   3.971   8.411 -2.2578 -0.2806 -0.8454
 2140TIP3   OH230614   1.639   4.800   9.138  0.5371 -0.3434  0.3156
 2140TIP3    H130615   1.603   4.780   9.224 -0.6047 -1.9772 -0.4867
 2140TIP3    H230616   1.686   4.721   9.113 -0.1553 -0.3588 -1.0333
 2141TIP3   OH230617   2.670   5.278   8.766  0.1821  0.0674  0.3744
 2141TIP3    H130618   2.761   5.275   8.794 -0.2049 -1.0314  1.6116
 2141TIP3    H230619   2.619   5.281   8.847 -0.9208 -1.3494 -0.2166
 2142TIP3   OH230620   3.026   0.710   8.010 -0.0290 -0.5865 -0.0544
 2142TIP3    H130621   2.944   0.720   7.962  0.2594 -1.0415 -0.6524
 2142TIP3    H230622   3.078   0.650   7.957  0.7341 -0.2239  0.2711
 2143TIP3   OH230623   6.006   1.135   6.823 -0.2889  0.0779  0.2565
 2143TIP3    H130624   5.935   1.078   6.852 -0.1360 -0.2197  0.0643
 2143TIP3    H230625   6.043   1.171   6.904 -1.1357  0.8318  0.3118
 2144TIP3   OH230626   2.882   5.416   7.946 -0.2496 -0.2816  0.4037
 2144TIP3    H130627   2.887   5.512   7.945 -0.8645 -0.2275  1.3389
 2144TIP3    H230628   2.962   5.389   7.991 -0.8878 -0.1170  1.6735
 2145TIP3   OH230629   5.084   4.493   7.993  0.3724 -0.1128 -0.8904
 2145TIP3    H130630   5.178   4.490   7.975  0.6075  2.0015 -0.3206
 2145TIP3    H230631   5.052   4.567   7.941 -1.1174 -1.1459 -1.5242
 2146TIP3   OH230632   6.318   1.509   8.890 -0.2525 -0.0293  0.0785
 2146TIP3    H130633   6.341   1.416   8.900  0.1266  0.1072  0.5415
 2146TIP3    H230634   6.223   1.510   8.885 -0.1994 -0.5648 -1.3588
 2147TIP3   OH230635   7.163   2.730   9.029  0.2818 -0.6150  0.8222
 2147TIP3    H130636   7.104   2.656   9.016 -0.0954 -0.5223  1.9196
 2147TIP3    H230637   7.235   2.694   9.081  0.5489 -0.4119  0.5987
 2148TIP3   OH230638   2.147   5.998   7.577  0.2120 -0.9156 -1.0889
 2148TIP3    H130639   2.055   6.007   7.604  0.6995 -0.8585  0.7092
 2148TIP3    H230640   2.155   6.053   7.499 -0.8010  0.8353 -0.0363
 2149TIP3   OH230641   7.048   6.056   6.932  0.5380 -0.1879 -0.3709
 2149TIP3    H130642   7.072   6.135   6.982 -1.1466  0.0858  0.0795
 2149TIP3    H230643   7.131   6.012   6.916  1.2668  0.2210  1.8607
 2150TIP3   OH230644   1.254   0.073   9.080  0.3324  0.3848  0.7688
 2150TIP3    H130645   1.323   0.118   9.130  3.2144 -0.5699 -2.0307
 2150TIP3    H230646   1.254  -0.016   9.115  2.2678 -0.2537 -0.6859
 2151TIP3   OH230647   6.442   3.506   6.901  0.0162  0.4391 -0.4329
 2151TIP3    H130648   6.392   3.453   6.839  1.5747 -0.3978 -1.0259
 2151TIP3    H230649   6.533   3.476   6.891  0.2612 -0.2564  2.7681
 2152TIP3   OH230650   2.095   4.408   9.258 -0.6604 -0.3509 -0.1461
 2152TIP3    H130651   2.180   4.420   9.216 -0.2121  0.3777  0.9412
 2152TIP3    H230652   2.078   4.314   9.251  0.4440 -0.5755  0.0246
 2153TIP3   OH230653   1.358   6.859   8.832 -0.2055  0.1811  0.0165
 2153TIP3    H130654   1.421   6.824   8.768  0.3317  1.2155 -0.0501
 2153TIP3    H230655   1.366   6.801   8.907  0.1576 -0.2477 -0.3404
 2154TIP3   OH230656   3.021   0.536   8.396 -0.3498 -0.1522  0.7458
 2154TIP3    H130657   3.093   0.476   8.375  0.5878  1.0815  0.3284
 2154TIP3    H230658   2.942   0.484   8.379  0.4033 -0.8201 -1.0778
 2155TIP3   OH230659   6.925   3.070   7.712  0.5068  0.3598  0.2232
 2155TIP3    H130660   6.965   3.121   7.641 -1.2112  1.1305 -0.2348
 2155TIP3    H230661   6.981   3.087   7.788  0.9338  1.5617 -0.3351
 2156TIP3   OH230662   1.557   2.343   8.929 -1.0316  0.5313 -0.1711
 2156TIP3    H130663   1.463   2.322   8.928 -0.7444 -0.9936  0.9074
 2156TIP3    H230664   1.592   2.299   8.852 -1.1536  0.8397 -0.4034
 2157TIP3   OH230665   2.608   3.499   7.881  0.3939 -0.4871 -0.2095
 2157TIP3    H130666   2.625   3.589   7.851  1.0885 -0.6654 -0.3804
 2157TIP3    H230667   2.647   3.495   7.969  0.4816 -0.6596 -0.2553
 2158TIP3   OH230668   4.800   0.276   8.239 -0.1270  0.1598 -0.5964
 2158TIP3    H130669   4.772   0.308   8.324 -0.3617 -0.6856 -0.3424
 2158TIP3    H230670   4.756   0.333   8.176 -0.2291  0.5677 -0.1581
 2159TIP3   OH230671   2.009   7.040   9.121 -0.2347 -0.1828  0.0369
 2159TIP3    H130672   1.980   7.124   9.156 -0.7666 -0.9531  1.5362
 2159TIP3    H230673   1.973   6.975   9.182  1.3854 -1.4141 -0.2615
 2160TIP3   OH230674   4.867   6.282   7.331  0.2747 -0.3073  0.4798
 2160TIP3    H130675   4.781   6.276   7.291  0.5055  1.3788 -0.3936
 2160TIP3    H230676   4.906   6.196   7.319 -2.0413 -1.8110  2.8515
 2161TIP3   OH230677   4.166   2.073   8.148  0.1430  0.5095 -0.3303
 2161TIP3    H130678   4.257   2.091   8.127  0.0568  0.5928 -0.6397
 2161TIP3    H230679   4.165   2.062   8.243  0.5282  0.2009 -0.3598
 2162TIP3   OH230680   6.424   2.215   6.994  0.4165 -0.1071 -0.3438
 2162TIP3    H130681   6.336   2.207   7.031  0.2277  0.2834 -0.7020
 2162TIP3    H230682   6.483   2.209   7.069  0.0654  0.0811 -0.0534
 2163TIP3   OH230683   3.153   5.679   7.451  0.2245 -0.6486 -0.3092
 2163TIP3    H130684   3.107   5.597   7.435 -0.1396 -0.4873 -0.1280
 2163TIP3    H230685   3.207   5.692   7.374  0.4179 -1.1461 -0.2608
 2164TIP3   OH230686   2.753   7.004   7.302  0.4269 -0.3459 -0.2048
 2164TIP3    H130687   2.707   7.081   7.334  0.7330 -0.8276  1.4838
 2164TIP3    H230688   2.846   7.023   7.319  0.4429 -1.4183  1.0793
 2165TIP3   OH230689   0.735   5.990   6.922  0.3065  0.3923  0.0886
 2165TIP3    H130690   0.667   5.957   6.863  1.2698 -0.7294 -0.4558
 2165TIP3    H230691   0.757   6.077   6.888  0.2229  0.1218 -0.6800
 2166TIP3   OH230692   5.436   6.131   8.662 -0.6679  0.0866 -0.2491
 2166TIP3    H130693   5.429   6.039   8.687 -0.1281  0.1385  0.1197
 2166TIP3    H230694   5.516   6.162   8.706 -0.1322  0.4007 -1.4119
 2167TIP3   OH230695   3.568   5.634   7.489  0.4034 -0.1863 -0.2905
 2167TIP3    H130696   3.595   5.692   7.418  0.7236 -0.3285 -0.2851
 2167TIP3    H230697   3.520   5.690   7.549 -0.5628 -0.2230 -1.0098
 2168TIP3   OH230698   7.225   1.904   8.334  0.0530  0.4175 -0.1627
 2168TIP3    H130699   7.215   1.810   8.326 -0.5625  0.4911 -0.2834
 2168TIP3    H230700   7.254   1.933   8.247  0.5982  0.3001 -0.0251
 2169TIP3   OH230701   5.739   3.085   8.555 -0.7378  0.0020 -0.4199
 2169TIP3    H130702   5.717   3.131   8.636 -0.3055  0.4183 -0.5333
 2169TIP3    H230703   5.663   3.099   8.498 -0.8381  0.1194 -0.2576
 2170TIP3   OH230704   3.844   3.593   7.825 -0.5327 -0.5871 -0.5150
 2170TIP3    H130705   3.913   3.572   7.888 -1.5892  0.1129  0.9596
 2170TIP3    H230706   3.888   3.598   7.740  1.2348  0.0009  0.3925
 2171TIP3   OH230707   3.272   1.669   6.691 -0.7161 -0.1546  0.4810
 2171TIP3    H130708   3.226   1.596   6.731  0.1168 -1.0783 -0.1912
 2171TIP3    H230709   3.357   1.634   6.667 -0.9083  0.5331 -1.4201
 2172TIP3   OH230710   3.175   1.553   8.105 -0.4780  0.2741 -0.5855
 2172TIP3    H130711   3.210   1.507   8.029 -0.1899 -0.7852  0.1656
 2172TIP3    H230712   3.110   1.494   8.142  0.6644 -0.0599  1.0230
 2173TIP3   OH230713   4.747   3.435   8.068 -0.3513  0.0773 -0.2158
 2173TIP3    H130714   4.688   3.388   8.009  0.0269 -1.0045  0.2505
 2173TIP3    H230715   4.823   3.377   8.078 -0.3530  0.2980  1.2372
 2174TIP3   OH230716   5.304   0.842   8.742  0.6744  0.2971 -0.2402
 2174TIP3    H130717   5.346   0.759   8.716 -0.3634 -0.3087 -0.0470
 2174TIP3    H230718   5.245   0.817   8.813 -0.9353  0.8848 -1.3142
 2175TIP3   OH230719   4.764   3.515   8.888  0.1313 -0.0953 -0.3201
 2175TIP3    H130720   4.757   3.577   8.815 -1.1813  0.2785  0.0868
 2175TIP3    H230721   4.795   3.568   8.961  1.1119 -0.3964 -0.5102
 2176TIP3   OH230722   0.266   0.127   8.185  0.2385 -0.3623 -0.5283
 2176TIP3    H130723   0.204   0.120   8.113 -0.7383 -0.5946  0.3141
 2176TIP3    H230724   0.352   0.125   8.143 -0.2341 -2.5567 -1.5603
 2177TIP3   OH230725   5.025   6.599   9.478 -0.5640 -0.1786 -0.1864
 2177TIP3    H130726   4.937   6.581   9.445 -0.0116 -0.5471 -1.5301
 2177TIP3    H230727   5.029   6.554   9.563 -0.8491 -2.3717 -1.2555
 2178TIP3   OH230728   3.584   2.717   6.802  0.4429 -0.2896  0.9228
 2178TIP3    H130729   3.516   2.755   6.747  1.0933 -0.2158  0.1528
 2178TIP3    H230730   3.550   2.631   6.828 -0.7232  0.4925  2.0772
 2179TIP3   OH230731   3.376   0.467   7.522 -0.0739  0.3053 -0.5547
 2179TIP3    H130732   3.308   0.526   7.490  0.3856  1.2237  0.0794
 2179TIP3    H230733   3.421   0.518   7.590  0.2485 -0.8401  0.1232
 2180TIP3   OH230734   5.181   6.924   7.420 -0.2506  0.0137  0.6614
 2180TIP3    H130735   5.109   6.865   7.441 -0.2366  0.1620  1.1375
 2180TIP3    H230736   5.140   6.996   7.371 -0.3608 -0.1091  0.5751
 2181TIP3   OH230737   0.704   6.386   9.341 -0.0708  0.6977 -0.1980
 2181TIP3    H130738   0.673   6.477   9.347 -0.5934  0.4564  1.1156
 2181TIP3    H230739   0.625   6.336   9.319  0.7084  0.8309 -3.7314
 2182TIP3   OH230740   2.566   3.576   8.158  0.1407  0.2341  0.0580
 2182TIP3    H130741   2.530   3.609   8.240 -0.4951 -0.1225 -0.0691
 2182TIP3    H230742   2.491   3.570   8.099  0.4481 -0.2870 -0.2914
 2183TIP3   OH230743   7.638   4.018   8.389  0.7712  0.1081  0.1992
 2183TIP3    H130744   7.640   3.922   8.393  1.2648  0.1381  0.6842
 2183TIP3    H230745   7.660   4.038   8.298  2.0148 -0.2006  0.4151
 2184TIP3   OH230746   1.782   6.833   7.326  0.2030  0.7665  0.0953
 2184TIP3    H130747   1.804   6.912   7.276  1.4492 -0.1581 -0.8820
 2184TIP3    H230748   1.792   6.762   7.263  0.2320 -0.2962  1.2662
 2185TIP3   OH230749   1.818   5.378   8.980 -0.3810  0.4772 -0.0053
 2185TIP3    H130750   1.857   5.293   9.001  1.3941  1.1980 -0.1867
 2185TIP3    H230751   1.756   5.394   9.051  1.2680  0.2290  1.5664
 2186TIP3   OH230752   2.444   1.771   6.782  0.5947  0.1355  0.8029
 2186TIP3    H130753   2.528   1.758   6.738  0.4002 -0.7389  0.6672
 2186TIP3    H230754   2.390   1.817   6.717  0.6748 -0.1267  0.5471
 2187TIP3   OH230755   5.509   2.704   8.019 -0.2375 -0.5214 -0.2911
 2187TIP3    H130756   5.584   2.662   8.062  0.6168  0.6848 -0.5410
 2187TIP3    H230757   5.436   2.644   8.034 -0.0010 -0.1851  2.8602
 2188TIP3   OH230758   1.551   2.775   9.074  0.5085 -0.0931  0.0879
 2188TIP3    H130759   1.624   2.748   9.130  1.2083  1.6220  0.0825
 2188TIP3    H230760   1.550   2.712   9.002  2.2641  0.0854 -0.1311
 2189TIP3   OH230761   1.991   4.391   9.537 -0.2261  0.2155  0.1835
 2189TIP3    H130762   1.925   4.442   9.585  0.2282 -0.4252  1.5465
 2189TIP3    H230763   2.028   4.453   9.474 -0.0823  1.4348  1.4197
 2190TIP3   OH230764   1.294   2.893   7.904 -0.4412 -0.5920  0.2907
 2190TIP3    H130765   1.357   2.876   7.974 -0.5683  0.3617  0.6572
 2190TIP3    H230766   1.301   2.817   7.846  0.5784 -0.8005  0.6647
 2191TIP3   OH230767   1.229   3.632   7.505  0.5562 -0.7814 -0.0814
 2191TIP3    H130768   1.283   3.676   7.571 -0.0520 -0.5666  0.2747
 2191TIP3    H230769   1.150   3.605   7.552 -0.1741 -0.0602 -0.8689
 2192TIP3   OH230770   5.856   5.126   8.264 -0.1980 -0.2085 -0.0294
 2192TIP3    H130771   5.791   5.117   8.194 -0.6005 -0.2512  0.3512
 2192TIP3    H230772   5.825   5.070   8.334  2.2026 -3.3530 -1.2294
 2193TIP3   OH230773   4.547   4.673   9.345  0.1286 -0.9597  0.1829
 2193TIP3    H130774   4.618   4.736   9.360 -0.4721 -0.5855  1.6773
 2193TIP3    H230775   4.532   4.633   9.431 -1.7216 -0.7484 -0.0078
 2194TIP3   OH230776   7.311   3.940   8.921  0.1972 -0.2041  0.0542
 2194TIP3    H130777   7.299   3.846   8.906  0.3388 -0.7834  3.0393
 2194TIP3    H230778   7.325   3.976   8.833 -1.6190 -2.6664 -1.3810
 2195TIP3   OH230779   3.342   1.346   7.989 -0.3818  0.0171 -0.0814
 2195TIP3    H130780   3.363   1.332   7.896 -2.6918 -0.0896 -0.6478
 2195TIP3    H230781   3.350   1.259   8.028 -1.0135 -0.2598 -0.5527
 2196TIP3   OH230782   4.219   7.151   9.600  0.5287 -0.8132 -0.1701
 2196TIP3    H130783   4.298   7.177   9.552 -0.0065  0.3617 -0.4386
 2196TIP3    H230784   4.172   7.094   9.539 -0.2235  0.7956 -1.1386
 2197TIP3   OH230785   3.180   7.191   9.300  0.0886 -0.6668  0.9750
 2197TIP3    H130786   3.252   7.215   9.241 -0.3454 -2.2826 -0.2869
 2197TIP3    H230787   3.102   7.221   9.255 -0.1063  0.8647  2.2339
 2198TIP3   OH230788   2.009   2.018   7.575  0.0432 -0.1376  0.2015
 2198TIP3    H130789   1.957   2.066   7.640  0.1859 -0.5894  0.6565
 2198TIP3    H230790   1.944   1.970   7.523 -0.0357 -0.2527  0.4034
 2199TIP3   OH230791   5.209   2.638   8.749  0.0018  0.0367  0.4727
 2199TIP3    H130792   5.137   2.579   8.729  0.5643 -0.1945 -1.0145
 2199TIP3    H230793   5.171   2.726   8.747 -0.2331 -0.0775 -0.3872
 2200TIP3   OH230794   2.006   5.013   6.852 -0.6499  0.1184  0.1030
 2200TIP3    H130795   1.990   5.078   6.783 -0.7750 -0.0455 -0.0232
 2200TIP3    H230796   2.094   4.981   6.835 -0.7824 -0.1166 -0.1426
 2201TIP3   OH230797   0.318   0.957   9.381 -0.0241 -0.0738 -0.2357
 2201TIP3    H130798   0.323   1.033   9.323  1.1611  0.8305  0.9943
 2201TIP3    H230799   0.409   0.927   9.388 -0.3450 -0.9639  0.1224
 2202TIP3   OH230800   2.628   2.770   7.129  0.0787 -0.0263  0.1197
 2202TIP3    H130801   2.611   2.678   7.149  0.3841 -0.2612 -0.6582
 2202TIP3    H230802   2.723   2.776   7.122 -0.0003 -0.0064 -1.3527
 2203TIP3   OH230803   5.740   4.271   8.812 -0.0959  0.3539  0.5954
 2203TIP3    H130804   5.750   4.295   8.720 -3.3200 -0.4980 -0.1163
 2203TIP3    H230805   5.699   4.348   8.853  2.0803  1.0506  1.5869
 2204TIP3   OH230806   7.672   1.709   8.430  0.0202  1.0710  0.3247
 2204TIP3    H130807   7.619   1.634   8.404  2.0424  0.1019 -1.2843
 2204TIP3    H230808   7.611   1.783   8.430 -1.0605  0.3351 -3.0493
 2205TIP3   OH230809   4.054   1.469   8.231  0.0077 -0.5039  0.1552
 2205TIP3    H130810   4.063   1.525   8.153  1.1717 -1.3920 -0.3790
 2205TIP3    H230811   3.973   1.420   8.216 -1.1311  1.1373  0.7186
 2206TIP3   OH230812   3.157   2.823   9.036  0.4430 -0.1517 -0.2190
 2206TIP3    H130813   3.226   2.864   8.983  1.5507 -1.6662 -0.0058
 2206TIP3    H230814   3.176   2.729   9.032 -0.3554 -0.4342  1.5760
 2207TIP3   OH230815   3.368   2.571   8.019 -0.2389  0.4901 -0.4237
 2207TIP3    H130816   3.274   2.566   8.001 -0.1916  0.6734 -0.7330
 2207TIP3    H230817   3.377   2.544   8.110 -0.4811 -0.4566 -0.6775
 2208TIP3   OH230818   6.311   7.315   7.391 -0.0518  0.3418 -0.4784
 2208TIP3    H130819   6.376   7.306   7.460 -0.1027  0.8002 -0.3737
 2208TIP3    H230820   6.353   7.370   7.325 -0.1894  0.3158 -0.5883
 2209TIP3   OH230821   3.945   4.019   7.188  0.1763 -0.5456  0.6323
 2209TIP3    H130822   3.971   3.928   7.197  0.9344 -0.5800 -1.4058
 2209TIP3    H230823   3.920   4.028   7.096  2.1510  1.7817  0.2258
 2210TIP3   OH230824   6.936   0.168   6.863 -0.6353  0.6862  0.5675
 2210TIP3    H130825   6.930   0.231   6.791  1.3230 -0.9300 -1.1373
 2210TIP3    H230826   6.852   0.121   6.860 -1.0940  1.4990  0.2328
 2211TIP3   OH230827   6.106   2.325   9.122 -0.2551  0.4335 -0.1225
 2211TIP3    H130828   6.189   2.328   9.169 -1.0367  1.4045  1.2850
 2211TIP3    H230829   6.130   2.325   9.030  1.3384 -1.3471  0.2280
 2212TIP3   OH230830   5.566   5.321   7.911  0.2002 -0.0741  0.2731
 2212TIP3    H130831   5.634   5.388   7.899 -0.0403  0.1786  0.3018
 2212TIP3    H230832   5.498   5.344   7.847 -0.6143  0.6682  1.3530
 2213TIP3   OH230833   5.861   0.303   7.989  0.6490 -0.4755  0.4960
 2213TIP3    H130834   5.926   0.295   7.919 -0.2107  2.0279 -0.7021
 2213TIP3    H230835   5.782   0.263   7.953  0.9337 -1.6551  1.1449
 2214TIP3   OH230836   4.566   5.459   8.212  0.5792 -0.2921  0.2402
 2214TIP3    H130837   4.571   5.480   8.305  0.4664 -0.8036  0.3642
 2214TIP3    H230838   4.506   5.525   8.176 -1.3148 -1.5397  0.9758
 2215TIP3   OH230839   2.067   3.028   6.865 -0.1036  0.0713 -0.1817
 2215TIP3    H130840   2.074   2.939   6.832 -0.1133  0.6528 -1.8369
 2215TIP3    H230841   2.140   3.037   6.927  0.2164 -0.8994 -0.4052
 2216TIP3   OH230842   6.733   3.378   7.582 -0.4795  0.2341 -0.4298
 2216TIP3    H130843   6.744   3.283   7.579 -0.3893 -0.0179  3.4043
 2216TIP3    H230844   6.779   3.405   7.661 -2.2563  3.2128 -0.2690
 2217TIP3   OH230845   0.860   3.754   7.529 -0.2222 -0.3287  0.3864
 2217TIP3    H130846   0.883   3.663   7.546 -0.1049 -0.1617  1.1437
 2217TIP3    H230847   0.930   3.804   7.570 -0.3350  0.1116  0.0544
 2218TIP3   OH230848   2.435   7.008   8.901  0.5941  0.1800 -0.1565
 2218TIP3    H130849   2.529   6.988   8.902  1.0831  2.2865 -0.3912
 2218TIP3    H230850   2.413   7.016   8.808  0.4164  0.6420 -0.0773
 2219TIP3   OH230851   1.062   3.236   7.918  0.2636  0.0500 -0.3297
 2219TIP3    H130852   0.979   3.190   7.933  1.7214 -2.4555  0.5716
 2219TIP3    H230853   1.106   3.186   7.850  1.3019  1.0481 -0.4263
 2220TIP3   OH230854   6.982   3.739   7.810  0.1978  0.0637 -0.4800
 2220TIP3    H130855   6.941   3.825   7.820  0.5601  0.3036 -0.9876
 2220TIP3    H230856   7.046   3.735   7.881  2.2773  1.4691 -2.1414
 2221TIP3   OH230857   4.013   5.517   9.472  0.1982 -0.1142  0.8432
 2221TIP3    H130858   4.006   5.467   9.391  0.2440 -0.9277  1.3322
 2221TIP3    H230859   3.959   5.595   9.458  0.3500 -0.1619 -0.0285
 2222TIP3   OH230860   0.884   2.611   9.319  0.3890  0.1410  0.3531
 2222TIP3    H130861   0.873   2.532   9.265 -0.2585 -0.1089  0.8357
 2222TIP3    H230862   0.839   2.591   9.401 -1.2467  1.5987 -0.1206
 2223TIP3   OH230863   6.474   4.561   7.723  0.4413  0.1393 -0.3555
 2223TIP3    H130864   6.530   4.563   7.645  0.0811  0.5198 -0.6124
 2223TIP3    H230865   6.398   4.509   7.696  0.7740 -0.5897  0.0705
 2224TIP3   OH230866   0.491   6.881   7.809 -0.6821 -0.5914  0.1919
 2224TIP3    H130867   0.398   6.857   7.805 -0.2802 -2.1733  0.0536
 2224TIP3    H230868   0.538   6.806   7.774  0.6512  0.3572 -0.1425
 2225TIP3   OH230869   2.184   4.016   8.075 -0.1455 -0.1755 -0.6064
 2225TIP3    H130870   2.104   3.967   8.059 -0.7150  0.1663  0.9993
 2225TIP3    H230871   2.155   4.106   8.090  0.0997 -0.5884  3.2323
 2226TIP3   OH230872   1.612   2.189   8.147 -0.1589  0.5717 -0.3956
 2226TIP3    H130873   1.542   2.232   8.196 -0.2406  1.6108 -1.3904
 2226TIP3    H230874   1.655   2.133   8.212 -0.5827  1.5137  0.7390
 2227TIP3   OH230875   5.055   7.299   8.662  0.2780  0.5735  0.0747
 2227TIP3    H130876   5.145   7.283   8.692  0.6485  2.3062 -0.0133
 2227TIP3    H230877   5.065   7.320   8.569 -0.0483  2.0889  0.3655
 2228TIP3   OH230878   5.915   7.312   7.857  0.1294 -0.2129  0.0226
 2228TIP3    H130879   5.941   7.249   7.924  1.2493 -0.1561 -0.3341
 2228TIP3    H230880   5.895   7.392   7.905 -0.6659 -0.6437  0.4230
 2229TIP3   OH230881   4.856   5.195   9.644 -0.3120 -0.5948  0.6547
 2229TIP3    H130882   4.935   5.145   9.625 -0.9507 -1.4729  0.1866
 2229TIP3    H230883   4.787   5.129   9.652 -1.5705  0.2556 -1.9210
 2230TIP3   OH230884   5.748   6.286   8.387 -0.6722 -0.4103 -0.1604
 2230TIP3    H130885   5.810   6.263   8.318 -0.7549 -0.0362 -0.3612
 2230TIP3    H230886   5.662   6.283   8.345 -0.8845 -1.7463  0.3178
 2231TIP3   OH230887   1.357   1.269   9.692 -0.2422 -0.5884 -0.5855
 2231TIP3    H130888   1.302   1.271   9.613 -1.6129 -0.2139  0.3470
 2231TIP3    H230889   1.326   1.343   9.744 -0.6073 -1.8961  1.1171
 2232TIP3   OH230890   3.299   5.136   9.394  0.0008 -0.2308  0.3492
 2232TIP3    H130891   3.225   5.078   9.410 -0.0227 -0.9184 -1.9388
 2232TIP3    H230892   3.275   5.218   9.436 -2.0002 -0.4877 -0.2136
 2233TIP3   OH230893   6.642   6.968   9.146  0.6526 -0.3832 -0.3951
 2233TIP3    H130894   6.613   6.931   9.063  0.5243 -2.3114  0.4461
 2233TIP3    H230895   6.737   6.976   9.138  0.5273  0.5111 -1.1077
 2234TIP3   OH230896   7.409   4.955   7.684 -0.1741 -0.0150  0.2338
 2234TIP3    H130897   7.425   5.025   7.747 -1.9809  1.0975 -0.4722
 2234TIP3    H230898   7.429   4.994   7.599 -0.6612 -0.5106 -0.1178
 2235TIP3   OH230899   2.981   2.430   9.076 -0.1448 -0.3403 -0.5072
 2235TIP3    H130900   2.915   2.472   9.021  0.2030  1.0925  0.1244
 2235TIP3    H230901   3.058   2.487   9.069  1.5207 -2.6103 -2.2351
 2236TIP3   OH230902   5.361   3.619   6.741 -0.8650 -0.3705  0.2203
 2236TIP3    H130903   5.272   3.637   6.710 -0.8254 -2.7415 -1.5855
 2236TIP3    H230904   5.378   3.529   6.713  1.6412 -0.4421  1.6857
 2237TIP3   OH230905   4.345   5.487   7.168 -0.5213  0.2748  0.4571
 2237TIP3    H130906   4.264   5.518   7.127 -1.3194 -0.5658  1.3336
 2237TIP3    H230907   4.358   5.546   7.242 -2.3468 -1.6220  2.4637
 2238TIP3   OH230908   2.443   3.808   8.628  0.1600  0.0151 -0.7064
 2238TIP3    H130909   2.364   3.767   8.591 -0.8941  1.9957 -0.7752
 2238TIP3    H230910   2.482   3.855   8.554  0.3199  0.6412 -0.2217
 2239TIP3   OH230911   3.390   7.271   9.122  0.7384 -0.1398  0.2268
 2239TIP3    H130912   3.424   7.339   9.065  2.2171 -0.5702  0.5564
 2239TIP3    H230913   3.461   7.252   9.184  0.0108 -1.2761  0.7704
 2240TIP3   OH230914   6.445   0.136   8.077  0.8049 -0.1937 -0.2884
 2240TIP3    H130915   6.424   0.053   8.120 -2.3446  0.9879  0.6942
 2240TIP3    H230916   6.498   0.183   8.141  3.0912 -1.5446 -1.0665
 2241TIP3   OH230917   4.885   1.506   9.551  0.2445  0.2416 -0.2481
 2241TIP3    H130918   4.843   1.420   9.547  0.5357  0.0747  0.3017
 2241TIP3    H230919   4.942   1.509   9.474 -0.8595  0.5224 -1.0831
 2242TIP3   OH230920   5.463   5.977   7.954 -0.1307 -0.4523 -0.0822
 2242TIP3    H130921   5.499   5.903   8.002  0.0087 -0.6174 -0.4333
 2242TIP3    H230922   5.439   5.940   7.869  1.1472  0.1645 -0.7437
 2243TIP3   OH230923   6.651   4.961   7.222 -0.6462 -0.3887 -0.7034
 2243TIP3    H130924   6.590   5.031   7.201 -1.3271 -0.9401 -0.5909
 2243TIP3    H230925   6.624   4.888   7.166  0.6679 -0.2704 -1.5523
 2244TIP3   OH230926   4.625   7.191   8.710  0.4369  0.6596 -0.4298
 2244TIP3    H130927   4.694   7.127   8.724  0.5140  0.9723  0.7252
 2244TIP3    H230928   4.658   7.248   8.640  1.3659  0.8251  0.1397
 2245TIP3   OH230929   6.486   4.137   9.038 -0.0075 -0.0059  0.3080
 2245TIP3    H130930   6.419   4.130   9.105  0.5520 -2.0735  0.7405
 2245TIP3    H230931   6.439   4.122   8.956  0.0199 -3.1363  0.7128
 2246TIP3   OH230932   7.600   0.101   7.834  0.0804  0.2034  0.0718
 2246TIP3    H130933   7.578   0.192   7.813  0.2766  0.3072  0.3147
 2246TIP3    H230934   7.534   0.076   7.900 -3.0484 -1.3501 -3.2752
 2247TIP3   OH230935   3.903   4.177   7.936 -0.1996  0.0018  0.7613
 2247TIP3    H130936   3.939   4.106   7.988 -0.3471 -0.6291  0.0261
 2247TIP3    H230937   3.972   4.197   7.872 -0.6565 -0.3600  0.1481
 2248TIP3   OH230938   2.630   4.292   8.806 -0.3751 -0.6633  0.3105
 2248TIP3    H130939   2.616   4.383   8.833 -2.2370 -1.1324  1.0915
 2248TIP3    H230940   2.605   4.290   8.713  0.2647 -0.2581  0.1276
 2249TIP3   OH230941   3.397   7.018   8.181 -0.5143 -0.5053 -0.0209
 2249TIP3    H130942   3.370   6.927   8.175  0.4914 -0.8387  0.2507
 2249TIP3    H230943   3.463   7.028   8.112 -0.6940  0.0464 -0.1177
 2250TIP3   OH230944   5.659   2.442   7.863  0.0705 -0.5625  0.1535
 2250TIP3    H130945   5.568   2.434   7.891  0.0394  0.0413  0.2457
 2250TIP3    H230946   5.678   2.360   7.817 -0.6238 -0.5574 -0.1486
 2251TIP3   OH230947   6.012   1.412   9.196 -0.6340  0.2378  0.4654
 2251TIP3    H130948   5.954   1.482   9.166  0.1598  0.8658  0.3506
 2251TIP3    H230949   6.083   1.457   9.241 -0.1935 -0.5076  0.5399
 2252TIP3   OH230950   7.215   3.223   6.952 -0.1302 -0.2368 -0.2271
 2252TIP3    H130951   7.282   3.284   6.982  0.0456 -0.2893 -0.5046
 2252TIP3    H230952   7.134   3.275   6.950  0.5298  0.8682 -3.2797
 2253TIP3   OH230953   5.385   5.119   7.705 -0.7351 -0.1982  0.3591
 2253TIP3    H130954   5.447   5.159   7.644 -0.0975 -1.4157  0.1929
 2253TIP3    H230955   5.353   5.193   7.757  0.7831  0.4895  0.3815
 2254TIP3   OH230956   0.859   6.702   7.123 -0.4039 -0.3262  0.0442
 2254TIP3    H130957   0.932   6.680   7.066  0.3108  0.2162  0.7284
 2254TIP3    H230958   0.889   6.779   7.172 -1.1631 -0.5156  0.8360
 2255TIP3   OH230959   4.637   2.207   9.452 -0.0672  0.1224  0.4467
 2255TIP3    H130960   4.602   2.118   9.443  0.5117 -0.2320  1.4443
 2255TIP3    H230961   4.703   2.214   9.383 -0.0290 -0.2802  0.4366
 2256TIP3   OH230962   3.050   1.003   8.540 -0.4227  0.4762 -0.2224
 2256TIP3    H130963   2.957   0.983   8.532 -0.1039 -0.8004 -0.9674
 2256TIP3    H230964   3.090   0.920   8.567  0.6657  0.6543 -1.2127
 2257TIP3   OH230965   6.568   6.716   9.063 -0.3182 -0.0687  0.2244
 2257TIP3    H130966   6.547   6.773   9.138  1.6256 -1.0542  1.6053
 2257TIP3    H230967   6.524   6.633   9.083 -0.1148 -0.2108  0.0802
 2258TIP3   OH230968   5.905   3.205   9.320 -0.4375  0.1901  1.0011
 2258TIP3    H130969   5.890   3.282   9.265  3.7596  0.5895  0.0902
 2258TIP3    H230970   5.896   3.130   9.261 -1.9914  0.1060  1.3021
 2259TIP3   OH230971   0.267   3.306   8.823 -0.3580 -0.1060  0.3018
 2259TIP3    H130972   0.342   3.260   8.859 -0.0406 -0.3081 -0.5819
 2259TIP3    H230973   0.196   3.289   8.884  0.5080  0.8152  1.6164
 2260TIP3   OH230974   0.115   4.363   6.809 -0.2752  0.4854 -0.3535
 2260TIP3    H130975   0.176   4.436   6.817  0.2631  0.2446 -2.0067
 2260TIP3    H230976   0.106   4.349   6.715 -1.2519 -0.8485 -0.0898
 2261TIP3   OH230977   3.761   2.334   7.003  0.6009 -0.1390  0.0907
 2261TIP3    H130978   3.803   2.267   6.950  1.3000  0.1882  0.2104
 2261TIP3    H230979   3.673   2.301   7.020  0.6334 -0.5963 -0.6180
 2262TIP3   OH230980   7.215   2.727   7.524  0.1055  0.6318  0.0385
 2262TIP3    H130981   7.182   2.692   7.441  0.7645 -2.6745  1.0363
 2262TIP3    H230982   7.147   2.706   7.588  0.4578  1.3574  0.6647
 2263TIP3   OH230983   4.496   6.765   7.614  0.1957  0.0580 -0.4715
 2263TIP3    H130984   4.522   6.739   7.702  0.0965 -0.2927 -0.5446
 2263TIP3    H230985   4.564   6.827   7.586 -0.2260  0.8241  0.1696
 2264TIP3   OH230986   1.151   0.074   7.472 -0.4627 -0.1123  0.4009
 2264TIP3    H130987   1.124   0.147   7.417  0.3776  0.6260  0.9500
 2264TIP3    H230988   1.199   0.016   7.413 -1.4819 -0.4490 -0.1286
 2265TIP3   OH230989   6.757   1.412   9.380 -0.0493  0.3416  0.6331
 2265TIP3    H130990   6.694   1.351   9.341 -0.1687  1.4210 -0.9519
 2265TIP3    H230991   6.808   1.358   9.440 -2.0796 -0.6932  1.5363
 2266TIP3   OH230992   0.318   0.515   8.493  0.0799  0.1706 -0.0614
 2266TIP3    H130993   0.380   0.479   8.430  2.6378  0.2539  2.1767
 2266TIP3    H230994   0.282   0.439   8.538  1.6736  0.1519  1.2879
 2267TIP3   OH230995   7.624   2.985   7.499 -0.5706  0.0966  0.3032
 2267TIP3    H130996   7.687   3.025   7.439  1.2693 -1.3254  1.1721
 2267TIP3    H230997   7.583   2.915   7.448  0.9421 -1.0690  0.5938
 2268TIP3   OH230998   5.317   7.264   7.201 -0.1577 -0.0572 -0.2745
 2268TIP3    H130999   5.325   7.317   7.122  1.5884 -0.1392 -0.2030
 2268TIP3    H231000   5.344   7.323   7.272 -0.8931 -0.2292  0.1538
 2269TIP3   OH231001   6.586   5.805   7.238 -0.0443  0.2062 -0.8397
 2269TIP3    H131002   6.550   5.885   7.199 -0.6159 -0.7237 -2.2733
 2269TIP3    H231003   6.673   5.797   7.200  0.7106  1.0154  0.6057
 2270TIP3   OH231004   6.197   5.219   6.923  0.0405 -0.6426 -0.0074
 2270TIP3    H131005   6.281   5.261   6.905 -0.0276 -0.2782  0.5225
 2270TIP3    H231006   6.212   5.126   6.905  0.5219 -0.5615 -0.0250
 2271TIP3   OH231007   3.226   6.131   7.149 -0.2058 -0.3163 -0.5147
 2271TIP3    H131008   3.230   6.222   7.122  0.6390 -0.3763 -0.6194
 2271TIP3    H231009   3.143   6.124   7.196 -0.1425  0.5785 -0.2439
 2272TIP3   OH231010   1.515   1.036   9.599  0.3394  0.0020 -0.3406
 2272TIP3    H131011   1.528   0.974   9.671 -0.3610 -0.2626 -0.4283
 2272TIP3    H231012   1.453   1.100   9.635  2.8228  2.0552  0.5825
 2273TIP3   OH231013   4.647   4.554   9.096 -0.5912  0.2583 -0.1759
 2273TIP3    H131014   4.621   4.568   9.187 -0.0926  1.2597 -0.1720
 2273TIP3    H231015   4.597   4.619   9.047 -0.6648 -0.1056 -0.5834
 2274TIP3   OH231016   4.599   1.459   8.125 -0.0863 -0.1351  0.1094
 2274TIP3    H131017   4.646   1.380   8.151 -1.7658 -1.5884 -1.0206
 2274TIP3    H231018   4.633   1.480   8.038 -0.1625 -0.0574  0.0975
 2275TIP3   OH231019   2.359   6.441   7.193 -0.2335  1.0770  0.7834
 2275TIP3    H131020   2.285   6.443   7.254 -0.9492 -1.8953  0.1336
 2275TIP3    H231021   2.420   6.379   7.232  1.1354  2.1165  0.3806
 2276TIP3   OH231022   2.259   6.650   7.806 -0.1559 -0.5055  0.4051
 2276TIP3    H131023   2.330   6.585   7.810  0.6656  0.1315 -2.0399
 2276TIP3    H231024   2.182   6.599   7.781 -0.3020 -1.0112  1.8105
 2277TIP3   OH231025   1.281   6.686   9.672 -0.5155 -0.0470  0.4675
 2277TIP3    H131026   1.199   6.731   9.652 -0.8781  0.2462  2.4472
 2277TIP3    H231027   1.255   6.614   9.729  0.6078  0.1634  1.2691
 2278TIP3   OH231028   7.130   6.813   7.514  0.1510 -0.5678  0.5092
 2278TIP3    H131029   7.169   6.757   7.447 -0.1759 -1.1106  0.7671
 2278TIP3    H231030   7.200   6.874   7.537  0.7830 -1.3882  0.8065
 2279TIP3   OH231031   0.391   3.244   6.643  0.4052  0.3944 -0.8232
 2279TIP3    H131032   0.398   3.149   6.653 -1.2647  0.3901  0.7716
 2279TIP3    H231033   0.300   3.259   6.619  0.2402  1.6866  0.4874
 2280TIP3   OH231034   0.355   1.949   7.158  0.4119 -0.2307  0.1296
 2280TIP3    H131035   0.260   1.956   7.150  0.6751  1.5667 -2.5216
 2280TIP3    H231036   0.381   1.887   7.090  1.2946  1.1221 -0.8248
 2281TIP3   OH231037   0.975   0.202   7.935  0.1069 -0.0726  0.2109
 2281TIP3    H131038   0.939   0.145   8.002 -0.2164  0.3148  0.3696
 2281TIP3    H231039   0.985   0.146   7.858  1.4098 -0.7737  0.8489
 2282TIP3   OH231040   2.231   3.795   6.885 -0.4044  0.9000 -0.8599
 2282TIP3    H131041   2.154   3.850   6.902 -0.2132  1.4841 -1.8048
 2282TIP3    H231042   2.199   3.727   6.826 -1.0270 -1.0169  1.5232
 2283TIP3   OH231043   6.468   0.917   9.080 -0.2036  0.5817 -0.0294
 2283TIP3    H131044   6.458   1.006   9.114  0.1046  0.9786 -0.9435
 2283TIP3    H231045   6.473   0.929   8.985 -1.2003 -0.5061 -0.2317
 2284TIP3   OH231046   1.765   5.774   8.902  0.1500 -0.2860  0.4266
 2284TIP3    H131047   1.729   5.854   8.940  0.3085  0.2270 -0.4947
 2284TIP3    H231048   1.759   5.787   8.807  1.8569 -0.6066  0.2474
 2285TIP3   OH231049   4.549   2.138   7.082 -0.4948 -0.9560 -0.7937
 2285TIP3    H131050   4.463   2.097   7.094  0.1464 -2.2191 -0.4283
 2285TIP3    H231051   4.570   2.122   6.990 -1.3566  0.8332 -1.3736
 2286TIP3   OH231052   6.615   4.707   8.528  0.3276  0.5676 -0.6282
 2286TIP3    H131053   6.707   4.687   8.514  0.5915  0.1713  1.4439
 2286TIP3    H231054   6.599   4.784   8.474  1.8316  0.5909 -1.0858
 2287TIP3   OH231055   3.181   2.849   7.520  0.3919  0.1925 -0.7851
 2287TIP3    H131056   3.115   2.824   7.455 -1.4003 -0.1181  1.0329
 2287TIP3    H231057   3.142   2.924   7.565  1.0798 -0.2832  0.6431
 2288TIP3   OH231058   0.880   2.347   8.114  0.5932 -0.5670 -0.1637
 2288TIP3    H131059   0.951   2.375   8.172  1.2132 -0.1803 -1.0901
 2288TIP3    H231060   0.803   2.343   8.171  0.5475  2.6140  0.1532
 2289TIP3   OH231061   1.428   2.029   7.141  0.0439 -0.0764  0.1797
 2289TIP3    H131062   1.500   2.089   7.120  0.4815 -0.7008 -0.1190
 2289TIP3    H231063   1.393   2.003   7.056 -1.1837  0.9825  0.3303
 2290TIP3   OH231064   2.055   3.842   7.505 -0.0763  0.0777  0.3353
 2290TIP3    H131065   1.989   3.781   7.539 -0.4630  0.0391 -0.4580
 2290TIP3    H231066   2.044   3.837   7.410 -0.0842  1.3591  0.2573
 2291TIP3   OH231067   0.012   2.887   9.014  0.2242 -0.3137  0.5923
 2291TIP3    H131068   0.053   2.864   8.931 -0.7157 -2.1153  0.5720
 2291TIP3    H231069   0.043   2.976   9.032  2.0281 -0.6223 -0.6688
 2292TIP3   OH231070   0.779   2.818   7.406  0.0181  0.3149  0.0071
 2292TIP3    H131071   0.744   2.731   7.425 -0.4918  0.3598 -0.7090
 2292TIP3    H231072   0.707   2.865   7.366  0.2746  1.0946  0.4363
 2293TIP3   OH231073   4.254   7.640   7.655  0.0151 -0.0679  0.7536
 2293TIP3    H131074   4.263   7.682   7.570  1.1447 -0.4148  0.6826
 2293TIP3    H231075   4.283   7.706   7.718  1.5634 -0.6161  0.6596
 2294TIP3   OH231076   7.282   1.016   7.639 -0.4952  0.2117  0.2102
 2294TIP3    H131077   7.294   1.102   7.599 -1.8110  0.2240 -0.2143
 2294TIP3    H231078   7.369   0.991   7.670 -0.1763  1.8562  0.6957
 2295TIP3   OH231079   2.261   6.992   8.200  0.6321  0.0783  0.2951
 2295TIP3    H131080   2.273   7.087   8.196  0.1163  0.1935  1.2674
 2295TIP3    H231081   2.256   6.965   8.108  2.5181  0.7461 -0.0560
 2296TIP3   OH231082   1.717   7.185   8.183  0.4851  0.4600 -0.1816
 2296TIP3    H131083   1.706   7.242   8.107  0.0263  0.5569 -0.0492
 2296TIP3    H231084   1.715   7.245   8.258 -0.0912  0.2683 -0.0370
 2297TIP3   OH231085   1.163   1.689   8.219  0.5427  0.1461  0.2698
 2297TIP3    H131086   1.157   1.784   8.227  0.0818  0.1269  0.1842
 2297TIP3    H231087   1.179   1.658   8.309  1.2442  0.3367  0.2174
 2298TIP3   OH231088   1.066   0.922   7.605 -0.4353  0.3225 -0.3861
 2298TIP3    H131089   0.996   0.870   7.567 -0.0600 -0.4729 -0.0221
 2298TIP3    H231090   1.108   0.864   7.669  0.3182  0.9012 -0.3247
 2299TIP3   OH231091   5.030   6.800   8.311 -0.9270  0.1294  0.3061
 2299TIP3    H131092   5.065   6.882   8.276  1.0439 -0.7012  0.2150
 2299TIP3    H231093   5.048   6.735   8.244  0.0400 -0.8848  1.5077
 2300TIP3   OH231094   4.605   0.342   9.101  0.4565  0.4862  0.2079
 2300TIP3    H131095   4.697   0.339   9.130  0.8083  1.6423 -0.7270
 2300TIP3    H231096   4.607   0.304   9.014  0.0063  0.3576  0.2542
 2301TIP3   OH231097   5.577   2.182   6.360  0.1493 -0.3866 -0.3278
 2301TIP3    H131098   5.658   2.131   6.355 -0.8614 -2.2444  1.0739
 2301TIP3    H231099   5.606   2.273   6.357  2.1555 -0.9952 -1.3907
 2302TIP3   OH231100   3.987   0.493   9.167 -0.5315  0.3016  0.1402
 2302TIP3    H131101   3.925   0.558   9.137 -0.6025  0.4720  0.6388
 2302TIP3    H231102   3.961   0.474   9.258 -1.1773 -1.2208 -0.3237
 2303TIP3   OH231103   1.755   0.696   8.674 -0.3343 -0.2346 -0.2075
 2303TIP3    H131104   1.725   0.780   8.706  0.0442 -0.3273  0.4187
 2303TIP3    H231105   1.693   0.672   8.605 -0.3471  0.6279 -0.5087
 2304TIP3   OH231106   1.081   0.664   7.284  0.3654  0.2668 -0.2730
 2304TIP3    H131107   1.157   0.628   7.238  0.2990 -0.3220  0.0703
 2304TIP3    H231108   1.014   0.672   7.217  0.2322 -0.6940 -0.2660
 2305TIP3   OH231109   6.814   3.416   8.013 -0.2586  0.5273 -0.3477
 2305TIP3    H131110   6.846   3.467   7.939  1.0655 -0.2179 -0.3274
 2305TIP3    H231111   6.773   3.480   8.071 -0.1817  1.2950 -1.1224
 2306TIP3   OH231112   5.280   6.176   7.027  0.2720 -0.1939  0.5299
 2306TIP3    H131113   5.339   6.252   7.034 -0.8496  0.8074 -0.4780
 2306TIP3    H231114   5.193   6.215   7.019 -0.3469 -1.6189  0.1988
 2307TIP3   OH231115   6.364   0.610   8.594 -0.1174  0.0598  0.1959
 2307TIP3    H131116   6.444   0.622   8.542 -0.4629 -0.9911 -0.6036
 2307TIP3    H231117   6.293   0.611   8.529 -0.4856 -2.2567  0.4978
 2308TIP3   OH231118   6.383   6.514   7.048  0.1701 -0.1301 -0.5528
 2308TIP3    H131119   6.396   6.607   7.068  0.3239 -0.6824  2.4798
 2308TIP3    H231120   6.298   6.510   7.005 -0.7942  1.2781  1.0845
 2309TIP3   OH231121   4.276   3.037   7.721  0.2542  0.2463  0.1950
 2309TIP3    H131122   4.242   3.045   7.632 -0.4080  0.5433  0.4697
 2309TIP3    H231123   4.200   3.013   7.774  0.7840 -0.6155  0.5775
 2310TIP3   OH231124   1.130   6.767   8.326  0.8228  0.2344  0.2122
 2310TIP3    H131125   1.175   6.826   8.387  0.4676  0.8615 -0.1284
 2310TIP3    H231126   1.118   6.686   8.376  0.8926  0.6058  0.8419
 2311TIP3   OH231127   7.349   7.497   8.269 -0.2723 -0.3769  0.1942
 2311TIP3    H131128   7.433   7.454   8.282 -0.1873 -0.2045  0.2154
 2311TIP3    H231129   7.310   7.451   8.194  0.5398  0.5876 -0.8536
 2312TIP3   OH231130   7.646   2.442   9.212 -0.5030 -0.0323 -0.1889
 2312TIP3    H131131   7.649   2.533   9.241  0.5674  0.0045 -0.3764
 2312TIP3    H231132   7.726   2.403   9.247 -0.5993 -0.7159 -0.7170
 2313TIP3   OH231133   3.737   3.755   7.306  0.0730 -0.4825  0.4716
 2313TIP3    H131134   3.821   3.718   7.333  1.1931  1.9945  0.6962
 2313TIP3    H231135   3.720   3.718   7.220  1.7499 -0.5420  0.1360
 2314TIP3   OH231136   2.236   6.235   9.393 -0.8117 -0.1821 -0.1440
 2314TIP3    H131137   2.256   6.168   9.459  0.2147  1.4154  1.2506
 2314TIP3    H231138   2.298   6.219   9.322 -0.5979 -0.7296  0.1582
 2315TIP3   OH231139   7.013   7.101   6.945 -0.2950 -0.1481 -0.0977
 2315TIP3    H131140   6.981   7.108   6.855 -0.7402  2.9802  0.1815
 2315TIP3    H231141   7.108   7.100   6.937 -0.3306  0.0579 -0.6006
 2316TIP3   OH231142   7.085   4.173   8.369  0.1344  0.2949  0.3226
 2316TIP3    H131143   7.161   4.118   8.386  0.3426  0.0159 -1.2769
 2316TIP3    H231144   7.110   4.259   8.400  0.3305 -0.2073  1.6115
 2317TIP3   OH231145   5.679   6.042   7.532 -0.2089  0.1867  0.0485
 2317TIP3    H131146   5.732   5.980   7.582 -0.7513  0.0565  0.4792
 2317TIP3    H231147   5.601   5.992   7.507  0.3549  0.0480 -1.5380
 2318TIP3   OH231148   3.890   6.797   8.707  0.0239  0.4565 -0.2057
 2318TIP3    H131149   3.835   6.864   8.668  0.6331  2.2586  1.8053
 2318TIP3    H231150   3.833   6.751   8.768 -0.2791 -0.5905 -1.2524
 2319TIP3   OH231151   6.130   7.375   6.766  0.3213 -0.4141  0.2665
 2319TIP3    H131152   6.088   7.289   6.761 -0.8389  0.1976 -2.0460
 2319TIP3    H231153   6.217   7.362   6.729  0.0149 -0.5324 -0.4188
 2320TIP3   OH231154   3.452   4.414   9.247  0.4956  0.0888  0.3008
 2320TIP3    H131155   3.382   4.431   9.184 -0.6856  1.0787  1.8051
 2320TIP3    H231156   3.418   4.344   9.303  0.7571  0.4576  0.9357
 2321TIP3   OH231157   6.862   4.759   8.028 -0.4198 -0.5728 -0.1862
 2321TIP3    H131158   6.862   4.854   8.015 -0.1225 -0.6410 -0.6853
 2321TIP3    H231159   6.795   4.727   7.969 -2.1909 -0.4654  1.6423
 2322TIP3   OH231160   3.768   6.260   8.063  0.1456 -0.4215  0.2078
 2322TIP3    H131161   3.835   6.325   8.045 -0.1577 -0.5506 -1.5984
 2322TIP3    H231162   3.753   6.216   7.978 -0.8182 -1.7134  1.0024
 2323TIP3   OH231163   6.081   0.564   7.139 -0.4112 -0.4887  0.3490
 2323TIP3    H131164   6.088   0.519   7.055 -0.3527 -1.0737  0.6578
 2323TIP3    H231165   6.025   0.640   7.122  1.3402  0.6553 -0.7283
 2324TIP3   OH231166   5.109   6.004   7.746 -0.4416  0.4137  0.1885
 2324TIP3    H131167   5.193   6.021   7.704  0.7630  1.3390  2.7767
 2324TIP3    H231168   5.069   6.091   7.755 -0.8898  0.1790  0.5214
 2325TIP3   OH231169   3.632   5.214   8.862 -0.1318  0.2687  0.0457
 2325TIP3    H131170   3.628   5.288   8.801 -0.5722 -1.2897 -1.9072
 2325TIP3    H231171   3.574   5.149   8.824 -0.8148 -0.6098  2.4331
 2326TIP3   OH231172   4.960   7.347   7.007  0.0731 -0.4326 -0.2318
 2326TIP3    H131173   5.005   7.264   6.990  0.1110 -0.6519  0.8683
 2326TIP3    H231174   5.030   7.409   7.029  0.0136 -0.1935 -0.6971
 2327TIP3   OH231175   0.815   5.751   9.070  0.2315  0.5062  0.2878
 2327TIP3    H131176   0.849   5.718   8.987 -1.4439  1.3145 -0.7809
 2327TIP3    H231177   0.769   5.677   9.108  0.1533  0.4048 -0.0020
 2328TIP3   OH231178   4.414   5.732   8.621 -0.2318  0.4428 -0.5549
 2328TIP3    H131179   4.384   5.686   8.699 -0.7306  0.7263 -0.5778
 2328TIP3    H231180   4.457   5.810   8.654  1.0042 -0.2402 -0.4959
 2329TIP3   OH231181   3.930   6.861   7.500  0.3504 -0.5038  0.3270
 2329TIP3    H131182   3.846   6.831   7.534 -0.6568  0.4217 -1.1918
 2329TIP3    H231183   3.967   6.785   7.456  0.2568 -0.8867  0.8997
 2330TIP3   OH231184   1.156   1.356   7.203 -0.0279  0.4368 -0.4289
 2330TIP3    H131185   1.109   1.425   7.250  1.3336  0.9524  0.2090
 2330TIP3    H231186   1.248   1.378   7.212  0.4081 -1.0589 -0.8677
 2331TIP3   OH231187   2.889   7.051   8.750  0.0630 -0.0732  0.0210
 2331TIP3    H131188   2.984   7.037   8.748 -0.0798 -1.1388  0.5749
 2331TIP3    H231189   2.879   7.138   8.790  0.8304  0.4358 -0.8446
 2332TIP3   OH231190   7.185   0.714   7.279  0.2354  0.2675 -0.1666
 2332TIP3    H131191   7.133   0.668   7.213  0.3907  1.4261 -1.1332
 2332TIP3    H231192   7.266   0.736   7.233  1.0626 -0.4072  0.9452
 2333TIP3   OH231193   3.414   0.848   8.292 -0.3818 -0.4237 -0.1031
 2333TIP3    H131194   3.419   0.758   8.260  0.3549 -0.1459 -0.8111
 2333TIP3    H231195   3.489   0.856   8.351  1.9701  0.8103 -3.0011
 2334TIP3   OH231196   2.427   6.237   7.529  0.4474 -0.3681  0.2342
 2334TIP3    H131197   2.400   6.308   7.588  1.8054  0.2531  0.1369
 2334TIP3    H231198   2.399   6.157   7.574  0.0563  0.1728  0.9745
 2335TIP3   OH231199   6.786   6.442   6.488  0.1796  0.0745 -0.1706
 2335TIP3    H131200   6.699   6.468   6.518  0.3167 -1.0669  1.3457
 2335TIP3    H231201   6.846   6.495   6.540  0.4087 -0.0418 -0.3147
 2336TIP3   OH231202   3.108   0.206   8.077 -0.2456 -0.0962  0.1555
 2336TIP3    H131203   3.125   0.129   8.131 -0.4770  0.5530  1.1840
 2336TIP3    H231204   3.016   0.227   8.093 -0.2105  0.3461 -0.1912
 2337TIP3   OH231205   2.189   5.245   7.493 -0.1746  0.7337  0.2444
 2337TIP3    H131206   2.273   5.200   7.488 -0.9496 -0.8063  0.3431
 2337TIP3    H231207   2.192   5.311   7.424  0.9434  0.4145 -0.0230
 2338TIP3   OH231208   0.722   5.235   7.012  0.5437  0.1640  0.0715
 2338TIP3    H131209   0.678   5.208   6.931 -2.4138  2.4479  0.7299
 2338TIP3    H231210   0.800   5.282   6.982  0.6926 -0.8785 -1.3115
 2339TIP3   OH231211   5.875   0.899   8.989 -0.0938  0.2777 -0.2859
 2339TIP3    H131212   5.848   0.808   8.978 -0.5755  0.5892 -2.0527
 2339TIP3    H231213   5.955   0.894   9.041  1.2691 -1.4008 -2.3316
 2340TIP3   OH231214   5.114   3.358   7.069  0.8223  0.1454 -0.2054
 2340TIP3    H131215   5.146   3.271   7.048 -0.9554 -0.7530  0.5766
 2340TIP3    H231216   5.167   3.385   7.145  1.8420  0.0643 -0.8671
 2341TIP3   OH231217   6.419   3.770   8.870 -0.7026 -0.3313 -0.3956
 2341TIP3    H131218   6.360   3.697   8.853 -0.5025 -0.6204  0.1449
 2341TIP3    H231219   6.507   3.732   8.865 -0.4758  0.3310 -2.4079
 2342TIP3   OH231220   6.618   4.245   7.847 -0.2565  0.3137 -0.3375
 2342TIP3    H131221   6.661   4.259   7.763 -1.5675  0.7391 -0.9718
 2342TIP3    H231222   6.578   4.159   7.839  1.4155 -0.6081  0.6982
 2343TIP3   OH231223   1.275   0.255   6.888  0.2271 -0.3664 -0.1860
 2343TIP3    H131224   1.224   0.322   6.933 -0.1337  0.1237 -1.2812
 2343TIP3    H231225   1.359   0.296   6.871 -0.5365  0.4655 -2.3204
 2344TIP3   OH231226   4.021   7.391   6.917 -0.4560  0.0265  0.5792
 2344TIP3    H131227   3.968   7.429   6.987 -1.0021  0.4727 -0.0689
 2344TIP3    H231228   4.092   7.346   6.963 -0.8563  0.2344  1.4229
 2345TIP3   OH231229   0.474   1.995   8.652 -0.2227 -0.2913  0.0040
 2345TIP3    H131230   0.452   1.902   8.646  1.5246 -0.6735 -1.3291
 2345TIP3    H231231   0.487   2.010   8.746  0.7966 -1.7413  0.1250
 2346TIP3   OH231232   0.472   2.993   6.740  0.6978 -0.7218 -0.1152
 2346TIP3    H131233   0.500   2.914   6.694  2.0135 -0.4262  0.1226
 2346TIP3    H231234   0.486   2.973   6.833 -0.6627 -0.8311  0.0895
 2347TIP3   OH231235   3.989   1.926   8.728  0.1156 -0.0423  0.4889
 2347TIP3    H131236   4.066   1.878   8.699  1.2390  0.9605  1.6992
 2347TIP3    H231237   3.940   1.865   8.782  0.4427 -0.4540  0.3187
 2348TIP3   OH231238   2.646   3.636   7.218 -0.5583 -0.1386  0.4658
 2348TIP3    H131239   2.696   3.618   7.138 -0.3496 -2.0570  0.9717
 2348TIP3    H231240   2.573   3.574   7.215  0.0465 -1.0120  2.2571
 2349TIP3   OH231241   5.683   3.002   7.571 -0.1877 -0.5119 -0.2485
 2349TIP3    H131242   5.688   3.052   7.489 -1.6974 -1.2951 -0.8672
 2349TIP3    H231243   5.760   2.945   7.568  1.1774  1.2308  0.1419
 2350TIP3   OH231244   0.251   2.191   8.618 -0.3657  0.5235 -0.9754
 2350TIP3    H131245   0.323   2.138   8.584 -0.0142  0.6069 -0.3771
 2350TIP3    H231246   0.183   2.185   8.550 -0.6554 -1.3333 -0.5958
 2351TIP3   OH231247   1.293   6.148   9.429 -0.0334  0.2194 -0.5616
 2351TIP3    H131248   1.369   6.173   9.375  0.8477 -3.0973 -1.0574
 2351TIP3    H231249   1.323   6.161   9.519  1.1418 -0.9207 -0.7568
 2352TIP3   OH231250   6.086   2.657   9.471 -0.1824  0.3575 -0.0934
 2352TIP3    H131251   6.071   2.745   9.436 -2.5335  0.2105  0.3310
 2352TIP3    H231252   6.035   2.600   9.413 -0.2359 -0.4739  0.7412
 2353TIP3   OH231253   2.032   0.615   8.354  0.4177 -0.0446 -0.8653
 2353TIP3    H131254   2.008   0.612   8.261  0.4631 -2.5950 -0.8629
 2353TIP3    H231255   2.060   0.526   8.374  2.3696  0.9397  1.1284
 2354TIP3   OH231256   6.839   3.061   8.230 -0.7305  0.5947 -0.3457
 2354TIP3    H131257   6.789   2.987   8.264 -0.3574  1.0018  1.1828
 2354TIP3    H231258   6.774   3.130   8.217 -1.1252 -0.0577 -2.0560
 2355TIP3   OH231259   2.941   4.758   8.410 -0.2198 -0.1419 -0.5376
 2355TIP3    H131260   2.956   4.851   8.427  1.1242 -0.5425  0.6282
 2355TIP3    H231261   3.028   4.718   8.413 -0.8957 -1.6255  0.1568
 2356TIP3   OH231262   0.190   4.718   7.568 -0.4418  0.5750  0.4783
 2356TIP3    H131263   0.240   4.673   7.636  0.9589  1.6402  0.2074
 2356TIP3    H231264   0.130   4.775   7.616 -0.8627 -0.1269  0.8061
 2357TIP3   OH231265   1.762   3.782   8.846  0.6905 -0.5137  0.1331
 2357TIP3    H131266   1.844   3.832   8.842  1.0697 -1.1132  0.3799
 2357TIP3    H231267   1.698   3.839   8.803  1.5675 -0.6962 -1.5342
 2358TIP3   OH231268   2.783   0.418   7.064  0.6750 -0.1564 -0.4047
 2358TIP3    H131269   2.759   0.450   7.151 -2.1476  0.5117 -1.3115
 2358TIP3    H231270   2.776   0.323   7.070 -0.8811 -0.0604 -0.1873
 2359TIP3   OH231271   1.167   2.742   9.017  0.0548 -0.2836  0.0389
 2359TIP3    H131272   1.186   2.746   9.110 -1.0862  1.8319  0.2427
 2359TIP3    H231273   1.115   2.662   9.006 -0.9364  0.1222  1.4662
 2360TIP3   OH231274   7.491   1.787   9.049 -0.0165  0.4969  0.0126
 2360TIP3    H131275   7.417   1.767   9.106 -0.6397 -0.3902 -1.0726
 2360TIP3    H231276   7.499   1.710   8.992  1.2385  0.9209 -0.4101
 2361TIP3   OH231277   2.810   2.945   7.467 -0.2116  0.5176  0.3799
 2361TIP3    H131278   2.877   2.901   7.415  0.3073 -0.5721  1.9167
 2361TIP3    H231279   2.791   3.025   7.418  1.0248  0.0627 -0.9169
 2362TIP3   OH231280   7.592   0.401   9.387  0.6521 -0.5736  0.0089
 2362TIP3    H131281   7.568   0.473   9.330  0.6997  0.0533  0.7628
 2362TIP3    H231282   7.518   0.392   9.447  0.4444 -1.4552 -0.3609
 2363TIP3   OH231283   5.722   2.927   8.843 -0.4900  0.2404  0.3756
 2363TIP3    H131284   5.627   2.930   8.839 -0.4879 -0.5918 -1.0658
 2363TIP3    H231285   5.741   2.859   8.908 -0.9071 -0.3163 -0.0692
 2364TIP3   OH231286   2.581   3.874   6.896  0.1339  0.0584  0.8744
 2364TIP3    H131287   2.544   3.802   6.845  0.0049  0.2883  0.6409
 2364TIP3    H231288   2.661   3.897   6.848  0.3208 -0.1102  1.1028
 2365TIP3   OH231289   3.257   7.421   9.580  0.0002 -0.3351 -0.3242
 2365TIP3    H131290   3.236   7.451   9.492 -2.8766 -0.1609  0.3301
 2365TIP3    H231291   3.220   7.488   9.638  1.1890 -0.8154  1.0623
 2366TIP3   OH231292   6.717   7.011   7.620 -0.0853 -0.1784 -0.0861
 2366TIP3    H131293   6.695   6.955   7.695 -0.7256  1.1879  0.7681
 2366TIP3    H231294   6.787   7.068   7.652  0.4735 -0.3772 -0.9127
 2367TIP3   OH231295   0.941   1.164   9.397 -0.6680 -0.2291 -0.4790
 2367TIP3    H131296   0.904   1.142   9.311 -3.0864 -1.8340  0.8586
 2367TIP3    H231297   0.864   1.180   9.452  0.8556  2.1407  1.0980
 2368TIP3   OH231298   1.503   4.984   8.327  0.1768  0.1136 -0.1433
 2368TIP3    H131299   1.464   4.900   8.303  1.6661 -0.7906  0.4895
 2368TIP3    H231300   1.501   4.985   8.423  0.2088  0.7812 -0.1462
 2369TIP3   OH231301   6.742   5.487   6.626  0.4275  0.0492  0.1065
 2369TIP3    H131302   6.667   5.545   6.609 -1.0728 -1.8481 -0.0882
 2369TIP3    H231303   6.705   5.415   6.677  2.3707 -0.4535  0.8919
 2370TIP3   OH231304   3.559   3.544   9.242 -0.2630 -0.7512 -0.2549
 2370TIP3    H131305   3.623   3.615   9.234 -1.2079  0.0921 -0.5573
 2370TIP3    H231306   3.479   3.580   9.203 -1.1997 -1.4390  0.9823
 2371TIP3   OH231307   2.611   5.021   8.044  0.0365  0.1607  0.0588
 2371TIP3    H131308   2.690   4.968   8.054  0.2671  0.4056 -0.3741
 2371TIP3    H231309   2.641   5.098   7.994 -1.1875 -1.5006 -3.5571
 2372TIP3   OH231310   1.393   3.956   9.351 -0.1570 -0.2005 -0.2344
 2372TIP3    H131311   1.426   3.879   9.397 -0.7027  0.6405  1.6467
 2372TIP3    H231312   1.451   3.965   9.275  0.6516 -1.7437  0.1507
 2373TIP3   OH231313   5.282   0.894   7.590 -0.0351 -0.0653  0.0519
 2373TIP3    H131314   5.249   0.864   7.505 -2.3731  0.5496  0.6645
 2373TIP3    H231315   5.207   0.887   7.649  1.0129  1.2503  1.6346
 2374TIP3   OH231316   3.536   4.024   8.785  0.4265  0.1183 -0.0591
 2374TIP3    H131317   3.524   3.931   8.766  0.8080  0.4584 -2.3626
 2374TIP3    H231318   3.451   4.053   8.817  0.4694 -1.1154  1.2628
 2375TIP3   OH231319   6.221   1.978   8.683 -0.4944 -0.7071  0.1051
 2375TIP3    H131320   6.227   1.953   8.591 -0.5529 -2.4193  0.5203
 2375TIP3    H231321   6.311   1.998   8.709 -0.4727 -0.2700 -0.3060
 2376TIP3   OH231322   2.769   4.673   9.502 -0.2261  0.1474 -0.1599
 2376TIP3    H131323   2.725   4.630   9.575 -0.1188 -0.3784 -0.3942
 2376TIP3    H231324   2.773   4.605   9.434 -1.7355  1.0995 -1.2525
 2377TIP3   OH231325   4.243   2.988   8.175 -0.0910 -0.5998  0.0014
 2377TIP3    H131326   4.279   3.076   8.166 -1.9068  0.3831  1.5891
 2377TIP3    H231327   4.162   2.990   8.123  0.1819 -1.5514 -0.4730
 2378TIP3   OH231328   5.046   4.360   7.490  0.2642 -0.2083  0.0905
 2378TIP3    H131329   5.019   4.269   7.503 -0.2967 -0.5265 -2.8132
 2378TIP3    H231330   4.967   4.411   7.510 -0.0835 -0.5344 -0.4245
 2379TIP3   OH231331   5.284   6.049   6.733 -0.2457  0.2483 -0.2957
 2379TIP3    H131332   5.287   6.109   6.807 -1.8117 -0.6960  0.5820
 2379TIP3    H231333   5.273   5.963   6.772  1.6555 -0.6196 -1.5424
 2380TIP3   OH231334   6.511   2.093   8.467  0.0688 -0.1826 -0.0394
 2380TIP3    H131335   6.491   2.170   8.414  0.2239 -2.0163 -3.0190
 2380TIP3    H231336   6.554   2.032   8.406 -2.3098 -3.6309  1.3761
 2381TIP3   OH231337   0.387   7.083   9.748  0.1119 -0.1526 -0.1319
 2381TIP3    H131338   0.315   7.143   9.729 -0.0098 -0.3356 -0.2514
 2381TIP3    H231339   0.409   7.099   9.839  0.7115  0.7508 -0.4267
 2382TIP3   OH231340   1.866   1.911   6.987 -0.1091 -0.3693  0.5374
 2382TIP3    H131341   1.922   1.866   6.924 -1.0097 -2.3193  1.0488
 2382TIP3    H231342   1.850   1.847   7.056 -0.2390  1.2625  2.1097
 2383TIP3   OH231343   6.328   1.525   7.732 -0.2682 -0.1169 -0.2213
 2383TIP3    H131344   6.294   1.562   7.651  1.7744  1.6023 -0.3937
 2383TIP3    H231345   6.306   1.589   7.799 -1.5484 -1.3132  0.5530
 2384TIP3   OH231346   0.328   4.999   8.254 -0.5426 -0.5859  0.1242
 2384TIP3    H131347   0.403   5.025   8.308  1.0783  2.9087 -3.3084
 2384TIP3    H231348   0.356   4.916   8.214  1.9033  0.8678 -1.4563
 2385TIP3   OH231349   6.975   1.867   9.042 -0.2740  0.6178 -0.4389
 2385TIP3    H131350   7.026   1.787   9.025 -0.1907  1.0993 -2.7417
 2385TIP3    H231351   6.895   1.856   8.990 -0.4450  1.8381 -0.4652
 2386TIP3   OH231352   2.696   1.266   8.088 -0.0651  0.2846 -0.2540
 2386TIP3    H131353   2.632   1.306   8.029 -2.4364 -2.8474 -0.0471
 2386TIP3    H231354   2.662   1.286   8.176 -1.6451 -2.4157 -0.1445
 2387TIP3   OH231355   3.771   4.877   9.211  0.1239 -0.1756  0.0060
 2387TIP3    H131356   3.700   4.881   9.148  0.6542  0.3585 -0.5733
 2387TIP3    H231357   3.812   4.963   9.207  0.6648 -0.4003  0.4857
 2388TIP3   OH231358   4.625   5.591   9.504 -0.4510  0.0138  0.0671
 2388TIP3    H131359   4.592   5.603   9.415 -1.3040  0.9375  0.4895
 2388TIP3    H231360   4.658   5.676   9.530 -2.2105  0.3624  1.3933
 2389TIP3   OH231361   1.028   3.973   8.555  0.2482 -0.1145 -0.0505
 2389TIP3    H131362   1.106   4.026   8.539 -0.8498  1.2873 -1.0202
 2389TIP3    H231363   0.988   3.964   8.468 -1.0398 -0.1922  0.5378
 2390TIP3   OH231364   5.708   2.028   7.571  0.2671  0.2798 -0.0414
 2390TIP3    H131365   5.729   1.953   7.627  0.3372  1.0110  0.9278
 2390TIP3    H231366   5.613   2.033   7.572  0.2278 -0.1370 -0.5911
 2391TIP3   OH231367   5.534   4.405   8.605 -0.1266 -0.0343 -0.1038
 2391TIP3    H131368   5.463   4.435   8.661  0.1297 -0.0571  0.2364
 2391TIP3    H231369   5.579   4.485   8.577  1.1614 -0.1155  1.5961
 2392TIP3   OH231370   0.739   5.334   7.943  0.4760  0.1255  0.0969
 2392TIP3    H131371   0.651   5.364   7.920 -0.4182 -0.5611  2.3787
 2392TIP3    H231372   0.728   5.285   8.024  2.6193 -2.1040 -0.8136
 2393TIP3   OH231373   3.005   4.813   8.981 -0.0103 -0.5266  0.0248
 2393TIP3    H131374   2.929   4.870   8.967  0.8345  0.3088 -1.4862
 2393TIP3    H231375   3.003   4.753   8.907 -0.2360 -1.7394  0.9971
 2394TIP3   OH231376   3.536   1.317   7.320  0.1244 -0.1856  0.2447
 2394TIP3    H131377   3.578   1.255   7.380 -0.2090 -1.2298 -0.5673
 2394TIP3    H231378   3.490   1.262   7.257  0.1790  0.8866 -0.7666
 2395TIP3   OH231379   2.496   2.767   9.342  0.0282  0.8111  0.0221
 2395TIP3    H131380   2.579   2.782   9.297  0.0430 -2.1993 -1.2303
 2395TIP3    H231381   2.430   2.779   9.275 -0.2377 -0.1538  0.0923
 2396TIP3   OH231382   5.639   2.074   9.350 -0.1836  0.1889 -0.3863
 2396TIP3    H131383   5.705   2.005   9.358 -1.4128 -1.1474 -1.2029
 2396TIP3    H231384   5.686   2.149   9.313  1.2980  0.0041  0.9963
 2397TIP3   OH231385   4.844   4.175   7.274  0.4176  0.1313  0.4589
 2397TIP3    H131386   4.751   4.180   7.250  0.5515 -0.1999 -0.1492
 2397TIP3    H231387   4.852   4.093   7.321  0.6341 -0.4700 -0.5941
 2398TIP3   OH231388   1.846   4.386   7.794  0.1582 -0.8839  0.5982
 2398TIP3    H131389   1.884   4.472   7.774 -0.6079 -0.1157  2.2243
 2398TIP3    H231390   1.763   4.406   7.839 -0.1849 -2.4775  0.7483
 2399TIP3   OH231391   1.526   6.563   7.186 -0.5055 -0.3161  0.2820
 2399TIP3    H131392   1.438   6.530   7.170 -0.8184  0.8188 -0.4799
 2399TIP3    H231393   1.524   6.653   7.154  0.2689  0.5146  2.4456
 2400TIP3   OH231394   4.230   1.206   8.261 -0.4476  0.3805 -0.2093
 2400TIP3    H131395   4.193   1.293   8.248 -1.2366  0.1125  0.1260
 2400TIP3    H231396   4.187   1.174   8.341  0.6666  0.1189  0.3064
 2401TIP3   OH231397   2.705   6.970   7.035  0.0975 -0.6745 -0.7700
 2401TIP3    H131398   2.634   6.971   7.100  0.6559  1.4791 -0.1205
 2401TIP3    H231399   2.670   6.917   6.963 -1.6485 -0.7639  0.0848
 2402TIP3   OH231400   7.137   0.773   8.305  0.4350  0.1496 -0.4292
 2402TIP3    H131401   7.172   0.835   8.368 -0.4668  0.2969 -0.0634
 2402TIP3    H231402   7.212   0.718   8.281  0.7177 -0.1105  1.0033
 2403TIP3   OH231403   4.544   1.519   9.392 -0.3530 -0.2913  0.1046
 2403TIP3    H131404   4.595   1.588   9.435  0.3154 -0.1256 -0.9124
 2403TIP3    H231405   4.460   1.560   9.373  0.2846  0.5232 -1.1501
 2404TIP3   OH231406   6.290   3.614   9.108  1.0861  0.4319 -0.0994
 2404TIP3    H131407   6.329   3.669   9.176 -0.0711  1.5549 -0.2920
 2404TIP3    H231408   6.222   3.669   9.069 -0.4373 -1.2799 -0.0282
 2405TIP3   OH231409   2.843   2.217   8.706 -0.0936 -0.6663 -0.2848
 2405TIP3    H131410   2.830   2.198   8.613  0.7527 -2.4198 -0.0925
 2405TIP3    H231411   2.755   2.215   8.743 -0.4078 -0.2537 -1.0003
 2406TIP3   OH231412   0.451   6.503   7.559  0.0726 -0.5098 -0.1780
 2406TIP3    H131413   0.358   6.522   7.561 -0.0807 -1.2475  1.3978
 2406TIP3    H231414   0.458   6.416   7.598  1.3042 -1.0725 -1.5513
 2407TIP3   OH231415   0.658   6.877   8.395 -0.2603 -0.1495 -0.1217
 2407TIP3    H131416   0.630   6.801   8.446  0.8969 -0.8704 -0.5181
 2407TIP3    H231417   0.666   6.844   8.306  0.5034  0.3695 -0.2524
 2408TIP3   OH231418   4.295   3.145   8.660  0.8448  0.3250  0.1462
 2408TIP3    H131419   4.333   3.211   8.602 -0.0325  0.2204 -0.5606
 2408TIP3    H231420   4.209   3.181   8.683 -0.4380 -1.3766 -1.7149
 2409TIP3   OH231421   5.678   0.713   8.143 -0.7084 -0.4905 -0.0478
 2409TIP3    H131422   5.723   0.629   8.148  0.5017  0.0908 -0.7340
 2409TIP3    H231423   5.715   0.765   8.214  0.2488  0.2192 -1.0290
 2410TIP3   OH231424   2.533   4.852   9.417  0.0598  0.6292  0.0167
 2410TIP3    H131425   2.612   4.815   9.457  0.5237  2.1396  0.5709
 2410TIP3    H231426   2.538   4.827   9.325 -0.0086 -1.2286  0.4714
 2411TIP3   OH231427   0.372   0.720   7.675  0.5689  0.0538 -0.5714
 2411TIP3    H131428   0.419   0.769   7.608 -1.4104  1.4364 -1.0466
 2411TIP3    H231429   0.281   0.718   7.644 -0.0898 -0.6784  1.2731
 2412TIP3   OH231430   0.052   2.061   9.255  0.1797 -0.1718  0.1323
 2412TIP3    H131431   0.083   1.971   9.268 -1.0421 -0.6923 -0.4355
 2412TIP3    H231432  -0.022   2.053   9.195  0.9023  1.3654 -1.0445
 2413TIP3   OH231433   1.673   6.544   8.697 -0.6658  0.0801  0.1227
 2413TIP3    H131434   1.631   6.461   8.675 -0.8899  0.4735 -1.0221
 2413TIP3    H231435   1.767   6.523   8.697 -0.7877 -0.5881  1.7604
 2414TIP3   OH231436   0.442   1.439   9.158  0.1013  0.5263  0.2201
 2414TIP3    H131437   0.394   1.519   9.176  0.3204  1.5096 -2.9866
 2414TIP3    H231438   0.531   1.467   9.138  0.4278 -0.6327 -0.0618
 2415TIP3   OH231439   3.737   6.688   9.227  0.1674 -0.6747 -0.1459
 2415TIP3    H131440   3.743   6.637   9.146  0.7908 -0.3863 -0.2889
 2415TIP3    H231441   3.663   6.650   9.275 -0.8795 -0.1666 -1.3175
 2416TIP3   OH231442   5.159   0.004   9.482  0.2838 -0.2832 -0.1266
 2416TIP3    H131443   5.104  -0.074   9.489  0.7138 -0.5800  0.0551
 2416TIP3    H231444   5.099   0.075   9.465 -0.1819 -0.5542  0.3704
 2417TIP3   OH231445   3.270   2.321   7.602  0.1075 -0.1393 -0.6034
 2417TIP3    H131446   3.353   2.278   7.621 -0.0822  0.5601  2.2956
 2417TIP3    H231447   3.295   2.410   7.576  0.3004 -0.0261 -0.0512
 2418TIP3   OH231448   0.576   0.898   9.270 -0.0921 -0.1470 -0.5718
 2418TIP3    H131449   0.638   0.963   9.237  0.4461 -0.9890 -1.2460
 2418TIP3    H231450   0.588   0.822   9.213 -1.9746 -0.2268 -0.9384
 2419TIP3   OH231451   6.748   0.929   8.652  0.2471 -0.2490  0.0261
 2419TIP3    H131452   6.810   0.859   8.674  1.3638  0.2099 -1.5155
 2419TIP3    H231453   6.757   0.993   8.723  0.1228 -1.0726  0.7994
 2420TIP3   OH231454   2.092   4.608   7.756  0.5852  0.2635 -0.0899
 2420TIP3    H131455   2.161   4.610   7.690  0.9245  0.0290  0.2511
 2420TIP3    H231456   2.112   4.682   7.814  0.2120  0.5503 -0.3220
 2421TIP3   OH231457   3.694   2.066   7.508  0.0709  0.1891 -0.0176
 2421TIP3    H131458   3.781   2.070   7.467 -0.7934 -0.0289 -1.9693
 2421TIP3    H231459   3.705   2.004   7.581  1.3889 -0.3844 -0.6702
 2422TIP3   OH231460   3.084   2.723   8.350 -0.1761  0.1763 -0.3697
 2422TIP3    H131461   3.013   2.659   8.351  0.3463 -0.4143 -0.1186
 2422TIP3    H231462   3.147   2.690   8.415 -0.9462  2.1416  1.4946
 2423TIP3   OH231463   2.163   6.156   7.357  0.1510 -0.2949  0.0802
 2423TIP3    H131464   2.187   6.131   7.268  0.1907 -0.3107  0.0951
 2423TIP3    H231465   2.124   6.243   7.348 -0.3758 -0.5386 -0.0253
 2424TIP3   OH231466   2.527   4.119   9.453  0.1569  0.0517  0.1754
 2424TIP3    H131467   2.497   4.031   9.431  0.4028 -0.3962  1.5308
 2424TIP3    H231468   2.513   4.126   9.547 -0.7790  1.8367 -0.0569
 2425TIP3   OH231469   3.008   5.862   9.512 -0.3729  0.7436  0.4836
 2425TIP3    H131470   3.043   5.776   9.536  0.5424  1.3220  1.3095
 2425TIP3    H231471   3.019   5.914   9.591 -1.7326  1.3897  0.2715
 2426TIP3   OH231472   3.504   2.942   8.086  0.0722  0.0429 -0.2358
 2426TIP3    H131473   3.527   2.974   8.174 -0.3398 -0.2831 -0.0076
 2426TIP3    H231474   3.496   2.848   8.096  0.8532 -0.0908 -0.8167
 2427TIP3   OH231475   6.982   5.316   8.425 -0.0340 -0.2918 -0.8359
 2427TIP3    H131476   7.020   5.276   8.503  2.4626  2.5874 -0.3623
 2427TIP3    H231477   6.909   5.369   8.457 -0.4897 -0.9344 -0.8100
 2428TIP3   OH231478   6.781   7.046   7.320 -0.2339 -0.1005 -0.1422
 2428TIP3    H131479   6.827   6.975   7.275 -1.5279 -1.3288  0.3952
 2428TIP3    H231480   6.768   7.013   7.409 -0.9365  0.7865  0.0908
 2429TIP3   OH231481   3.489   6.509   8.500 -0.2044  0.7601  0.7700
 2429TIP3    H131482   3.509   6.450   8.427 -1.1695  1.0577  0.2531
 2429TIP3    H231483   3.560   6.494   8.563 -0.3015 -0.7833  0.5524
 2430TIP3   OH231484   3.566   0.343   7.693 -0.3967 -0.0028  0.1650
 2430TIP3    H131485   3.526   0.273   7.744 -1.4682 -1.2134 -2.1425
 2430TIP3    H231486   3.499   0.367   7.629  0.5519  2.0215 -0.1484
 2431TIP3   OH231487   3.283   4.262   7.195 -0.0159  0.0479 -0.3220
 2431TIP3    H131488   3.201   4.265   7.244  1.8322 -0.1225  3.0623
 2431TIP3    H231489   3.324   4.347   7.212  0.7666 -0.0697 -1.5155
 2432TIP3   OH231490   6.284   0.703   9.015  0.3784 -0.2255 -0.3197
 2432TIP3    H131491   6.208   0.759   9.000 -0.1077 -1.3525 -2.4197
 2432TIP3    H231492   6.349   0.761   9.056 -1.0364  1.1432  0.0959
 2433TIP3   OH231493   2.456   0.779   8.010  0.2878  0.2264 -0.2082
 2433TIP3    H131494   2.494   0.757   7.925  1.1804 -1.5900  0.5906
 2433TIP3    H231495   2.369   0.739   8.009 -0.2954  1.4587 -0.7739
 2434TIP3   OH231496   6.259   2.619   8.092 -0.0978 -0.5792  0.1879
 2434TIP3    H131497   6.224   2.553   8.032 -0.5075 -0.6041  0.4589
 2434TIP3    H231498   6.205   2.613   8.170 -0.1003  0.0365  0.2395
 2435TIP3   OH231499   1.047   4.740   8.291  0.5055  0.1059 -0.2599
 2435TIP3    H131500   0.987   4.791   8.345  0.2586 -1.2769  0.8401
 2435TIP3    H231501   1.050   4.654   8.333  2.3706 -0.2243 -0.9536
 2436TIP3   OH231502   1.277   4.056   7.536  0.1980  0.1268 -0.2522
 2436TIP3    H131503   1.266   4.101   7.620  1.5761  0.3470 -0.1602
 2436TIP3    H231504   1.226   4.108   7.474 -0.9474 -0.1126  0.4562
 2437TIP3   OH231505   0.888   6.751   7.665  0.1965  0.3938  0.1643
 2437TIP3    H131506   0.801   6.713   7.676  0.4211 -0.3858 -0.6116
 2437TIP3    H231507   0.926   6.748   7.753 -0.3565  0.2451  0.4075
 2438TIP3   OH231508   6.228   4.924   6.886  0.1169  0.6139 -0.3472
 2438TIP3    H131509   6.148   4.917   6.834  0.1186 -0.7360 -0.2109
 2438TIP3    H231510   6.292   4.872   6.837  0.4149  0.2314  0.4467
 2439TIP3   OH231511   6.482   3.358   8.377  0.2300  0.6509  0.0234
 2439TIP3    H131512   6.497   3.293   8.446 -1.2136  1.7825  1.4964
 2439TIP3    H231513   6.422   3.421   8.417  0.7403  2.3205 -1.6961
 2440TIP3   OH231514   4.181   1.335   9.375 -0.0119 -0.4783  0.3901
 2440TIP3    H131515   4.148   1.330   9.464 -1.3692  0.1347 -0.0616
 2440TIP3    H231516   4.198   1.243   9.351  0.6133 -0.6227  1.3505
 2441TIP3   OH231517   6.204   0.467   9.162  0.5395  0.2402  0.1948
 2441TIP3    H131518   6.255   0.388   9.146  1.2627  0.5249  1.0344
 2441TIP3    H231519   6.258   0.539   9.128  0.4190  0.4796  0.4961
 2442TIP3   OH231520   5.535   1.076   7.716  0.1276 -0.1549 -0.0133
 2442TIP3    H131521   5.458   1.022   7.733 -0.0282  0.4394  1.2810
 2442TIP3    H231522   5.501   1.152   7.669 -0.0385 -0.0397  0.2882
 2443TIP3   OH231523   2.993   7.572   8.949  0.1457  0.1260 -0.9049
 2443TIP3    H131524   2.960   7.501   9.005  1.0441  0.8152  0.5613
 2443TIP3    H231525   3.084   7.548   8.931  0.9070  1.5037  0.7630
 2444TIP3   OH231526   2.592   0.455   6.851 -0.1539 -0.2892 -0.2024
 2444TIP3    H131527   2.671   0.447   6.905  0.1517 -0.4784 -0.6746
 2444TIP3    H231528   2.599   0.542   6.812  0.4619 -0.7961 -1.2427
 2445TIP3   OH231529   0.013   0.062   8.512 -0.0355 -0.3961 -0.3916
 2445TIP3    H131530  -0.025  -0.025   8.524 -1.3366  0.1416 -0.4543
 2445TIP3    H231531  -0.052   0.122   8.550  2.9373  0.3698  4.2893
 2446TIP3   OH231532   2.914   3.241   7.759 -0.0423 -0.5458  0.5964
 2446TIP3    H131533   2.870   3.251   7.844  0.3099 -2.5062  1.0595
 2446TIP3    H231534   2.855   3.186   7.708 -0.2322  0.5880 -0.4606
 2447TIP3   OH231535   6.317   0.810   7.545 -0.4906  0.0915 -0.1718
 2447TIP3    H131536   6.256   0.745   7.581  1.0374  0.0522  2.6157
 2447TIP3    H231537   6.403   0.777   7.568  0.4885  1.4676 -1.6899
 2448TIP3   OH231538   0.394   1.906   9.137  0.4777 -0.2770  0.0982
 2448TIP3    H131539   0.352   1.945   9.214  0.2283 -0.2110 -0.0726
 2448TIP3    H231540   0.356   1.952   9.062  1.1468  0.0648 -0.0419
 2449TIP3   OH231541   6.171   0.358   7.316 -0.5778 -0.3168 -0.0824
 2449TIP3    H131542   6.140   0.429   7.258  1.6320  0.2326 -0.6742
 2449TIP3    H231543   6.210   0.404   7.391  0.4603 -0.9119 -0.2474
 2450TIP3   OH231544   3.626   6.246   7.119 -0.2999 -0.5923  0.0403
 2450TIP3    H131545   3.589   6.333   7.133  0.2612 -0.0381 -1.5646
 2450TIP3    H231546   3.642   6.243   7.024  1.2070 -1.8173  0.2994
 2451TIP3   OH231547   5.496   5.252   7.010 -0.3072 -0.0917  0.3690
 2451TIP3    H131548   5.515   5.159   6.998  1.3794  0.2353  0.2578
 2451TIP3    H231549   5.577   5.289   7.045 -0.3441  1.6692 -1.2567
 2452TIP3   OH231550   3.899   3.386   8.251 -0.0680 -0.3666  0.6145
 2452TIP3    H131551   3.897   3.299   8.291  1.1389 -1.2894 -1.1877
 2452TIP3    H231552   3.895   3.369   8.156  2.5815  1.3393  0.0833
 2453TIP3   OH231553   5.882   5.784   7.730 -0.1649  0.5827  0.0782
 2453TIP3    H131554   5.936   5.748   7.659 -0.6277  0.8610 -0.4164
 2453TIP3    H231555   5.792   5.770   7.701 -0.3802 -0.3726  1.1483
 2454TIP3   OH231556   6.015   5.419   6.865 -0.1743  0.3858  0.3169
 2454TIP3    H131557   6.075   5.352   6.899 -0.5077  0.2555  0.6538
 2454TIP3    H231558   5.932   5.373   6.853 -0.3536  0.6952  0.3618
 2455TIP3   OH231559   6.071   1.271   8.174 -0.0777  0.3426 -0.4246
 2455TIP3    H131560   6.123   1.217   8.114 -0.9316  0.8653 -1.6775
 2455TIP3    H231561   5.981   1.245   8.157 -0.5681  2.4195 -1.4069
 2456TIP3   OH231562   4.524   7.055   9.560  0.6456  0.4769  0.0746
 2456TIP3    H131563   4.550   7.132   9.611  1.8325  0.4817 -0.4877
 2456TIP3    H231564   4.601   6.997   9.564  0.5117  0.1871 -1.1186
 2457TIP3   OH231565   3.039   0.243   7.803  0.0135 -0.0844  0.1958
 2457TIP3    H131566   3.042   0.223   7.897 -0.8530 -3.0136 -0.2973
 2457TIP3    H231567   3.112   0.194   7.765  1.8294  2.9335 -0.4686
 2458TIP3   OH231568   2.637   6.668   9.105  0.2190  0.2750  0.0703
 2458TIP3    H131569   2.602   6.596   9.053 -0.0170 -0.5787  1.3738
 2458TIP3    H231570   2.729   6.674   9.081  0.1138 -0.1046 -0.4290
 2459TIP3   OH231571   4.055   3.550   8.010  0.5897 -0.5356 -0.2713
 2459TIP3    H131572   4.004   3.470   8.026 -1.5221  0.9552  0.9636
 2459TIP3    H231573   4.100   3.566   8.093  1.2825 -0.5943 -0.6254
 2460TIP3   OH231574   7.188   0.057   7.277  0.3355  0.0707 -0.4579
 2460TIP3    H131575   7.167  -0.028   7.238 -1.3006 -0.9447  2.3027
 2460TIP3    H231576   7.240   0.102   7.211  0.1313 -2.5431 -2.5681
 2461TIP3   OH231577   7.318   5.014   8.745  0.1475  0.1976 -0.0821
 2461TIP3    H131578   7.402   4.979   8.773  0.1522 -0.0142 -0.3567
 2461TIP3    H231579   7.255   4.976   8.806  0.5842  3.0411  2.3777
 2462TIP3   OH231580   0.296   1.350   7.401 -0.3999  0.0639 -0.3448
 2462TIP3    H131581   0.316   1.270   7.450  1.5189 -0.4737 -1.8643
 2462TIP3    H231582   0.360   1.414   7.433  1.3595 -0.4904 -2.4492
 2463TIP3   OH231583   5.649   2.543   9.328  0.5001  0.5076  0.0134
 2463TIP3    H131584   5.627   2.492   9.250  1.0596  0.5676 -0.1918
 2463TIP3    H231585   5.591   2.509   9.397 -0.8828  1.3144 -0.7207
 2464TIP3   OH231586   6.993   7.083   7.700  0.0279  0.1242  0.0127
 2464TIP3    H131587   7.021   7.009   7.754 -0.6184 -1.3588 -1.5953
 2464TIP3    H231588   7.008   7.160   7.755  2.2641 -1.0297  1.1550
 2465TIP3   OH231589   7.355   4.010   6.955  0.5716  0.2789 -0.0830
 2465TIP3    H131590   7.297   3.943   6.919  0.0184 -0.3613  1.8738
 2465TIP3    H231591   7.440   3.968   6.961  0.3251 -0.1201  0.7233
 2466TIP3   OH231592   0.704   4.527   7.276  0.1168 -0.0510  0.1026
 2466TIP3    H131593   0.679   4.437   7.296 -0.4916  0.1619  0.3312
 2466TIP3    H231594   0.645   4.580   7.328  0.4685  0.4837 -0.0366
 2467TIP3   OH231595   4.722   3.045   8.319 -0.0585  0.5050  0.1431
 2467TIP3    H131596   4.714   2.951   8.304 -0.7908  0.6606 -0.5085
 2467TIP3    H231597   4.674   3.086   8.247  0.3632  1.3859  0.3391
 2468TIP3   OH231598   4.716   0.323   8.499  0.2319  0.2371 -0.3792
 2468TIP3    H131599   4.709   0.415   8.525  1.2018  0.0233  0.6702
 2468TIP3    H231600   4.641   0.281   8.541 -0.5678  0.6392 -1.3602
 2469TIP3   OH231601   5.339   1.598   8.705  0.1859  0.1634  0.1610
 2469TIP3    H131602   5.382   1.665   8.651 -0.2669  0.3256 -0.0066
 2469TIP3    H231603   5.382   1.603   8.789  1.5206 -0.7017 -0.4448
 2470TIP3   OH231604   3.117   3.563   8.335 -0.0888  0.2993  0.2979
 2470TIP3    H131605   3.179   3.565   8.263 -1.5634 -0.3631 -1.0590
 2470TIP3    H231606   3.164   3.521   8.406  0.3173 -2.3613 -1.4163
 2471TIP3   OH231607   6.828   0.021   8.960  0.3627  0.0732 -0.0021
 2471TIP3    H131608   6.804   0.062   8.876  2.2665 -0.6959 -0.9844
 2471TIP3    H231609   6.909   0.064   8.985  0.0106  0.0187  1.2808
 2472TIP3   OH231610   3.890   0.697   8.708  0.6341 -0.0673 -0.5648
 2472TIP3    H131611   3.855   0.627   8.654 -0.3743 -0.3264  0.3840
 2472TIP3    H231612   3.930   0.652   8.783 -1.9592  0.3428  1.2025
 2473TIP3   OH231613   0.105   6.218   8.143  0.0190  0.4093 -0.2293
 2473TIP3    H131614   0.112   6.147   8.207  0.9430 -0.6866 -1.4925
 2473TIP3    H231615   0.107   6.174   8.058  0.0741  1.9119 -1.0376
 2474TIP3   OH231616   0.479   4.899   9.682  0.2470  0.6768  0.3951
 2474TIP3    H131617   0.538   4.941   9.620 -0.2295  0.0621 -0.4883
 2474TIP3    H231618   0.520   4.914   9.768  2.0146 -0.2803 -0.2392
 2475TIP3   OH231619   3.934   6.902   8.410  0.0852  0.0824 -0.2580
 2475TIP3    H131620   3.988   6.980   8.397 -0.4440  0.8176  1.7003
 2475TIP3    H231621   3.998   6.832   8.425  0.6120 -0.1957 -3.1473
 2476TIP3   OH231622   2.034   7.421   8.343 -0.3076 -0.2970 -0.0268
 2476TIP3    H131623   2.009   7.440   8.433 -0.1168  1.8936 -0.3633
 2476TIP3    H231624   1.951   7.421   8.294 -0.3424 -0.7136  0.0321
 2477TIP3   OH231625   0.502   1.741   8.871 -0.1565  0.3992 -0.1994
 2477TIP3    H131626   0.539   1.764   8.956  1.7429  0.3109 -0.9345
 2477TIP3    H231627   0.525   1.649   8.859 -1.3308  0.1146 -0.3759
 2478TIP3   OH231628   5.861   7.552   7.971 -0.7700 -0.3124 -0.1072
 2478TIP3    H131629   5.914   7.615   8.019  1.1716 -1.8744 -0.0489
 2478TIP3    H231630   5.793   7.525   8.033 -1.0531  0.9810  0.1735
 2479TIP3   OH231631   1.562   7.599   7.275  0.2941  0.0950 -0.3014
 2479TIP3    H131632   1.478   7.629   7.240  0.5396 -0.0513 -1.0365
 2479TIP3    H231633   1.625   7.665   7.244  0.7407 -0.8248 -1.4137
 2480TIP3   OH231634   6.022   4.705   9.239 -0.0244 -0.2591  0.7352
 2480TIP3    H131635   6.018   4.690   9.334 -1.8090  1.0468  0.9081
 2480TIP3    H231636   6.051   4.796   9.230  3.0683 -1.1947 -0.1151
 2481TIP3   OH231637   2.890   1.244   8.619  0.0891 -0.3184 -0.4565
 2481TIP3    H131638   2.966   1.236   8.677  0.0932  0.7897 -0.2837
 2481TIP3    H231639   2.819   1.200   8.666 -0.2129  1.5744  1.0015
 2482TIP3   OH231640   6.384   0.581   8.257 -0.1576 -0.3570  0.2456
 2482TIP3    H131641   6.383   0.486   8.255 -0.7361 -0.3488 -0.1441
 2482TIP3    H231642   6.295   0.606   8.281 -0.4446  0.0947 -1.1777
 2483TIP3   OH231643   1.800   1.086   8.527  0.2606  0.0463 -0.0398
 2483TIP3    H131644   1.789   1.163   8.471 -0.6726  0.2360  0.3787
 2483TIP3    H231645   1.811   1.013   8.466 -1.2491  0.1693 -0.5139
 2484TIP3   OH231646   3.125   0.411   9.472 -0.6044 -0.1646 -0.5964
 2484TIP3    H131647   3.218   0.429   9.459 -0.5908  0.0983 -0.1663
 2484TIP3    H231648   3.115   0.319   9.451  0.1076 -0.6734  1.1044
 2485TIP3   OH231649   3.286   4.887   9.012  0.0286 -1.0130  0.1759
 2485TIP3    H131650   3.190   4.879   9.007  0.1511 -1.5542 -1.9550
 2485TIP3    H231651   3.307   4.964   8.960  0.7492 -0.7226  0.8747
 2486TIP3   OH231652   3.442   3.854   7.719  0.3985  0.3885  0.5657
 2486TIP3    H131653   3.526   3.808   7.727  0.3196  0.0964 -0.1861
 2486TIP3    H231654   3.431   3.868   7.625  1.0491  3.1347  0.7964
 2487TIP3   OH231655   6.342   3.519   8.772 -0.0869 -0.1751 -0.3181
 2487TIP3    H131656   6.320   3.527   8.679 -0.1324  2.9183 -0.1204
 2487TIP3    H231657   6.297   3.440   8.800 -0.6232 -0.8294 -2.7515
 2488TIP3   OH231658   7.005   1.432   7.961  0.0941  0.0179 -0.2089
 2488TIP3    H131659   7.069   1.362   7.973 -2.0674 -2.8345 -3.3884
 2488TIP3    H231660   7.037   1.481   7.885  0.4237  1.1171  0.6129
 2489TIP3   OH231661   5.703   4.357   7.262 -0.4086  0.3193 -0.0849
 2489TIP3    H131662   5.739   4.295   7.326  2.1846  0.2254 -1.5210
 2489TIP3    H231663   5.641   4.305   7.211  0.5350 -0.7079 -0.2277
 2490TIP3   OH231664   0.688   6.916   8.940 -0.2586  0.0697 -0.1067
 2490TIP3    H131665   0.672   6.926   9.034  0.5791 -1.3294  0.1996
 2490TIP3    H231666   0.783   6.920   8.931 -0.3814  2.2055 -1.1769
 2491TIP3   OH231667   0.129   3.327   7.385  0.2744  0.6373 -0.1559
 2491TIP3    H131668   0.148   3.352   7.295 -0.9299 -2.0169 -1.2506
 2491TIP3    H231669   0.041   3.361   7.402 -0.2912 -0.4909 -0.7157
 2492TIP3   OH231670   5.611   0.287   8.881 -0.7048  0.3608  0.3766
 2492TIP3    H131671   5.553   0.262   8.953 -1.6350  1.0913 -0.1023
 2492TIP3    H231672   5.671   0.212   8.872 -1.1392 -0.1219  1.3141
 2493TIP3   OH231673   2.953   7.451   8.629  0.2553 -0.0998  0.5068
 2493TIP3    H131674   3.013   7.470   8.557 -1.3727  1.3119 -0.5488
 2493TIP3    H231675   2.955   7.530   8.683 -1.1565  0.2849  0.0507
 2494TIP3   OH231676   5.283   6.223   7.383  0.4590 -0.0802  0.3401
 2494TIP3    H131677   5.200   6.183   7.355  0.9650  0.4090 -2.0848
 2494TIP3    H231678   5.343   6.150   7.392  0.1660 -0.2949  0.5857
 2495TIP3   OH231679   3.603   3.949   8.014  0.3211 -0.1312 -0.2422
 2495TIP3    H131680   3.666   3.896   8.062  0.3823  0.5329  0.4221
 2495TIP3    H231681   3.618   3.927   7.922  1.7082  0.2254 -0.1176
 2496TIP3   OH231682   0.730   3.416   7.431 -0.3744  0.1507 -0.6272
 2496TIP3    H131683   0.795   3.355   7.394  0.3894 -0.2885  1.3222
 2496TIP3    H231684   0.667   3.359   7.475 -1.3989  0.6491 -1.4086
 2497TIP3   OH231685   7.392   3.079   7.241  0.4732  0.3267  0.3715
 2497TIP3    H131686   7.299   3.103   7.240  1.0636  3.0683  1.3090
 2497TIP3    H231687   7.392   2.984   7.238 -2.4339  0.1307  2.3206
 2498TIP3   OH231688   2.164   0.163   7.273 -0.3476  0.3420 -0.4522
 2498TIP3    H131689   2.222   0.176   7.198  0.0526  0.7088 -0.0906
 2498TIP3    H231690   2.109   0.242   7.275  0.5898  1.0043  0.4497
 2499TIP3   OH231691   4.349   2.480   7.619  1.0071  0.1663 -0.1159
 2499TIP3    H131692   4.431   2.506   7.577  2.3002  1.0872  2.7210
 2499TIP3    H231693   4.371   2.475   7.712 -2.3022  0.9261  0.8060
 2500TIP3   OH231694   5.305   4.547   9.150 -0.5224 -0.2212 -0.0781
 2500TIP3    H131695   5.243   4.619   9.144 -1.7040 -1.2106 -0.2810
 2500TIP3    H231696   5.305   4.523   9.243 -1.2896 -0.9031 -0.2387
 2501TIP3   OH231697   6.185   5.777   6.437  0.9000  0.0117  0.1593
 2501TIP3    H131698   6.265   5.801   6.485  1.2683  0.5107 -0.6821
 2501TIP3    H231699   6.217   5.720   6.367  0.5675  0.5275 -0.4133
 2502TIP3   OH231700   1.542   3.154   9.264  0.7217  0.0227  0.7227
 2502TIP3    H131701   1.633   3.131   9.282  0.7311 -0.2467  0.3408
 2502TIP3    H231702   1.525   3.230   9.320  0.7589 -0.7538  1.8046
 2503TIP3   OH231703   6.475   0.775   8.051  0.6212 -0.1444 -0.5799
 2503TIP3    H131704   6.442   0.719   8.121  1.1160 -0.6635 -0.7565
 2503TIP3    H231705   6.464   0.864   8.084  0.3561 -0.3637 -0.0647
 2504TIP3   OH231706   6.822   4.162   8.839 -0.8190  0.5797  0.1501
 2504TIP3    H131707   6.773   4.080   8.843  0.8939 -0.4985  0.3759
 2504TIP3    H231708   6.907   4.136   8.803 -0.3019  2.3007  0.0647
 2505TIP3   OH231709   2.399   4.002   7.878 -0.3835 -0.0149 -0.2366
 2505TIP3    H131710   2.307   3.995   7.903 -0.2525 -0.3442  0.1519
 2505TIP3    H231711   2.436   3.916   7.896  0.1366  0.2824  0.1586
 2506TIP3   OH231712   2.065   6.750   9.634  0.6378 -0.2669  0.1652
 2506TIP3    H131713   2.137   6.759   9.696  0.4598 -1.2843  0.5243
 2506TIP3    H231714   2.089   6.676   9.578 -0.4152 -1.0481  0.7042
 2507TIP3   OH231715   7.118   4.866   8.115  0.6910  0.0468 -0.2931
 2507TIP3    H131716   7.168   4.806   8.059  0.4133  1.2980 -1.9736
 2507TIP3    H231717   7.036   4.880   8.067  0.0486  0.4682  0.8876
 2508TIP3   OH231718   0.362   2.353   8.797  0.2115 -0.3130  0.0484
 2508TIP3    H131719   0.281   2.397   8.823  0.1101 -0.4358 -0.0611
 2508TIP3    H231720   0.341   2.310   8.714  1.1619  2.0473 -1.5478
 2509TIP3   OH231721   3.445   6.561   6.886 -0.2193  0.3019 -0.2074
 2509TIP3    H131722   3.382   6.517   6.828  0.0168  0.7978 -0.8489
 2509TIP3    H231723   3.438   6.654   6.864  0.4728  0.4037 -0.0275
 2510TIP3   OH231724   4.841   5.508   7.119 -0.9109 -0.5943  0.0059
 2510TIP3    H131725   4.886   5.447   7.178 -1.5026 -0.2512  0.8290
 2510TIP3    H231726   4.911   5.567   7.088 -0.8415  0.3593  1.7986
 2511TIP3   OH231727   5.356   1.121   7.411  0.3039 -0.2639 -0.1047
 2511TIP3    H131728   5.312   1.198   7.448 -0.3449 -0.4201 -0.5380
 2511TIP3    H231729   5.318   1.047   7.458  0.0315 -0.4062 -0.5427
 2512TIP3   OH231730   7.273   0.959   8.473 -0.1722  0.0526 -0.2607
 2512TIP3    H131731   7.342   0.968   8.539  0.2783 -0.5419 -0.6324
 2512TIP3    H231732   7.308   1.004   8.396 -0.6334  0.6195 -0.1436
 2513TIP3   OH231733   7.463   0.701   8.561 -0.3318 -0.2540 -0.4515
 2513TIP3    H131734   7.397   0.672   8.624 -0.6053 -0.3022 -0.7588
 2513TIP3    H231735   7.503   0.620   8.529  0.8918 -0.1863  0.7977
 2514TIP3   OH231736   1.528   4.023   8.055 -0.1635  0.0253  0.8334
 2514TIP3    H131737   1.493   4.046   7.969 -0.4616  1.8951  1.4196
 2514TIP3    H231738   1.451   3.992   8.104 -0.0349 -0.8101  0.5301
 2515TIP3   OH231739   0.543   0.410   8.385  0.2130 -0.5842 -0.1639
 2515TIP3    H131740   0.596   0.334   8.360  0.7528 -0.7173  1.3041
 2515TIP3    H231741   0.600   0.462   8.442  0.0168  1.1888 -1.4764
 2516TIP3   OH231742   0.797   5.665   7.615 -0.1119  0.1763 -0.1264
 2516TIP3    H131743   0.816   5.674   7.708 -0.6914  0.7455 -0.0522
 2516TIP3    H231744   0.767   5.752   7.589  0.6157  0.1776 -0.9830
 2517TIP3   OH231745   6.032   7.300   8.927  0.1568  0.4984  0.1174
 2517TIP3    H131746   6.024   7.389   8.961  0.1857 -0.5027  3.0399
 2517TIP3    H231747   6.110   7.264   8.970 -1.2814 -1.7076  1.0719
 2518TIP3   OH231748   1.669   2.991   6.927 -0.5629  0.2466  0.0535
 2518TIP3    H131749   1.593   3.008   6.870 -0.4209  1.0728  0.1083
 2518TIP3    H231750   1.732   3.059   6.904  0.2892 -0.6097 -0.1987
 2519TIP3   OH231751   1.728   0.077   7.918  0.3427  0.3058 -0.5352
 2519TIP3    H131752   1.723   0.022   7.840  0.4473 -2.1088  1.0605
 2519TIP3    H231753   1.674   0.031   7.983  2.0393  1.0222  1.4793
 2520TIP3   OH231754   4.333   6.423   8.893 -0.3078 -0.0349  0.4022
 2520TIP3    H131755   4.385   6.459   8.964 -0.6804  0.7697  0.2797
 2520TIP3    H231756   4.366   6.334   8.882 -0.4162 -0.2659  1.7456
 2521TIP3   OH231757   1.578   5.737   7.550  0.2260 -0.6272 -0.0727
 2521TIP3    H131758   1.571   5.664   7.612  0.1468 -0.8899 -0.3896
 2521TIP3    H231759   1.540   5.704   7.469 -0.5948  0.0535  0.0180
 2522TIP3   OH231760   5.644   0.444   9.686 -0.4570  0.2528 -0.1968
 2522TIP3    H131761   5.655   0.537   9.705 -1.9213  0.3731  0.1716
 2522TIP3    H231762   5.670   0.435   9.594  0.0526  0.9439 -0.1311
 2523TIP3   OH231763   0.639   5.517   9.521  0.5991 -0.1523 -0.2041
 2523TIP3    H131764   0.666   5.502   9.431 -0.4044 -2.1985 -0.2276
 2523TIP3    H231765   0.689   5.453   9.572  0.9824  0.8163  0.6937
 2524TIP3   OH231766   1.538   6.737   9.618 -0.2683  0.0396  0.6548
 2524TIP3    H131767   1.453   6.708   9.652 -1.0175 -0.0410 -1.2016
 2524TIP3    H231768   1.522   6.827   9.589  0.8530  0.7691  2.1674
 2525TIP3   OH231769   6.079   1.592   6.866 -0.4331 -0.3243  0.6540
 2525TIP3    H131770   6.064   1.686   6.855 -0.6316 -0.3521  0.6928
 2525TIP3    H231771   6.104   1.562   6.778 -1.2590 -0.4020  0.4433
 2526TIP3   OH231772   6.534   1.545   8.161  0.1656  0.1198  0.7978
 2526TIP3    H131773   6.541   1.544   8.256  0.8962  1.3612  0.7723
 2526TIP3    H231774   6.613   1.499   8.131 -0.4755 -1.0219  0.7758
 2527TIP3   OH231775   6.627   7.454   6.230 -0.3078  0.2959  0.3986
 2527TIP3    H131776   6.545   7.410   6.251 -1.0379  2.0331  1.3770
 2527TIP3    H231777   6.641   7.436   6.137 -2.1798  0.5693  0.0355
 2528TIP3   OH231778   6.157   4.578   8.879 -0.2708  0.3095  0.2055
 2528TIP3    H131779   6.204   4.554   8.800 -1.6335  1.5669 -1.0545
 2528TIP3    H231780   6.225   4.607   8.940  0.7837 -0.4885 -0.5504
 2529TIP3   OH231781   0.922   1.404   7.610  0.2669 -0.0150 -0.5741
 2529TIP3    H131782   1.004   1.435   7.650 -0.6202  0.0726  1.2632
 2529TIP3    H231783   0.921   1.445   7.524  2.4446 -0.5052 -0.9009
 2530TIP3   OH231784   5.740   7.054   6.834  0.0436 -0.8003  0.4044
 2530TIP3    H131785   5.645   7.066   6.843 -0.2301 -1.3814 -1.3239
 2530TIP3    H231786   5.755   6.963   6.859  0.0421 -0.8812  0.1208
 2531TIP3   OH231787   0.529   2.676   8.591 -0.1323 -0.1448 -0.0916
 2531TIP3    H131788   0.447   2.645   8.555 -0.4094 -0.4355  0.7665
 2531TIP3    H231789   0.589   2.602   8.582 -1.0925 -1.4871  2.9846
 2532TIP3   OH231790   0.174   4.101   8.794 -0.0985  0.4971  0.3170
 2532TIP3    H131791   0.258   4.142   8.772 -0.6289  1.3026 -0.2432
 2532TIP3    H231792   0.128   4.094   8.710  0.0404 -1.4310  0.3484
 2533TIP3   OH231793   1.536   2.073   8.807 -0.2764  0.0700  0.0048
 2533TIP3    H131794   1.472   2.124   8.758  1.5484  0.8199 -1.7176
 2533TIP3    H231795   1.551   1.995   8.754 -0.0405 -0.2794  0.5762
 2534TIP3   OH231796   7.355   4.426   9.105 -0.2698  0.2429 -0.1643
 2534TIP3    H131797   7.294   4.441   9.178 -2.2395  1.1778 -1.8935
 2534TIP3    H231798   7.375   4.333   9.110 -0.8011  0.1702  1.2377
 2535TIP3   OH231799   3.475   0.974   8.859 -0.2161 -0.6518  0.0791
 2535TIP3    H131800   3.567   0.966   8.837 -0.4281  1.2495 -1.8079
 2535TIP3    H231801   3.428   0.943   8.782 -1.1593 -0.6920  0.6432
 2536TIP3   OH231802   3.724   5.809   7.309 -0.1934  0.0730  0.4265
 2536TIP3    H131803   3.754   5.758   7.233 -0.3089 -1.4941  1.3867
 2536TIP3    H231804   3.675   5.882   7.271 -0.8045 -1.0307 -1.0200
 2537TIP3   OH231805   2.336   2.839   9.113 -0.2527 -0.5317 -0.4028
 2537TIP3    H131806   2.301   2.870   9.197  1.0298 -0.6366  0.1970
 2537TIP3    H231807   2.261   2.839   9.054 -0.7058  1.9237  0.0646
 2538TIP3   OH231808   3.395   1.700   8.237 -0.1591 -0.0155  0.0074
 2538TIP3    H131809   3.463   1.633   8.240 -0.5753 -0.4518  3.0165
 2538TIP3    H231810   3.313   1.652   8.235 -0.4903  0.5097 -2.9410
 2539TIP3   OH231811   0.855   4.165   9.048 -0.6725 -0.3155 -0.3920
 2539TIP3    H131812   0.811   4.148   8.965 -0.0086  1.2088 -1.0895
 2539TIP3    H231813   0.798   4.227   9.093 -0.9215 -0.9713  0.2092
 2540TIP3   OH231814   3.948   5.524   7.944  0.1022 -0.1103 -0.1593
 2540TIP3    H131815   4.030   5.522   7.992 -0.9048 -2.2832  1.6495
 2540TIP3    H231816   3.908   5.607   7.969  1.1947  0.4256 -0.1241
 2541TIP3   OH231817   5.042   1.526   8.443 -0.1840 -0.2708  0.3922
 2541TIP3    H131818   5.075   1.604   8.398 -0.8521  0.4744  1.1903
 2541TIP3    H231819   5.105   1.457   8.419 -0.4352  0.1224 -1.5771
 2542TIP3   OH231820   1.869   7.505   8.134  0.3797 -0.1839 -0.2644
 2542TIP3    H131821   1.796   7.475   8.081  0.7534 -0.9437 -0.3664
 2542TIP3    H231822   1.940   7.521   8.072  0.1439  1.1069 -0.2310
 2543TIP3   OH231823   0.089   1.508   7.982  0.2219 -0.1902 -0.4929
 2543TIP3    H131824   0.096   1.504   7.887  0.9007 -0.1315 -0.4458
 2543TIP3    H231825   0.174   1.479   8.014 -0.8373 -2.9126  0.1636
 2544TIP3   OH231826   6.422   4.792   8.826 -0.2239  0.4455  0.0515
 2544TIP3    H131827   6.345   4.815   8.877 -0.3040  0.7962 -0.2252
 2544TIP3    H231828   6.412   4.839   8.744  0.4478  0.7624  0.1398
 2545TIP3   OH231829   6.588   6.738   8.349  0.1190  0.1248  0.2379
 2545TIP3    H131830   6.504   6.782   8.364 -0.0851 -0.9056  2.3644
 2545TIP3    H231831   6.642   6.760   8.425  0.7714 -1.5034  0.2903
 2546TIP3   OH231832   7.523   1.184   8.829  0.5133  0.2884 -0.0613
 2546TIP3    H131833   7.526   1.089   8.819  1.7475  0.2628  0.2821
 2546TIP3    H231834   7.487   1.216   8.747 -0.0932 -0.4823 -0.1066
 2547TIP3   OH231835   4.686   3.710   7.698 -0.2003 -0.0831 -0.6670
 2547TIP3    H131836   4.626   3.708   7.773  0.0189  0.1602 -0.4847
 2547TIP3    H231837   4.630   3.690   7.623 -1.1658  3.0057 -0.9144
 2548TIP3   OH231838   6.661   1.383   7.454 -0.2169 -0.3820 -0.3564
 2548TIP3    H131839   6.663   1.431   7.537  0.1367  1.5553 -1.4152
 2548TIP3    H231840   6.571   1.393   7.423  0.0312  0.1992 -0.9040
 2549TIP3   OH231841   0.636   5.141   6.764 -0.6056  0.1237 -0.6525
 2549TIP3    H131842   0.696   5.067   6.752 -1.6687 -0.9573  0.4101
 2549TIP3    H231843   0.607   5.162   6.676  0.8817  0.3009 -1.1300
 2550TIP3   OH231844   5.477   3.130   7.182 -0.0397  0.0172 -0.8429
 2550TIP3    H131845   5.450   3.185   7.255 -0.8494 -0.6699 -0.6012
 2550TIP3    H231846   5.565   3.160   7.159 -0.5006  1.4557 -0.7928
 2551TIP3   OH231847   6.535   1.007   8.494 -0.3099  0.1312 -0.3656
 2551TIP3    H131848   6.539   1.102   8.493 -2.1126  0.2708  0.9335
 2551TIP3    H231849   6.619   0.980   8.531  0.8064  1.1092 -2.0787
 2552TIP3   OH231850   1.252   5.328   6.813 -1.1008  0.2032 -0.3630
 2552TIP3    H131851   1.287   5.365   6.732  1.9562 -0.1450  0.6632
 2552TIP3    H231852   1.222   5.405   6.863 -2.4455  0.4658 -1.4927
 2553TIP3   OH231853   6.881   0.377   9.214  0.3024 -0.0097  0.1205
 2553TIP3    H131854   6.960   0.323   9.217  0.7904  0.6521 -0.4749
 2553TIP3    H231855   6.910   0.464   9.240 -0.3425  0.1261  0.4120
 2554TIP3   OH231856   2.000   0.261   9.473  0.0219 -0.4291  0.0590
 2554TIP3    H131857   1.921   0.295   9.515  0.4033  0.5286  0.0236
 2554TIP3    H231858   2.008   0.171   9.505 -0.1903 -0.0098  1.3413
 2555TIP3   OH231859   1.831   2.915   8.373  0.2113  0.7949  0.0221
 2555TIP3    H131860   1.782   2.837   8.348  2.3207 -1.0313  1.1948
 2555TIP3    H231861   1.834   2.968   8.294 -0.1738 -0.9514 -1.2180
 2556TIP3   OH231862   0.342   4.096   7.707  0.1154 -0.3233 -0.2895
 2556TIP3    H131863   0.292   4.016   7.689 -0.4918 -0.4423  1.6972
 2556TIP3    H231864   0.308   4.160   7.645  0.4293 -1.5161 -1.7489
 2557TIP3   OH231865   6.514   7.047   8.142 -0.3472  0.5516 -0.2310
 2557TIP3    H131866   6.439   7.086   8.187 -0.0102  0.4012  0.4766
 2557TIP3    H231867   6.584   7.047   8.208 -0.1242 -0.5594 -0.4568
 2558TIP3   OH231868   4.390   2.715   7.413  0.1788 -0.2615  0.1253
 2558TIP3    H131869   4.470   2.672   7.443  0.6605  0.9256  0.6249
 2558TIP3    H231870   4.388   2.699   7.318 -0.6261 -2.8813  0.5251
 2559TIP3   OH231871   0.658   0.314   7.894  0.1418  0.0313  0.1968
 2559TIP3    H131872   0.595   0.379   7.863  0.5254  0.0888 -0.4686
 2559TIP3    H231873   0.731   0.366   7.928  1.0826 -0.0397 -1.6391
 2560TIP3   OH231874   1.153   3.207   8.162 -0.3477 -0.1606 -0.3465
 2560TIP3    H131875   1.130   3.214   8.070  0.4898  0.1599 -0.5347
 2560TIP3    H231876   1.154   3.297   8.194  2.4643  0.0739 -0.8160
 2561TIP3   OH231877   1.167   1.216   6.923  0.0710  0.1355  0.4150
 2561TIP3    H131878   1.250   1.210   6.876  0.1414  0.0392  0.5513
 2561TIP3    H231879   1.120   1.287   6.880  0.7908  1.1450  1.2491
 2562TIP3   OH231880   7.557   0.979   6.793 -0.1569  0.3628 -0.5613
 2562TIP3    H131881   7.528   0.926   6.718  0.8031  1.2081 -1.5588
 2562TIP3    H231882   7.577   0.914   6.861  0.7250 -0.5753 -1.6617
 2563TIP3   OH231883   4.485   5.722   7.454 -0.5112 -0.1116  0.9744
 2563TIP3    H131884   4.465   5.802   7.407 -2.6734 -0.4011  1.3039
 2563TIP3    H231885   4.521   5.752   7.538 -0.3373  0.4756  0.6967
 2564TIP3   OH231886   2.858   3.537   7.610 -0.5236  0.1521  0.1093
 2564TIP3    H131887   2.858   3.466   7.546  1.9273  0.7720 -0.6634
 2564TIP3    H231888   2.832   3.615   7.561 -0.0397  0.3665  0.1827
 2565TIP3   OH231889   2.438   7.399   8.259 -0.5242 -0.0592 -0.3097
 2565TIP3    H131890   2.513   7.340   8.264  0.3405  1.0481  0.7818
 2565TIP3    H231891   2.405   7.402   8.349 -0.2304  1.4675 -0.2254
 2566TIP3   OH231892   7.085   7.296   8.298  0.1141 -0.6770  0.0283
 2566TIP3    H131893   7.087   7.219   8.241  1.8535 -0.1352 -0.6954
 2566TIP3    H231894   7.177   7.315   8.317 -0.3734 -0.5243  2.6439
 2567TIP3   OH231895   3.686   5.960   7.081 -0.1086  0.5473 -0.3750
 2567TIP3    H131896   3.758   5.961   7.017 -1.0021  1.6587 -1.4204
 2567TIP3    H231897   3.655   6.051   7.083 -1.0072  0.2332  0.6092
 2568TIP3   OH231898   6.770   4.292   7.335  0.0865  0.3676 -0.1629
 2568TIP3    H131899   6.734   4.217   7.287  1.1412  0.0598 -0.4860
 2568TIP3    H231900   6.720   4.294   7.417 -1.7760  0.9207 -1.2369
 2569TIP3   OH231901   5.605   1.134   9.105  0.3732  0.3399 -0.3355
 2569TIP3    H131902   5.690   1.135   9.149  0.3421  0.8130 -0.2751
 2569TIP3    H231903   5.582   1.227   9.096 -1.2894  0.2162  1.9030
 2570TIP3   OH231904   1.933   2.299   8.869 -0.1840  0.2154  0.1029
 2570TIP3    H131905   1.911   2.211   8.899  1.7774 -0.2974  0.1967
 2570TIP3    H231906   1.978   2.285   8.786  1.0148  1.0354  0.5900
 2571TIP3   OH231907   4.238   7.458   8.874 -0.3831 -0.3324 -0.0748
 2571TIP3    H131908   4.299   7.384   8.871 -0.9835 -0.8072 -1.1766
 2571TIP3    H231909   4.293   7.535   8.862  0.2320 -0.5893  0.9053
 2572TIP3   OH231910   7.566   5.805   7.193  0.1983 -0.6647 -0.2079
 2572TIP3    H131911   7.599   5.725   7.152  0.5358 -1.1036  0.8925
 2572TIP3    H231912   7.634   5.870   7.175 -0.0586 -0.6235 -1.0698
 2573TIP3   OH231913   0.785   0.950   7.888 -0.2426 -0.1679  0.3889
 2573TIP3    H131914   0.730   0.999   7.949  0.6315  1.7880 -0.3089
 2573TIP3    H231915   0.730   0.941   7.809  0.1244  1.0734 -0.0228
 2574TIP3   OH231916   5.287   0.078   8.081  0.4720  0.0067 -0.9083
 2574TIP3    H131917   5.362   0.063   8.139 -0.2194 -1.8088 -0.4265
 2574TIP3    H231918   5.239   0.150   8.121  0.2691 -0.9036  0.5583
 2575TIP3   OH231919   1.350   0.456   8.367 -0.0508 -0.5708  0.5554
 2575TIP3    H131920   1.440   0.442   8.338  0.6156  1.8002  1.3183
 2575TIP3    H231921   1.316   0.523   8.308 -1.5403 -1.7809 -0.0381
 2576TIP3   OH231922   1.364   5.830   6.896  0.3990 -0.3656  0.4279
 2576TIP3    H131923   1.335   5.800   6.983 -0.7243 -0.5394  0.0171
 2576TIP3    H231924   1.458   5.816   6.896  0.4450 -0.1938  1.6884
 2577TIP3   OH231925   5.934   5.162   7.254 -0.1988 -0.2238 -0.0526
 2577TIP3    H131926   5.895   5.133   7.171  0.7805 -2.6081  0.2504
 2577TIP3    H231927   5.905   5.253   7.263 -0.4280  0.1050 -2.9513
 2578TIP3   OH231928   5.866   1.199   8.643 -0.3228 -0.1199  0.5873
 2578TIP3    H131929   5.824   1.141   8.707 -0.8339  0.0570  0.4185
 2578TIP3    H231930   5.910   1.265   8.695  0.4492 -0.7779  0.7912
 2579TIP3   OH231931   6.394   5.410   6.945 -0.1853 -0.0542  0.0557
 2579TIP3    H131932   6.450   5.480   6.981  0.4446 -0.9293  0.8173
 2579TIP3    H231933   6.308   5.426   6.984 -0.0638  0.3432  0.1694
 2580TIP3   OH231934   1.769   0.515   7.401  0.3664 -0.1358 -0.0833
 2580TIP3    H131935   1.728   0.596   7.433  0.5695  0.1733 -0.5907
 2580TIP3    H231936   1.696   0.460   7.374  0.2719  0.3907 -0.9322
 2581TIP3   OH231937   6.136   0.667   8.392 -0.4176  0.7826  0.3918
 2581TIP3    H131938   6.101   0.627   8.312 -0.2321  0.9447  0.2277
 2581TIP3    H231939   6.083   0.629   8.463  1.3502 -1.7404  0.5221
 2582TIP3   OH231940   7.543   0.074   7.300 -0.3249 -0.2042 -0.5123
 2582TIP3    H131941   7.506   0.099   7.215 -0.3152  0.5834 -0.2897
 2582TIP3    H231942   7.542  -0.022   7.299  0.4247 -0.2334 -1.7453
 2583TIP3   OH231943   0.275   4.303   8.326  0.0993  0.4037  0.3069
 2583TIP3    H131944   0.257   4.375   8.265  0.7139  1.1421  0.9653
 2583TIP3    H231945   0.345   4.253   8.283 -0.1315  0.3645 -0.0275
 2584TIP3   OH231946   0.039   3.866   7.976 -0.5624  0.3890 -0.1370
 2584TIP3    H131947   0.023   3.786   8.026 -0.2649  0.0441 -0.5991
 2584TIP3    H231948   0.006   3.848   7.889 -0.0474  0.5934 -0.3813
 2585TIP3   OH231949   6.249   6.651   8.184  0.6608  0.4470 -0.1696
 2585TIP3    H131950   6.278   6.713   8.116  1.2586  0.5111  0.1414
 2585TIP3    H231951   6.160   6.627   8.157  0.9995  0.2396 -1.1444
 2586TIP3   OH231952   0.451   2.255   9.493 -0.0734  0.3900 -0.1682
 2586TIP3    H131953   0.394   2.216   9.559  0.8671 -1.2687 -0.2973
 2586TIP3    H231954   0.392   2.305   9.437 -1.0529  0.7639  1.1381
 2587TIP3   OH231955   3.328   2.956   8.836 -0.8139 -0.0557 -0.4018
 2587TIP3    H131956   3.345   2.923   8.748  0.5726 -0.1360 -0.1247
 2587TIP3    H231957   3.366   3.044   8.836 -1.9389  0.4519 -0.2567
 2588TIP3   OH231958   4.852   1.814   7.109  0.3057 -0.8747  0.2337
 2588TIP3    H131959   4.838   1.732   7.060  1.2838 -1.2572  0.5491
 2588TIP3    H231960   4.893   1.785   7.191  2.5894  0.0533 -0.5045
 2589TIP3   OH231961   6.765   2.096   7.001  0.9494  0.0398  0.7854
 2589TIP3    H131962   6.813   2.015   7.018  1.6798  0.3773  0.4054
 2589TIP3    H231963   6.822   2.146   6.942  0.1719  0.5047  0.4085
 2590TIP3   OH231964   5.455   5.445   9.826 -0.3401 -0.1781 -0.6982
 2590TIP3    H131965   5.472   5.526   9.874  1.4190 -1.2269  0.5744
 2590TIP3    H231966   5.436   5.473   9.737  1.9163  1.5649 -0.7152
 2591TIP3   OH231967   4.056   5.298   7.044  0.1919  0.0751 -0.3582
 2591TIP3    H131968   3.971   5.305   7.088 -0.8070 -1.8045 -1.8137
 2591TIP3    H231969   4.063   5.380   6.995 -0.4280  0.5735  0.3587
 2592TIP3   OH231970   4.695   4.291   7.708 -0.1018 -0.1370 -0.1384
 2592TIP3    H131971   4.780   4.260   7.739 -0.8282 -2.3123 -0.1776
 2592TIP3    H231972   4.631   4.240   7.757 -1.5148  2.8186  1.3496
 2593TIP3   OH231973   0.655   4.042   8.418 -0.1438  0.0539 -0.3585
 2593TIP3    H131974   0.683   4.044   8.510 -1.8486 -0.7239  0.2253
 2593TIP3    H231975   0.736   4.036   8.369  0.8406  0.8862  1.0663
 2594TIP3   OH231976   4.678   1.242   9.452 -0.5585  0.2982 -0.6822
 2594TIP3    H131977   4.633   1.173   9.403 -1.2822  0.7743 -0.7027
 2594TIP3    H231978   4.612   1.311   9.463 -0.3312  0.3273  0.7171
 2595TIP3   OH231979   6.082   0.038   8.352 -0.2812 -0.2544 -0.6291
 2595TIP3    H131980   6.107  -0.036   8.408 -1.1671  0.9779  1.5126
 2595TIP3    H231981   6.007   0.077   8.396  0.0877  1.8660 -1.7582
 2596TIP3   OH231982   2.858   3.049   8.750  0.1797 -0.1879 -0.2675
 2596TIP3    H131983   2.876   3.134   8.710  1.6063 -0.5702 -0.4992
 2596TIP3    H231984   2.915   2.988   8.703 -0.6672 -1.2504  0.0257
 2597TIP3   OH231985   1.236   5.072   7.815  0.7486  0.3202  0.0566
 2597TIP3    H131986   1.145   5.102   7.807  0.8559  0.8697  0.7542
 2597TIP3    H231987   1.259   5.090   7.906  1.2790 -0.6420  0.1233
 2598TIP3   OH231988   5.086   2.867   8.638 -0.1037  0.2125 -0.2943
 2598TIP3    H131989   5.002   2.897   8.670  0.8972  2.1218  0.7150
 2598TIP3    H231990   5.065   2.797   8.577 -2.3669  0.2255  0.3859
 2599TIP3   OH231991   2.214   0.410   9.529 -0.5035  0.1185  0.4792
 2599TIP3    H131992   2.146   0.353   9.492 -0.0338 -1.0053  1.2984
 2599TIP3    H231993   2.295   0.362   9.517  0.0245  0.9912  0.4507
 2600TIP3   OH231994   2.968   6.333   8.464 -0.4414 -0.3224 -0.1188
 2600TIP3    H131995   2.993   6.334   8.556 -1.1969  1.4338  0.0920
 2600TIP3    H231996   2.955   6.240   8.444  2.2672 -1.0057  0.8077
 2601TIP3   OH231997   1.660   4.040   6.889  0.2061 -0.1158 -0.4131
 2601TIP3    H131998   1.574   4.006   6.915  0.6332  0.7132  2.4524
 2601TIP3    H231999   1.716   3.963   6.885  0.4352 -0.2859  2.9269
 2602TIP3   OH232000   6.477   3.171   8.572 -0.0051 -0.0745 -0.1057
 2602TIP3    H132001   6.497   3.160   8.665 -0.4965 -0.1026 -0.0018
 2602TIP3    H232002   6.391   3.132   8.561 -1.7258  3.2141  0.2438
 2603TIP3   OH232003   5.804   7.440   8.745  0.7037  0.1065 -0.3469
 2603TIP3    H132004   5.724   7.479   8.709  1.5452  2.2860 -0.0301
 2603TIP3    H232005   5.782   7.348   8.758 -1.0544  0.1723 -2.2420
 2604TIP3   OH232006   1.807   3.242   8.672  0.0353  0.0831 -0.0829
 2604TIP3    H132007   1.717   3.268   8.690 -0.7218 -1.4898 -1.3428
 2604TIP3    H232008   1.820   3.164   8.726  0.5049  0.0527 -0.2382
 2605TIP3   OH232009   5.974   6.802   8.105  0.4428  0.0487 -0.0352
 2605TIP3    H132010   5.946   6.711   8.116  0.0030  0.2074  0.2188
 2605TIP3    H232011   6.039   6.799   8.036 -0.6891 -0.2678 -1.1371
 2606TIP3   OH232012   4.371   5.305   7.994 -0.0344 -0.6983  0.2529
 2606TIP3    H132013   4.459   5.322   7.958  0.8343  1.3040  2.9871
 2606TIP3    H232014   4.387   5.256   8.074 -1.1813  1.2034  1.7395
 2607TIP3   OH232015   2.655   6.873   8.261  0.1444 -0.6012  0.4683
 2607TIP3    H132016   2.651   6.883   8.357 -0.7050  2.0463  0.2483
 2607TIP3    H232017   2.577   6.824   8.239 -2.6427  3.2224  0.8396
 2608TIP3   OH232018   5.257   4.171   8.562  0.2844 -0.0781  0.0588
 2608TIP3    H132019   5.171   4.201   8.594  0.0265 -0.2630 -0.4514
 2608TIP3    H232020   5.319   4.207   8.625 -0.2511 -0.8770  1.0631
 2609TIP3   OH232021   1.823   6.593   8.374  0.4303 -0.6430 -0.2630
 2609TIP3    H132022   1.815   6.592   8.470 -1.3325  0.9649 -0.3276
 2609TIP3    H232023   1.815   6.685   8.351  1.8617 -0.8957 -1.9265
 2610TIP3   OH232024   6.269   2.545   7.542  0.2068 -0.8599  0.2917
 2610TIP3    H132025   6.296   2.465   7.586  0.1172 -2.2292 -1.9843
 2610TIP3    H232026   6.193   2.520   7.490 -0.6249  1.0397  0.5195
 2611TIP3   OH232027   2.545   7.403   8.996 -0.3490  0.6536 -0.0774
 2611TIP3    H132028   2.496   7.390   8.915  0.9224  0.0231 -0.7733
 2611TIP3    H232029   2.584   7.490   8.987  2.8945 -0.8585 -1.9122
 2612TIP3   OH232030   3.384   7.048   7.557 -0.2565  0.3324  0.3434
 2612TIP3    H132031   3.313   7.104   7.588  1.1082  0.8498  2.7483
 2612TIP3    H232032   3.343   6.993   7.490 -2.4535  1.8372  0.3438
 2613TIP3   OH232033   5.290   2.444   8.245 -0.3663  0.3564 -0.5594
 2613TIP3    H132034   5.339   2.524   8.258  0.8026 -0.5596  1.0448
 2613TIP3    H232035   5.256   2.450   8.156  1.0968  1.8614 -1.0509
 2614TIP3   OH232036   1.346   7.396   9.309  0.0313 -0.3052 -0.1300
 2614TIP3    H132037   1.333   7.360   9.221 -0.0563 -0.2732 -0.1310
 2614TIP3    H232038   1.266   7.447   9.325  1.1501  1.8561 -1.0747
 2615TIP3   OH232039   7.380   5.687   9.671 -0.2823 -0.2677 -0.3635
 2615TIP3    H132040   7.350   5.608   9.717 -1.4938 -0.8934 -2.0851
 2615TIP3    H232041   7.311   5.703   9.606  1.0650  0.8837 -1.5520
 2616TIP3   OH232042   2.291   6.109   8.023  1.0116  0.3781 -0.1574
 2616TIP3    H132043   2.381   6.128   8.000  1.4303  0.4921  1.4263
 2616TIP3    H232044   2.297   6.062   8.107 -0.3845  0.4045 -0.0158
 2617TIP3   OH232045   0.965   0.607   8.485 -0.5613 -0.1887 -0.0836
 2617TIP3    H132046   0.945   0.516   8.506 -1.3281 -0.1811 -0.7236
 2617TIP3    H232047   0.908   0.658   8.543 -0.5616 -0.1240 -0.1412
 2618TIP3   OH232048   4.566   4.134   6.903 -0.0090 -0.4257 -0.5748
 2618TIP3    H132049   4.586   4.186   6.980 -0.4154  0.2382 -0.9088
 2618TIP3    H232050   4.487   4.175   6.866 -0.9838 -1.9197 -0.2400
 2619TIP3   OH232051   1.830   0.985   7.256 -0.2989 -0.1158 -0.7362
 2619TIP3    H132052   1.809   1.063   7.205 -0.5257 -0.5716 -1.3498
 2619TIP3    H232053   1.926   0.984   7.261 -0.3083  0.4202 -0.3662
 2620TIP3   OH232054   6.246   0.120   9.126 -0.5206  0.3656 -0.2441
 2620TIP3    H132055   6.304   0.098   9.199 -0.8045  4.3558  1.4712
 2620TIP3    H232056   6.304   0.155   9.058 -0.4755 -1.1739 -1.0371
 2621TIP3   OH232057   2.713   6.979   7.889 -0.4761  0.3824 -0.6261
 2621TIP3    H132058   2.673   7.008   7.971  0.0842 -0.4252 -0.0399
 2621TIP3    H232059   2.675   6.892   7.874  0.4788 -0.0825 -0.4479
 2622TIP3   OH232060   3.815   2.399   7.914 -0.3999 -0.1969 -0.3072
 2622TIP3    H132061   3.866   2.433   7.987 -1.3625 -0.1885  0.3905
 2622TIP3    H232062   3.758   2.472   7.888  3.7232  2.0027 -4.9614
 2623TIP3   OH232063   6.081   3.849   8.236  0.2019  0.0519  0.1137
 2623TIP3    H132064   5.998   3.853   8.189  0.1939 -0.4351  0.0787
 2623TIP3    H232065   6.057   3.859   8.328  0.3416  2.4245 -0.0308
 2624TIP3   OH232066   6.929   3.033   7.044 -0.0134  0.3186 -0.3645
 2624TIP3    H132067   6.837   3.045   7.019 -0.7868 -1.6112  1.2548
 2624TIP3    H232068   6.949   2.943   7.019  1.4674  0.7302 -0.7278
 2625TIP3   OH232069   7.108   1.583   7.762  0.2295 -0.4139 -0.3099
 2625TIP3    H132070   7.195   1.547   7.743  1.1224  1.6622 -0.4662
 2625TIP3    H232071   7.072   1.606   7.676  0.5778  0.9201 -0.1304
 2626TIP3   OH232072   0.058   1.933   7.904  0.6054 -0.0941  0.1420
 2626TIP3    H132073   0.011   1.885   7.973 -0.1515  1.1395  0.5208
 2626TIP3    H232074   0.124   1.983   7.952 -1.1083  2.2155  0.2759
 2627TIP3   OH232075   5.760   5.484   9.530  0.3973 -0.0825  0.6473
 2627TIP3    H132076   5.754   5.443   9.444  3.8108 -1.6496  0.9966
 2627TIP3    H232077   5.810   5.564   9.516  0.9783 -0.3489  1.1233
 2628TIP3   OH232078   4.344   0.944   7.113  0.2924  0.0294 -0.1210
 2628TIP3    H132079   4.412   0.933   7.047  0.2994 -0.6218 -0.0123
 2628TIP3    H232080   4.341   1.038   7.129  0.0512  0.2274 -1.2902
 2629TIP3   OH232081   0.361   0.649   9.298 -0.6272  0.5870 -0.0672
 2629TIP3    H132082   0.358   0.732   9.251  0.6137  0.8074  0.1998
 2629TIP3    H232083   0.434   0.601   9.258  0.0451  0.5149  1.1674
 2630TIP3   OH232084   5.840   1.563   8.649 -0.1316 -0.0900  0.0752
 2630TIP3    H132085   5.766   1.616   8.619  0.9802  1.1667 -0.5607
 2630TIP3    H232086   5.879   1.527   8.569  1.9462  2.0611  0.0054
 2631TIP3   OH232087   6.774   0.776   7.313  0.0896 -0.4474  0.0775
 2631TIP3    H132088   6.783   0.835   7.238  0.4019 -1.5091 -0.7513
 2631TIP3    H232089   6.791   0.831   7.389  0.2429  0.5550 -0.6613
 2632TIP3   OH232090   1.625   1.992   8.480 -0.0785 -0.4685 -0.0696
 2632TIP3    H132091   1.706   2.025   8.442 -0.2439 -1.0860 -0.9941
 2632TIP3    H232092   1.653   1.937   8.553  0.2186  1.2721  1.2058
 2633TIP3   OH232093   5.894   0.198   8.435 -0.4964 -0.7395 -0.1305
 2633TIP3    H132094   5.847   0.194   8.518 -0.3099  1.4627  0.1222
 2633TIP3    H232095   5.920   0.289   8.426  2.0256 -1.4736 -1.2201
 2634TIP3   OH232096   1.645   6.567   9.102  0.2109 -0.1814 -0.1979
 2634TIP3    H132097   1.712   6.621   9.059  0.0891 -1.4470 -2.0956
 2634TIP3    H232098   1.647   6.484   9.054 -1.7884 -0.7272  0.5850
 2635TIP3   OH232099   2.019   6.159   7.929 -0.8800 -1.0013 -0.6274
 2635TIP3    H132100   2.005   6.231   7.990  1.1636 -0.9413 -0.1809
 2635TIP3    H232101   2.095   6.112   7.963 -0.3228 -1.5853 -2.5472
 2636TIP3   OH232102   3.225   4.443   9.101  0.1240  0.0349 -0.5474
 2636TIP3    H132103   3.177   4.364   9.078  0.9212 -0.8225  0.6378
 2636TIP3    H232104   3.171   4.486   9.168 -0.1265  0.3184 -0.9243
 2637TIP3   OH232105   2.249   6.278   8.586 -0.2224  0.1406  0.0347
 2637TIP3    H132106   2.203   6.242   8.661  0.2220  1.0147  0.7460
 2637TIP3    H232107   2.308   6.344   8.623 -0.2968  0.8849 -1.1115
 2638TIP3   OH232108   7.173   4.797   8.596 -0.3107 -0.4351 -0.5979
 2638TIP3    H132109   7.139   4.755   8.675  0.0110 -1.9988 -1.2598
 2638TIP3    H232110   7.104   4.857   8.569 -1.5154 -1.7405 -0.5199
 2639TIP3   OH232111   2.416   1.862   7.033 -0.0228  0.0489  0.6537
 2639TIP3    H132112   2.443   1.827   6.949 -0.5714  0.3984  0.3272
 2639TIP3    H232113   2.349   1.802   7.064  0.1144 -0.0291  0.8033
 2640TIP3   OH232114   1.394   6.681   9.337 -0.9413 -0.1218  0.3736
 2640TIP3    H132115   1.317   6.716   9.381 -2.7676 -0.7917 -2.1148
 2640TIP3    H232116   1.446   6.759   9.315 -1.9801  0.5232  0.1656
 2641TIP3   OH232117   3.815   5.504   8.250 -0.1205  0.2655  0.0103
 2641TIP3    H132118   3.834   5.467   8.336  1.3222  1.0942  0.0712
 2641TIP3    H232119   3.900   5.526   8.213 -0.7301  0.1100 -1.5681
 2642TIP3   OH232120   7.023   6.355   6.688  0.3302 -0.0912 -0.7943
 2642TIP3    H132121   6.992   6.441   6.662  1.0420  0.2360 -0.5751
 2642TIP3    H232122   7.113   6.369   6.716  0.1443 -0.7378  0.1715
 2643TIP3   OH232123   2.291   1.634   8.681 -0.1279 -0.4739  0.5296
 2643TIP3    H132124   2.337   1.717   8.670 -0.7096 -0.2519 -0.3656
 2643TIP3    H232125   2.347   1.583   8.739 -0.6773  1.2364  2.7194
 2644TIP3   OH232126   2.005   5.884   9.348  0.2840 -0.0775 -0.1397
 2644TIP3    H132127   2.073   5.936   9.304  1.9217 -0.9281  1.2698
 2644TIP3    H232128   1.993   5.808   9.292  0.9526 -0.2112 -0.1156
 2645TIP3   OH232129   7.477   6.274   8.205 -0.1255  0.3020  0.0137
 2645TIP3    H132130   7.382   6.274   8.220  0.1144 -0.0516  1.6704
 2645TIP3    H232131   7.502   6.182   8.213  0.3550  0.3939 -0.4397
 2646TIP3   OH232132   2.381   4.058   9.109  0.5637 -0.8789 -0.4388
 2646TIP3    H132133   2.400   4.075   9.016  0.4207 -0.8829 -0.4689
 2646TIP3    H232134   2.466   4.067   9.152  0.3202  0.9791 -0.2843
 2647TIP3   OH232135   5.746   6.789   6.894 -0.1179 -0.3160 -0.4253
 2647TIP3    H132136   5.677   6.730   6.925  0.6216 -1.1600 -0.3720
 2647TIP3    H232137   5.806   6.734   6.846 -0.0614  0.6155 -1.4636
 2648TIP3   OH232138   3.849   4.592   9.181  0.0051 -0.2852 -0.2900
 2648TIP3    H132139   3.881   4.578   9.092 -0.3323 -0.8558 -0.3207
 2648TIP3    H232140   3.775   4.652   9.171 -0.3697 -0.7735 -0.4486
 2649TIP3   OH232141   5.618   3.249   8.727  0.1769  0.1604  0.2836
 2649TIP3    H132142   5.610   3.247   8.822 -1.8500 -0.2778  0.1455
 2649TIP3    H232143   5.528   3.243   8.695  0.7428  1.1557 -1.6577
 2650TIP3   OH232144   5.070   4.757   9.511  0.0787 -0.1850  0.0830
 2650TIP3    H132145   5.150   4.705   9.510 -0.4517 -1.1932 -3.0255
 2650TIP3    H232146   5.098   4.844   9.540  2.4874 -0.3321 -1.4936
 2651TIP3   OH232147   4.264   4.687   7.468 -0.3540 -0.2397  0.3579
 2651TIP3    H132148   4.325   4.724   7.405 -1.5993  1.4542  0.0876
 2651TIP3    H232149   4.320   4.651   7.537  0.9585  1.1490  0.0593
 2652TIP3   OH232150   0.602   2.052   9.356  0.0052  0.0206 -0.3595
 2652TIP3    H132151   0.561   2.121   9.407 -0.2208  0.1915 -0.7680
 2652TIP3    H232152   0.669   2.097   9.304  0.3085 -0.1673 -0.1362
 2653TIP3   OH232153   2.511   5.548   7.790  0.0228 -0.2325 -0.3225
 2653TIP3    H132154   2.541   5.478   7.848  1.0295 -1.0389 -1.7719
 2653TIP3    H232155   2.521   5.512   7.702 -0.8383  1.2123 -1.0376
 2654TIP3   OH232156   4.205   5.317   7.772  0.0057 -0.0883 -0.0349
 2654TIP3    H132157   4.289   5.323   7.727  0.2656 -1.0418  0.3057
 2654TIP3    H232158   4.227   5.320   7.865 -0.4499  0.8696  0.0576
 2655TIP3   OH232159   1.329   5.016   8.954  0.5127 -0.5744 -0.1083
 2655TIP3    H132160   1.273   5.053   8.886  0.1930 -0.5458  0.1668
 2655TIP3    H232161   1.358   4.932   8.918  2.4133  0.5480 -1.3434
 2656TIP3   OH232162   1.822   3.417   7.034 -0.1252 -0.0435 -0.3283
 2656TIP3    H132163   1.900   3.473   7.043  0.8118 -1.2885 -0.3589
 2656TIP3    H232164   1.846   3.353   6.967 -1.7403  0.4110 -1.4003
 2657TIP3   OH232165   2.391   2.458   7.982 -0.1610 -0.4854  0.1811
 2657TIP3    H132166   2.386   2.448   7.886  0.3389 -0.8818  0.1973
 2657TIP3    H232167   2.399   2.552   7.995  0.0661 -0.4503 -0.1822
 2658TIP3   OH232168   4.595   2.402   8.171 -1.0157  0.0104  0.3294
 2658TIP3    H132169   4.591   2.444   8.257  0.8030  2.2002 -0.5580
 2658TIP3    H232170   4.659   2.332   8.181 -1.0454  0.0520  0.8375
 2659TIP3   OH232171   7.597   7.392   8.336 -0.2136  0.2154 -0.0611
 2659TIP3    H132172   7.653   7.323   8.371  0.0972  0.5628  0.1315
 2659TIP3    H232173   7.649   7.432   8.267  0.0141  0.9182  0.5024
 2660TIP3   OH232174   4.096   3.945   6.929  0.3641 -0.3841 -0.2861
 2660TIP3    H132175   4.071   3.853   6.926  0.4027 -0.4044 -0.0056
 2660TIP3    H232176   4.012   3.992   6.925  0.3670 -0.4220 -0.8212
 2661TIP3   OH232177   1.996   6.131   8.234  0.1802  0.2812  0.0745
 2661TIP3    H132178   2.030   6.220   8.243 -0.9498  0.7524 -0.1928
 2661TIP3    H232179   1.915   6.141   8.185  0.8844 -1.0879 -1.4784
 2662TIP3   OH232180   3.614   2.291   9.378  0.0419 -0.0749 -0.1988
 2662TIP3    H132181   3.579   2.379   9.392 -1.4826 -0.5620 -0.7409
 2662TIP3    H232182   3.548   2.248   9.324 -0.8333 -2.5507  2.5940
 2663TIP3   OH232183   6.504   5.117   9.252 -0.2405  0.2526  0.5701
 2663TIP3    H132184   6.431   5.156   9.300  0.3995  1.9235  0.2638
 2663TIP3    H232185   6.582   5.155   9.293  0.3597  0.4309 -0.6930
 2664TIP3   OH232186   7.537   5.784   7.581  0.2272 -0.1918  0.1277
 2664TIP3    H132187   7.592   5.854   7.546  0.6654 -0.7992 -0.4293
 2664TIP3    H232188   7.453   5.795   7.536  0.3781 -0.1790 -0.1540
 2665TIP3   OH232189   6.854   3.984   9.526  0.0353  0.0363  0.3638
 2665TIP3    H132190   6.823   3.894   9.516 -2.2199  0.8166 -0.3848
 2665TIP3    H232191   6.949   3.976   9.536 -0.0459 -2.3698 -0.1854
 2666TIP3   OH232192   3.644   4.361   8.956 -0.8857  0.3484  0.1853
 2666TIP3    H132193   3.712   4.425   8.978 -0.1466  0.2077 -1.5020
 2666TIP3    H232194   3.685   4.276   8.973  0.4693  0.1287 -3.2390
 2667TIP3   OH232195   0.824   7.471   9.742  0.1772 -0.2179 -0.0493
 2667TIP3    H132196   0.730   7.456   9.731  0.2229  0.1368 -1.1100
 2667TIP3    H232197   0.863   7.437   9.662  0.7141  1.5438 -0.5865
 2668TIP3   OH232198   6.235   1.002   8.789 -0.1263 -0.0034 -0.0298
 2668TIP3    H132199   6.316   0.954   8.807  1.3836  1.8099 -1.5454
 2668TIP3    H232200   6.221   0.991   8.695  0.4667  2.6866 -0.5106
 2669TIP3   OH232201   3.889   0.755   8.374 -0.8209  0.0425  0.9567
 2669TIP3    H132202   3.902   0.678   8.429 -0.6963 -0.1556  0.6483
 2669TIP3    H232203   3.975   0.799   8.374 -1.2573  0.9834  2.3328
 2670TIP3   OH232204   5.891   7.596   9.216 -0.1013  0.0103 -0.6236
 2670TIP3    H132205   5.931   7.675   9.254  1.2915 -0.9073 -0.1056
 2670TIP3    H232206   5.812   7.582   9.268  0.9035 -0.2711  0.8863
 2671TIP3   OH232207   0.062   2.595   7.683  0.1919  0.2130 -0.2544
 2671TIP3    H132208   0.025   2.680   7.705  0.4315  0.2247  0.1084
 2671TIP3    H232209   0.124   2.613   7.612  1.0998  0.5189  0.5998
 2672TIP3   OH232210   5.795   7.441   7.384  0.0503  0.6269  0.4991
 2672TIP3    H132211   5.882   7.427   7.345  0.2898  1.0304  0.8807
 2672TIP3    H232212   5.784   7.536   7.384 -0.8620  0.5400 -0.5573
 2673TIP3   OH232213   6.529   3.304   6.620 -0.5937  0.6264  0.1988
 2673TIP3    H132214   6.560   3.243   6.687 -2.2692 -0.4755  0.0363
 2673TIP3    H232215   6.537   3.255   6.538  1.0705  1.8188 -0.3984
 2674TIP3   OH232216   3.248   0.407   8.246 -0.2947 -0.0770  0.0572
 2674TIP3    H132217   3.300   0.327   8.237  1.2749  0.7736  1.0567
 2674TIP3    H232218   3.192   0.408   8.169  0.6480 -1.4337 -0.6885
 2675TIP3   OH232219   6.973   3.330   6.956 -0.3018  0.1883 -0.3812
 2675TIP3    H132220   6.947   3.252   6.906 -1.3458  0.9354 -1.0305
 2675TIP3    H232221   6.895   3.385   6.958  0.6125  1.5404 -0.5332
 2676TIP3   OH232222   5.399   5.165   9.311 -0.2017  0.1169 -0.3295
 2676TIP3    H132223   5.385   5.106   9.385 -1.8561  0.6313 -0.1882
 2676TIP3    H232224   5.322   5.154   9.257  0.2937  0.8605 -1.2139
 2677TIP3   OH232225   6.749   3.429   7.131 -0.2723  0.4816  0.0305
 2677TIP3    H132226   6.797   3.510   7.114  1.4368 -0.6563 -0.9129
 2677TIP3    H232227   6.720   3.400   7.044  0.1218 -0.4710  0.2033
 2678TIP3   OH232228   0.474   7.169   7.708  0.2344  0.2199 -0.3709
 2678TIP3    H132229   0.520   7.158   7.624 -0.5317  0.0071 -0.7716
 2678TIP3    H232230   0.485   7.085   7.752 -1.0050 -0.3552 -1.1042
 2679TIP3   OH232231   3.609   3.621   7.556 -0.1899 -0.4516  0.5291
 2679TIP3    H132232   3.658   3.601   7.477 -0.1271 -0.4441  0.5656
 2679TIP3    H232233   3.543   3.685   7.528  0.8782  0.8258  0.7950
 2680TIP3   OH232234   0.680   4.517   8.082  0.7397  0.2046  0.1059
 2680TIP3    H132235   0.593   4.502   8.046  0.1966  1.9819  0.5826
 2680TIP3    H232236   0.691   4.447   8.147 -0.3111 -0.0592  0.0219
 2681TIP3   OH232237   3.937   4.411   7.097 -0.6218 -0.0061  0.1161
 2681TIP3    H132238   3.861   4.377   7.146 -0.8386 -0.1108 -0.2903
 2681TIP3    H232239   4.001   4.340   7.100 -0.0184  0.5566  1.5760
 2682TIP3   OH232240   3.009   1.004   6.737 -0.2556  0.2959 -0.1836
 2682TIP3    H132241   2.921   1.041   6.727 -0.2066  0.3340 -0.4617
 2682TIP3    H232242   2.994   0.918   6.775 -0.4238  0.2363 -0.3830
 2683TIP3   OH232243   6.545   1.252   9.118  0.1265  0.3067 -0.2503
 2683TIP3    H132244   6.509   1.261   9.029 -0.3256 -1.6542 -0.3207
 2683TIP3    H232245   6.468   1.241   9.174  0.4393  0.9112  0.3183
 2684TIP3   OH232246   4.529   0.419   8.181  0.0963 -0.1689 -0.3806
 2684TIP3    H132247   4.591   0.467   8.236 -1.1321 -0.9822  1.8098
 2684TIP3    H232248   4.553   0.444   8.091  3.0021  0.2277  0.4001
 2685TIP3   OH232249   0.865   1.050   7.263  0.1425  0.5735  0.0128
 2685TIP3    H132250   0.803   1.114   7.227  0.7587  1.3175  0.2413
 2685TIP3    H232251   0.810   0.982   7.301 -0.5336  1.1014  0.0067
 2686TIP3   OH232252   0.071   1.073   8.514  0.5141 -0.2686 -0.6208
 2686TIP3    H132253   0.080   1.168   8.522 -1.0234 -0.1789  0.6478
 2686TIP3    H232254   0.145   1.046   8.460  1.5119  1.5346 -0.2456
 2687TIP3   OH232255   7.588   3.497   7.468 -0.1555 -0.4274 -0.2856
 2687TIP3    H132256   7.572   3.589   7.489 -0.4075 -0.3230 -0.9169
 2687TIP3    H232257   7.510   3.469   7.421 -0.9560 -1.5230  1.5867
 2688TIP3   OH232258   4.183   6.723   9.363  0.2391  0.1863 -0.0425
 2688TIP3    H132259   4.267   6.688   9.334 -0.2671 -1.0037 -0.1217
 2688TIP3    H232260   4.145   6.652   9.415 -0.7454  0.6964 -0.0602
 2689TIP3   OH232261   4.656   2.690   8.060  0.7716  0.0426  0.4114
 2689TIP3    H132262   4.619   2.602   8.058  0.9593 -0.0925  1.6668
 2689TIP3    H232263   4.581   2.748   8.051  0.5992 -0.2398  0.0039
 2690TIP3   OH232264   7.426   3.896   8.090  0.0073  0.3145 -0.1722
 2690TIP3    H132265   7.414   3.990   8.073 -2.1133  0.3428  1.1258
 2690TIP3    H232266   7.402   3.854   8.008 -1.2384  0.8469 -0.1088
 2691TIP3   OH232267   0.940   7.579   7.555  0.2068  0.2500  0.2056
 2691TIP3    H132268   0.990   7.634   7.614 -0.5528  1.9570 -0.6758
 2691TIP3    H232269   0.848   7.598   7.575 -0.1229  1.9806 -2.3568
 2692TIP3   OH232270   6.923   7.040   9.019 -0.5019  0.3575 -0.2407
 2692TIP3    H132271   6.980   7.115   9.036 -0.8230  0.3754  0.8690
 2692TIP3    H232272   6.983   6.969   8.999 -0.0474  0.3403  1.0528
 2693TIP3   OH232273   2.993   5.012   8.681 -0.4177 -0.3600 -0.3762
 2693TIP3    H132274   2.954   5.045   8.600  0.9844 -0.2981 -1.0559
 2693TIP3    H232275   2.928   5.032   8.749 -1.6190 -0.4129 -1.4678
 2694TIP3   OH232276   6.969   3.660   8.527 -0.1961 -0.1081  0.5539
 2694TIP3    H132277   6.923   3.709   8.596  0.6111  0.2964  0.8200
 2694TIP3    H232278   6.921   3.577   8.521 -2.1369  1.0125 -0.5023
 2695TIP3   OH232279   3.608   3.573   8.223  0.0735  0.3608  0.6602
 2695TIP3    H132280   3.687   3.621   8.200 -0.2274  0.9970  0.9266
 2695TIP3    H232281   3.582   3.609   8.308  0.0763 -0.5702  1.0744
 2696TIP3   OH232282   2.844   5.163   8.195 -0.0379 -0.2068  0.0965
 2696TIP3    H132283   2.906   5.209   8.251 -0.6831  0.7238  0.0641
 2696TIP3    H232284   2.898   5.127   8.124  0.3650  1.4834 -0.5037
 2697TIP3   OH232285   5.131   1.852   7.281  0.0663 -0.0768 -0.1453
 2697TIP3    H132286   5.119   1.919   7.214  2.4193 -0.3807 -0.9594
 2697TIP3    H232287   5.225   1.836   7.283  0.0711 -0.3632  2.9906
 2698TIP3   OH232288   7.373   2.603   6.613  0.2909  0.6238 -0.1780
 2698TIP3    H132289   7.355   2.555   6.693 -1.6513 -0.9228 -1.4647
 2698TIP3    H232290   7.434   2.547   6.565 -2.1661 -0.8487 -1.7916
 2699TIP3   OH232291   3.334   4.730   9.285 -0.3426  0.0743 -0.4416
 2699TIP3    H132292   3.285   4.781   9.220 -2.3985 -0.6989  0.4135
 2699TIP3    H232293   3.382   4.665   9.234  1.3643  1.9831 -1.4552
 2700TIP3   OH232294   6.292   2.528   9.090 -0.1403  0.3102  0.0993
 2700TIP3    H132295   6.211   2.575   9.108 -1.3065 -1.2374 -0.7727
 2700TIP3    H232296   6.339   2.584   9.028 -0.8922  0.8869  0.0342
 2701TIP3   OH232297   2.697   0.947   9.059 -0.3034 -0.2625  0.1955
 2701TIP3    H132298   2.626   0.892   9.091 -1.0618  1.0933  0.9682
 2701TIP3    H232299   2.777   0.907   9.095 -0.7550 -1.2665  0.1027
 2702TIP3   OH232300   4.692   1.061   8.640 -0.1150 -0.1720  0.2356
 2702TIP3    H132301   4.753   1.128   8.670 -0.8656  0.7127 -0.1649
 2702TIP3    H232302   4.737   1.018   8.567 -0.1545  0.8241 -0.3993
 2703TIP3   OH232303   1.184   6.248   8.571  0.3555  0.2838  0.2136
 2703TIP3    H132304   1.223   6.265   8.486 -0.9246  2.0922 -0.0679
 2703TIP3    H232305   1.256   6.256   8.633  1.0898  0.0484 -0.5920
 2704TIP3   OH232306   1.855   6.672   8.969 -0.8287 -0.4626  0.2680
 2704TIP3    H132307   1.873   6.728   8.894 -1.6318 -1.4781 -0.7263
 2704TIP3    H232308   1.928   6.610   8.971 -1.8743 -1.8502 -1.1140
 2705TIP3   OH232309   6.510   4.633   7.286  1.0507  0.0240 -0.0885
 2705TIP3    H132310   6.540   4.664   7.201 -1.3799 -0.0614 -1.0456
 2705TIP3    H232311   6.443   4.696   7.312  0.7047 -0.7942  1.0747
 2706TIP3   OH232312   5.230   2.848   9.092  0.3408  0.7855 -0.4853
 2706TIP3    H132313   5.277   2.921   9.131  1.5309 -0.1660 -0.0682
 2706TIP3    H232314   5.249   2.854   8.999  0.4288  0.9996 -0.4545
 2707TIP3   OH232315   0.071   2.049   7.217  0.4324 -0.3416  0.1694
 2707TIP3    H132316   0.095   2.070   7.307  0.1575 -1.0661  0.4231
 2707TIP3    H232317  -0.003   2.106   7.197  0.7674  0.1266  0.2446
 2708TIP3   OH232318   2.883   5.703   7.941  0.1259 -0.0318  0.1620
 2708TIP3    H132319   2.805   5.697   7.996 -0.8251 -1.7016 -1.2554
 2708TIP3    H232320   2.850   5.713   7.852  1.5212 -0.7654 -0.4791
 2709TIP3   OH232321   6.423   2.211   7.887 -0.2776  0.5560 -0.3629
 2709TIP3    H132322   6.467   2.282   7.935 -1.3218  0.0790  1.3968
 2709TIP3    H232323   6.485   2.138   7.889 -0.9867 -0.0841  2.0285
 2710TIP3   OH232324   1.966   3.541   7.337 -0.0882  0.7466  0.2448
 2710TIP3    H132325   2.002   3.543   7.248  2.5369  0.3341  1.2151
 2710TIP3    H232326   1.983   3.452   7.368 -0.7547  0.9503  1.2368
 2711TIP3   OH232327   3.158   4.648   7.415  0.1315 -0.1182  0.5956
 2711TIP3    H132328   3.158   4.607   7.502  0.7245 -1.0269  0.1799
 2711TIP3    H232329   3.222   4.718   7.422 -0.6696  0.5719  1.2283
 2712TIP3   OH232330   2.011   4.967   7.704  0.5818 -0.3503  0.2325
 2712TIP3    H132331   1.920   4.973   7.675  0.2758  2.4011  1.4159
 2712TIP3    H232332   2.059   4.938   7.627 -0.9314  1.1323 -1.3567
 2713TIP3   OH232333   5.551   3.600   9.120 -0.4669 -0.3953 -0.7634
 2713TIP3    H132334   5.462   3.635   9.131  0.3075  1.4357 -0.0131
 2713TIP3    H232335   5.608   3.670   9.150  1.2451 -1.6867 -0.8865
 2714TIP3   OH232336   4.217   0.551   9.620 -0.5187 -0.3065 -0.2792
 2714TIP3    H132337   4.268   0.598   9.554 -0.0940  3.4259  2.3831
 2714TIP3    H232338   4.283   0.512   9.678 -0.8433 -0.7511 -0.2018
 2715TIP3   OH232339   4.009   4.946   7.175 -0.5673  1.0061 -0.3538
 2715TIP3    H132340   3.992   5.027   7.224  0.7796  0.9398  0.2533
 2715TIP3    H232341   3.963   4.959   7.092 -0.5997  2.2783 -0.1652
 2716TIP3   OH232342   2.081   1.549   8.427  0.6509 -0.2153  0.1507
 2716TIP3    H132343   2.075   1.577   8.519 -0.6652 -1.9256  0.6444
 2716TIP3    H232344   2.172   1.567   8.403  0.9741  0.4720  1.7098
 2717TIP3   OH232345   4.517   0.813   7.468 -0.3198  0.0885 -0.1021
 2717TIP3    H132346   4.472   0.881   7.417 -0.3252 -0.0764 -0.3206
 2717TIP3    H232347   4.497   0.731   7.422 -0.9302 -0.1580  0.5821
 2718TIP3   OH232348   4.476   6.443   9.117 -0.0607  0.2941  0.5357
 2718TIP3    H132349   4.450   6.525   9.159  0.1610  0.9858 -0.6545
 2718TIP3    H232350   4.473   6.378   9.188 -2.1665  0.9117  1.0845
 2719TIP3   OH232351   5.647   4.514   8.893  0.0310 -0.0272  0.1518
 2719TIP3    H132352   5.586   4.565   8.946  2.3869  1.7137  1.3828
 2719TIP3    H232353   5.730   4.562   8.899  1.6040 -2.3604 -1.2528
 2720TIP3   OH232354   3.287   3.048   8.429  0.1997  0.7576 -0.2390
 2720TIP3    H132355   3.245   3.080   8.509 -0.1919 -0.3255  0.0057
 2720TIP3    H232356   3.227   3.074   8.359 -0.8331 -0.6152  0.0922
 2721TIP3   OH232357   2.201   3.102   9.120  0.2356 -0.3126 -0.4922
 2721TIP3    H132358   2.172   3.031   9.062  0.5955 -2.0491  1.3659
 2721TIP3    H232359   2.188   3.068   9.208  3.8993  0.4478  0.4964
 2722TIP3   OH232360   4.536   0.684   6.852 -0.2595  0.3960  0.1216
 2722TIP3    H132361   4.463   0.632   6.885 -0.5722  0.6082 -0.2288
 2722TIP3    H232362   4.610   0.623   6.852 -0.8180 -0.3277 -1.1079
 2723TIP3   OH232363   7.048   4.694   8.828 -0.4382  0.3713  0.1847
 2723TIP3    H132364   7.107   4.622   8.848 -0.1042  0.7526  0.6019
 2723TIP3    H232365   6.962   4.653   8.818 -0.2408 -0.0893  0.3411
 2724TIP3   OH232366   0.932   6.443   7.426  0.1399 -0.4814 -0.0218
 2724TIP3    H132367   1.008   6.483   7.382  0.4621 -0.9168  0.1281
 2724TIP3    H232368   0.934   6.351   7.399  0.0977 -0.6620  0.5647
 2725TIP3   OH232369   3.698   7.180   9.044 -0.0348 -0.0939  0.1464
 2725TIP3    H132370   3.637   7.142   8.981 -1.2562  1.4089  0.3625
 2725TIP3    H232371   3.777   7.127   9.036 -1.0376 -1.5146 -0.8184
 2726TIP3   OH232372   7.166   7.542   6.894 -0.2208 -0.2015 -0.1015
 2726TIP3    H132373   7.199   7.542   6.984 -1.6216  0.9235  0.4530
 2726TIP3    H232374   7.071   7.531   6.903 -0.2959 -1.0229 -1.5103
 2727TIP3   OH232375   5.349   4.005   7.822 -0.4710  0.4622 -0.2386
 2727TIP3    H132376   5.436   4.013   7.859 -0.1141 -1.0668 -0.6548
 2727TIP3    H232377   5.308   4.090   7.837  1.0575  1.1860  0.0238
 2728TIP3   OH232378   6.391   4.084   8.027  0.1814  0.1860 -0.6542
 2728TIP3    H132379   6.377   4.018   8.094 -0.6900  0.5650 -0.4555
 2728TIP3    H232380   6.420   4.161   8.075 -1.5150  0.8064 -0.5626
 2729TIP3   OH232381   5.314   5.789   9.122  0.5053  0.1163 -0.7740
 2729TIP3    H132382   5.229   5.768   9.161  0.8236 -1.9144 -1.0342
 2729TIP3    H232383   5.293   5.814   9.032  0.1454  0.0914 -0.7001
 2730TIP3   OH232384   4.472   5.528   9.248 -0.0231  0.1706  0.1838
 2730TIP3    H132385   4.497   5.528   9.156 -1.6502 -0.1223 -0.2849
 2730TIP3    H232386   4.439   5.617   9.264  0.5769  0.3264  0.5879
 2731TIP3   OH232387   4.798   6.538   7.769  0.3597 -0.6825 -0.2073
 2731TIP3    H132388   4.714   6.494   7.760  1.0494 -2.1886  0.4835
 2731TIP3    H232389   4.850   6.508   7.694  0.3011  0.2526 -0.6410
 2732TIP3   OH232390   5.405   5.507   8.474  0.4291  0.1157 -0.6594
 2732TIP3    H132391   5.342   5.552   8.418 -1.2298  0.0708  1.0748
 2732TIP3    H232392   5.354   5.438   8.516  0.8052  1.8578  3.0341
 2733TIP3   OH232393   7.150   0.168   8.638  0.5484  0.0604  0.5884
 2733TIP3    H132394   7.122   0.245   8.588 -1.8279 -0.8648  0.3755
 2733TIP3    H232395   7.121   0.093   8.585  1.2646 -0.9876  1.6249
 2734TIP3   OH232396   2.717   5.156   9.450  0.2112 -0.4452  0.0800
 2734TIP3    H132397   2.643   5.182   9.505 -1.0421 -1.5122 -1.0167
 2734TIP3    H232398   2.787   5.135   9.512 -1.5232 -2.7845  1.4161
 2735TIP3   OH232399   6.901   5.206   7.441 -0.1484 -0.6539 -0.0331
 2735TIP3    H132400   6.989   5.192   7.477  0.3510 -1.3230 -1.4314
 2735TIP3    H232401   6.869   5.284   7.485  1.3180 -0.1559  0.2183
 2736TIP3   OH232402   2.553   7.661   8.300  0.2296  0.1017 -0.1387
 2736TIP3    H132403   2.643   7.693   8.302  0.2093  0.1691  1.4855
 2736TIP3    H232404   2.557   7.581   8.248  1.1851  0.2534 -0.3096
 2737TIP3   OH232405   7.670   5.102   7.818  0.5099 -0.4834  0.3259
 2737TIP3    H132406   7.728   5.168   7.857  0.2283  0.8864 -1.4325
 2737TIP3    H232407   7.582   5.134   7.838  0.3731 -0.2657 -0.5832
 2738TIP3   OH232408   0.414   3.697   8.194  0.0702  0.4485 -0.4618
 2738TIP3    H132409   0.398   3.780   8.239  0.0727  0.3410 -0.2600
 2738TIP3    H232410   0.386   3.712   8.104  3.0674  1.7460 -1.3125
 2739TIP3   OH232411   3.128   2.853   8.094  0.3024  0.0342 -0.4926
 2739TIP3    H132412   3.040   2.890   8.091 -0.1431 -1.0453 -1.5464
 2739TIP3    H232413   3.123   2.786   8.162 -0.0021 -0.7631 -1.2925
 2740TIP3   OH232414   3.873   1.251   9.239 -0.2060  0.4308 -0.5836
 2740TIP3    H132415   3.948   1.234   9.183  0.2600 -0.1502  0.1908
 2740TIP3    H232416   3.895   1.332   9.284  0.8732 -0.7115  1.0707
 2741TIP3   OH232417   6.493   4.828   8.122  0.5242  0.3041  0.8884
 2741TIP3    H132418   6.558   4.857   8.058 -0.0218  2.0974  1.1111
 2741TIP3    H232419   6.425   4.785   8.070  1.2356 -0.4244  0.5345
 2742TIP3   OH232420   4.022   2.104   8.436 -0.1721  0.2829 -0.1211
 2742TIP3    H132421   4.088   2.035   8.445  0.6717  0.9562 -0.8931
 2742TIP3    H232422   3.941   2.063   8.465  0.8803 -0.0022  2.8070
 2743TIP3   OH232423   7.160   3.134   8.740  0.3426  0.1388 -0.0199
 2743TIP3    H132424   7.122   3.070   8.679 -2.0915  1.1175  0.3690
 2743TIP3    H232425   7.166   3.087   8.823  1.0199 -0.3439 -0.3314
 2744TIP3   OH232426   2.568   5.798   8.373  0.0626 -0.2788 -0.8194
 2744TIP3    H132427   2.634   5.826   8.436 -0.3276 -0.1643 -0.4596
 2744TIP3    H232428   2.517   5.732   8.420  0.1923 -0.6865 -1.2437
 2745TIP3   OH232429   2.991   3.781   8.238 -0.6343  0.6655 -0.3586
 2745TIP3    H132430   3.009   3.688   8.249 -3.2386  0.1765  0.4765
 2745TIP3    H232431   2.995   3.817   8.327  0.4919  1.3890 -0.6924
 2746TIP3   OH232432   5.703   3.259   7.679  0.5821  1.0737  0.0534
 2746TIP3    H132433   5.709   3.165   7.660  1.6810  0.9220  1.0650
 2746TIP3    H232434   5.687   3.264   7.773 -1.5101  1.8796 -0.3024
 2747TIP3   OH232435   4.474   5.084   8.210  0.1671  0.1724 -0.2598
 2747TIP3    H132436   4.501   5.025   8.280  1.6062  0.0734 -0.8789
 2747TIP3    H232437   4.425   5.029   8.149 -0.7042  0.1684  0.4263
 2748TIP3   OH232438   5.742   4.159   7.440 -0.0695 -0.2723  0.0981
 2748TIP3    H132439   5.683   4.147   7.515 -0.0618  0.7088  0.2774
 2748TIP3    H232440   5.816   4.101   7.458  0.6089  0.9871  1.5959
 2749TIP3   OH232441   6.602   4.759   7.012 -0.1790  0.3684 -0.1214
 2749TIP3    H132442   6.637   4.784   6.926 -0.0002  0.2669 -0.0782
 2749TIP3    H232443   6.560   4.674   6.997 -3.6968  2.0623 -1.0438
 2750TIP3   OH232444   0.828   7.104   9.099 -0.0929 -0.2701  0.1717
 2750TIP3    H132445   0.846   7.059   9.016 -0.1940 -1.4519  0.7599
 2750TIP3    H232446   0.811   7.195   9.074  1.6299 -0.1990 -0.9194
 2751TIP3   OH232447   4.445   2.774   8.913 -0.2051  0.0125  0.2640
 2751TIP3    H132448   4.370   2.818   8.872 -0.7196 -0.7907  0.2939
 2751TIP3    H232449   4.407   2.693   8.948  1.1988 -1.9223 -2.3634
 2752TIP3   OH232450   0.191   6.020   7.622  0.0017  0.0052  0.1336
 2752TIP3    H132451   0.097   6.034   7.618 -0.3250 -0.7106  2.9359
 2752TIP3    H232452   0.227   6.073   7.552 -2.5466 -0.6432 -1.8019
 2753TIP3   OH232453   1.397   5.090   6.616  0.6368  0.2471 -0.3979
 2753TIP3    H132454   1.476   5.139   6.595  0.7407 -0.2465 -1.1883
 2753TIP3    H232455   1.332   5.158   6.637  0.7371  0.7601 -1.6117
 2754TIP3   OH232456   1.132   2.171   9.259 -0.4046 -0.0067  0.2085
 2754TIP3    H132457   1.158   2.148   9.348  2.5227  0.9572 -0.2961
 2754TIP3    H232458   1.041   2.198   9.267  0.2535  1.7787  3.2507
 2755TIP3   OH232459   2.690   7.498   8.645  0.1926 -0.3864 -0.3956
 2755TIP3    H132460   2.779   7.466   8.632  0.3458 -0.0866 -0.0913
 2755TIP3    H232461   2.636   7.419   8.643  0.2798 -0.4398 -2.0740
 2756TIP3   OH232462   5.923   6.762   9.023  0.1865 -0.0228  0.1856
 2756TIP3    H132463   6.016   6.786   9.020  0.0258  0.6230  0.3180
 2756TIP3    H232464   5.912   6.703   8.948  0.5517  0.4580 -0.2557
 2757TIP3   OH232465   1.573   6.416   7.726 -0.5647  0.7984 -0.1457
 2757TIP3    H132466   1.574   6.468   7.806  0.4750 -0.9885  1.0882
 2757TIP3    H232467   1.515   6.343   7.746 -0.7618  0.6467 -1.2449
 2758TIP3   OH232468   2.711   6.910   8.908 -0.3075  0.1928  0.4403
 2758TIP3    H132469   2.755   6.825   8.912 -0.3330  0.1403 -0.2503
 2758TIP3    H232470   2.760   6.959   8.842 -1.1021  0.2317 -0.1339
 2759TIP3   OH232471   6.136   7.177   7.527 -0.0060  0.7091 -0.4463
 2759TIP3    H132472   6.168   7.087   7.527  0.5208  0.8429  1.4070
 2759TIP3    H232473   6.203   7.226   7.480  0.1099  0.2503 -0.7689
 2760TIP3   OH232474   6.508   6.959   7.240  0.0646 -0.1074  0.3852
 2760TIP3    H132475   6.583   7.006   7.277  1.2862 -1.5159 -0.2007
 2760TIP3    H232476   6.504   6.990   7.149 -0.6493  0.6257  0.6524
 2761TIP3   OH232477   2.202   4.003   8.594 -0.0900  0.3008  0.0335
 2761TIP3    H132478   2.230   4.020   8.504  1.2815  2.5245  0.8199
 2761TIP3    H232479   2.155   4.082   8.620 -0.8431 -0.4850  1.1645
 2762TIP3   OH232480   4.379   0.176   9.088 -0.0405  0.0019  0.1439
 2762TIP3    H132481   4.292   0.211   9.110 -0.2433  0.1679 -0.8725
 2762TIP3    H232482   4.432   0.254   9.069 -0.1079 -0.1694 -0.7760
 2763TIP3   OH232483   3.217   4.972   8.196 -0.1630  0.0614 -0.1487
 2763TIP3    H132484   3.202   4.941   8.285  0.7785  1.2988  0.4774
 2763TIP3    H232485   3.276   5.046   8.206  1.3188 -0.7827 -1.9355
 2764TIP3   OH232486   4.367   4.892   8.831 -0.4640 -0.2926  0.4336
 2764TIP3    H132487   4.309   4.841   8.774 -0.2439  1.2011 -1.2015
 2764TIP3    H232488   4.309   4.953   8.877 -0.4201 -0.2412  0.4211
 2765TIP3   OH232489   5.794   6.264   7.415 -0.1096 -0.2388 -0.1567
 2765TIP3    H132490   5.750   6.182   7.437  0.1506 -0.4933 -0.5684
 2765TIP3    H232491   5.744   6.332   7.460 -1.1625 -0.4829 -0.9191
 2766TIP3   OH232492   3.658   4.813   7.392 -0.1947  0.7775 -0.2819
 2766TIP3    H132493   3.651   4.755   7.468  0.0780  0.7199 -0.2995
 2766TIP3    H232494   3.670   4.754   7.318  0.4071  0.8632 -0.2601
 2767TIP3   OH232495   3.181   3.093   7.681  0.7391 -0.5962  0.4080
 2767TIP3    H132496   3.108   3.140   7.720  0.3824 -1.4991  0.8574
 2767TIP3    H232497   3.222   3.047   7.754  2.2569  0.5246  0.3101
 2768TIP3   OH232498   5.360   2.201   8.716 -0.1109 -0.0708 -0.2499
 2768TIP3    H132499   5.316   2.269   8.664 -0.5137  0.4508  0.7429
 2768TIP3    H232500   5.339   2.224   8.807 -0.1289 -1.4441  0.1026
 2769TIP3   OH232501   6.341   5.267   9.414 -0.0276 -0.4276  0.1078
 2769TIP3    H132502   6.295   5.264   9.497 -1.4227  2.2108 -0.4550
 2769TIP3    H232503   6.412   5.330   9.429  0.1471 -0.4719 -0.5174
 2770TIP3   OH232504   4.255   7.290   7.002 -0.0705  0.2586  0.2925
 2770TIP3    H132505   4.317   7.361   7.014 -1.1738  1.3541 -0.2817
 2770TIP3    H232506   4.302   7.211   7.030  0.8049  1.3366  1.9628
 2771TIP3   OH232507   3.601   4.992   8.700  0.0957  0.1882  0.6050
 2771TIP3    H132508   3.608   4.996   8.604 -3.5409  1.8648  0.2471
 2771TIP3    H232509   3.573   4.903   8.719  0.2831  0.0089  0.0658
 2772TIP3   OH232510   4.671   6.844   7.313 -0.4778  0.1300 -0.1365
 2772TIP3    H132511   4.732   6.917   7.297  0.4588  0.2477  3.2082
 2772TIP3    H232512   4.596   6.863   7.256 -0.0545  3.4560  0.2035
 2773TIP3   OH232513   5.871   3.487   8.917 -0.3721  0.6443  0.1124
 2773TIP3    H132514   5.889   3.577   8.943 -1.2197  1.0749 -0.7086
 2773TIP3    H232515   5.853   3.493   8.823 -1.1685 -0.2593  0.1929
 2774TIP3   OH232516   4.158   0.785   8.940  0.4152  0.4294 -0.4330
 2774TIP3    H132517   4.064   0.770   8.946  0.3683  1.0620  0.8612
 2774TIP3    H232518   4.176   0.853   9.005  2.0140 -0.9304  0.6691
 2775TIP3   OH232519   2.185   0.986   8.231  0.1830 -0.4472 -0.0920
 2775TIP3    H132520   2.124   0.930   8.183  0.6254  1.8018 -3.6728
 2775TIP3    H232521   2.129   1.046   8.280 -0.4617 -0.3098 -0.9632
 2776TIP3   OH232522   3.372   4.506   7.529  0.3836  0.7066 -0.0558
 2776TIP3    H132523   3.437   4.563   7.570  1.0497 -0.6560  0.8665
 2776TIP3    H232524   3.411   4.482   7.445  0.4610  0.9565 -0.0933
 2777TIP3   OH232525   1.020   2.214   7.557 -0.4084  0.3541  0.5509
 2777TIP3    H132526   0.965   2.240   7.630  0.4184  0.8348  1.0118
 2777TIP3    H232527   1.053   2.128   7.581 -0.9990  0.0231  0.2321
 2778TIP3   OH232528   5.101   6.865   7.891 -0.0800  0.0280 -0.2446
 2778TIP3    H132529   5.156   6.909   7.826 -1.9559  1.1300 -1.1563
 2778TIP3    H232530   5.012   6.889   7.868 -0.9701 -1.5081  1.3340
 2779TIP3   OH232531   4.104   3.929   8.060 -0.2152 -0.2776  0.0317
 2779TIP3    H132532   4.091   3.881   8.142  0.7308 -0.5028  0.0561
 2779TIP3    H232533   4.105   3.862   7.992 -2.0711 -0.0054 -0.3135
 2780TIP3   OH232534   4.424   3.676   8.540  0.4844 -0.2889 -0.3587
 2780TIP3    H132535   4.472   3.754   8.569 -1.2902  0.1552  1.6721
 2780TIP3    H232536   4.474   3.603   8.577  0.5309  0.0579  0.2804
 2781TIP3   OH232537   1.536   6.564   7.963  0.2240 -0.3126 -0.1262
 2781TIP3    H132538   1.453   6.591   7.923  1.3120  0.6047 -1.8415
 2781TIP3    H232539   1.568   6.642   8.007  0.0418 -0.7652  0.8414
 2782TIP3   OH232540   3.124   5.906   8.540  0.1647 -0.3650  0.6333
 2782TIP3    H132541   3.088   5.990   8.569  1.2176  0.4672 -0.4025
 2782TIP3    H232542   3.212   5.902   8.579  1.4268  0.5688 -1.9422
 2783TIP3   OH232543   7.123   3.098   7.253  0.0367 -0.4984  0.1386
 2783TIP3    H132544   7.078   3.038   7.193  0.5666 -0.6913 -0.0648
 2783TIP3    H232545   7.112   3.184   7.212  1.4039 -0.7716 -0.8601
 2784TIP3   OH232546   7.303   4.591   8.913  0.1342 -0.2095 -0.5682
 2784TIP3    H132547   7.341   4.664   8.962  0.2534 -0.0684 -0.8643
 2784TIP3    H232548   7.328   4.513   8.963  0.8603 -0.1200 -0.7788
 2785TIP3   OH232549   0.815   3.025   7.911 -0.0497  0.0410  0.1120
 2785TIP3    H132550   0.813   2.948   7.969  0.8931 -0.6972 -0.7919
 2785TIP3    H232551   0.820   2.989   7.823  2.4306  1.0728 -0.2703
 2786TIP3   OH232552   3.725   7.337   8.582  0.0475  0.2171 -0.0512
 2786TIP3    H132553   3.766   7.388   8.513  0.2383 -2.0244 -1.6943
 2786TIP3    H232554   3.798   7.298   8.630 -0.1066  0.1942  0.1647
 2787TIP3   OH232555   0.687   0.102   7.463 -0.0572  0.1442 -0.3655
 2787TIP3    H132556   0.678   0.009   7.484 -0.9389  0.2032 -0.4461
 2787TIP3    H232557   0.708   0.103   7.370 -0.9293  0.0427 -0.5766
 2788TIP3   OH232558   1.875   2.635   7.765  0.4174  0.3717 -0.0975
 2788TIP3    H132559   1.919   2.677   7.839  0.4580  1.3617 -0.6624
 2788TIP3    H232560   1.882   2.542   7.783  0.0408  0.5968  1.3687
 2789TIP3   OH232561   3.431   2.218   9.192 -0.1054 -0.0925 -0.2766
 2789TIP3    H132562   3.346   2.263   9.195  0.0483  0.2230 -0.4907
 2789TIP3    H232563   3.411   2.131   9.159 -0.2927  0.1242 -0.7476
 2790TIP3   OH232564   7.150   4.735   9.390 -0.2510 -0.8283 -0.3439
 2790TIP3    H132565   7.124   4.710   9.301 -1.0460  0.2853 -0.4503
 2790TIP3    H232566   7.068   4.739   9.439 -0.2000  1.3169 -0.3057
 2791TIP3   OH232567   0.702   2.288   8.321  0.1655  0.0723  0.4352
 2791TIP3    H132568   0.621   2.240   8.340 -0.1085  0.2857 -0.1696
 2791TIP3    H232569   0.702   2.360   8.383  0.9881 -1.1469  1.9161
 2792TIP3   OH232570   2.819   5.456   9.085  0.2572  0.2001 -0.5256
 2792TIP3    H132571   2.787   5.524   9.026  2.9991  3.1252  1.0549
 2792TIP3    H232572   2.855   5.389   9.028 -0.1190  1.3426 -2.1606
 2793TIP3   OH232573   4.518   0.142   9.488  0.0417  0.2482  0.2001
 2793TIP3    H132574   4.509   0.091   9.408 -1.2796 -1.9526  1.6435
 2793TIP3    H232575   4.430   0.175   9.505  0.3343  0.7907  0.6851
 2794TIP3   OH232576   2.484   5.400   9.524 -0.1433  0.0640 -0.1800
 2794TIP3    H132577   2.456   5.399   9.615 -1.3229  1.2724 -0.4943
 2794TIP3    H232578   2.431   5.331   9.482  1.4655 -1.5385  0.2873
 2795TIP3   OH232579   2.862   3.272   8.050 -0.8108  0.1933 -0.2999
 2795TIP3    H132580   2.884   3.359   8.083 -1.0459  0.4345 -0.7801
 2795TIP3    H232581   2.795   3.240   8.110  0.7053 -0.5029  1.1188
 2796TIP3   OH232582   5.396   2.180   8.262  0.3232  0.1166 -0.9895
 2796TIP3    H132583   5.316   2.133   8.236 -0.3098  0.8891 -0.4576
 2796TIP3    H232584   5.374   2.272   8.253 -0.1230  0.4949  2.7061
 2797TIP3   OH232585   1.910   7.600   9.304 -0.4546  0.2055 -0.3829
 2797TIP3    H132586   1.917   7.518   9.255 -0.2448 -0.0155  0.0196
 2797TIP3    H232587   2.000   7.631   9.314 -0.5005  0.2790 -0.1857
 2798TIP3   OH232588   6.241   4.981   7.770 -0.1422 -0.0742 -0.1329
 2798TIP3    H132589   6.203   5.040   7.836  1.1124  1.1081 -0.4303
 2798TIP3    H232590   6.322   4.950   7.810  0.3502  0.2164 -0.9070
 2799TIP3   OH232591   1.556   2.480   8.255  0.2730  0.2721  0.0352
 2799TIP3    H132592   1.500   2.495   8.178  0.9121  0.0732 -0.4796
 2799TIP3    H232593   1.583   2.568   8.282  0.7306  0.3012 -0.4947
 2800TIP3   OH232594   0.339   0.295   7.253 -0.9517  0.5309 -0.2191
 2800TIP3    H132595   0.337   0.230   7.182 -1.5474  0.7370 -0.3957
 2800TIP3    H232596   0.249   0.297   7.286 -0.5577 -0.0508  0.9989
 2801TIP3   OH232597   0.611   4.026   6.502 -0.0945 -0.0777 -0.0517
 2801TIP3    H132598   0.697   4.029   6.460  0.0524  0.0171  0.2501
 2801TIP3    H232599   0.611   4.101   6.562 -0.2524 -0.2756  0.2010
 2802TIP3   OH232600   1.282   4.142   6.340 -0.3547  0.4234 -0.1198
 2802TIP3    H132601   1.358   4.122   6.285  0.9375  1.3216  1.2681
 2802TIP3    H232602   1.242   4.056   6.357  1.6606 -0.3962  0.9065
 2803TIP3   OH232603   5.107   3.647   7.172 -0.2755  0.4018  0.1111
 2803TIP3    H132604   5.131   3.569   7.222  2.1032  1.2898  0.5036
 2803TIP3    H232605   5.011   3.646   7.171 -0.3328 -2.0580  0.7893
 2804TIP3   OH232606   4.490   1.913   9.648  0.2555 -0.3188 -0.1249
 2804TIP3    H132607   4.451   1.927   9.562 -0.3935 -0.0346  0.2037
 2804TIP3    H232608   4.567   1.860   9.631 -0.7724 -1.6818 -0.7097
 2805TIP3   OH232609   1.597   2.758   8.368  0.0964  0.1770  0.0476
 2805TIP3    H132610   1.506   2.770   8.342 -0.3410 -2.4637  0.0953
 2805TIP3    H232611   1.592   2.734   8.461  0.9429  0.8031  0.2717
 2806TIP3   OH232612   6.226   1.224   8.435  0.2900  0.4079 -0.1548
 2806TIP3    H132613   6.188   1.299   8.481 -2.0002  0.6941 -2.3339
 2806TIP3    H232614   6.203   1.238   8.343  2.0058 -1.7230 -0.9929
 2807TIP3   OH232615   6.595   3.261   7.295  0.4290 -0.0243 -0.0660
 2807TIP3    H132616   6.636   3.227   7.374  0.7609  2.0517  0.7237
 2807TIP3    H232617   6.659   3.323   7.260  0.1284 -0.6176 -1.7759
 2808TIP3   OH232618   5.196   7.561   8.749  0.0416 -0.1100  0.8006
 2808TIP3    H132619   5.152   7.523   8.825  0.1317 -0.3702  0.7240
 2808TIP3    H232620   5.219   7.486   8.695 -1.7940  0.1998 -0.4815
 2809TIP3   OH232621   7.493   2.818   8.567  0.0456 -0.1295 -0.3662
 2809TIP3    H132622   7.425   2.822   8.635  0.3989  0.7066 -0.0527
 2809TIP3    H232623   7.510   2.725   8.556  0.0257 -0.2762  0.7373
 2810TIP3   OH232624   7.037   2.386   8.051  0.3094 -0.3041  0.4069
 2810TIP3    H132625   7.005   2.304   8.088 -1.6453  0.9984  1.8507
 2810TIP3    H232626   7.052   2.443   8.126  2.0384  0.5677 -0.5256
 2811TIP3   OH232627   4.496   5.888   7.672  0.6283  0.2730  0.0558
 2811TIP3    H132628   4.421   5.923   7.719 -0.0669  0.5798 -1.2500
 2811TIP3    H232629   4.570   5.901   7.731 -0.3308 -0.0068  1.3501
 2812TIP3   OH232630   0.169   2.952   7.816 -0.0610 -0.2655  0.1568
 2812TIP3    H132631   0.172   2.906   7.732  0.9765  0.1709 -0.0652
 2812TIP3    H232632   0.085   2.928   7.854  0.2235 -1.9549 -0.1867
 2813TIP3   OH232633   4.372   2.315   9.194 -0.2547  0.0896  0.1125
 2813TIP3    H132634   4.381   2.226   9.161 -0.0359  0.0371  0.3126
 2813TIP3    H232635   4.286   2.317   9.236  0.0380 -0.2329  0.7388
 2814TIP3   OH232636   0.935   3.029   8.833 -0.2042 -1.0093  0.1085
 2814TIP3    H132637   0.912   3.044   8.741 -0.7150  3.4705  0.7414
 2814TIP3    H232638   1.031   3.027   8.833 -0.1503  0.5128 -0.3997
 2815TIP3   OH232639   5.866   1.420   7.846  0.1713 -0.0292 -0.0550
 2815TIP3    H132640   5.793   1.481   7.848  1.0249  1.0869 -1.5849
 2815TIP3    H232641   5.931   1.458   7.906  0.2786  0.0195 -0.2005
 2816TIP3   OH232642   5.339   3.341   8.647 -0.0463  0.0665 -0.4227
 2816TIP3    H132643   5.339   3.405   8.717 -1.8682 -0.7398  0.3921
 2816TIP3    H232644   5.247   3.315   8.638  0.7170 -3.6343  0.4766
 2817TIP3   OH232645   0.951   0.701   8.246 -0.5784 -0.1392  0.1614
 2817TIP3    H132646   0.884   0.638   8.219 -0.6442 -0.0663  0.1551
 2817TIP3    H232647   0.951   0.696   8.342  0.3146 -1.0942  0.1396
 2818TIP3   OH232648   7.360   0.610   8.930  0.5947 -0.2194  0.1003
 2818TIP3    H132649   7.319   0.623   8.845  0.4980  0.7425  0.2877
 2818TIP3    H232650   7.452   0.630   8.916  0.4875  0.4604  0.3350
 2819TIP3   OH232651   6.122   6.629   7.937 -0.6128 -0.0197  0.2733
 2819TIP3    H132652   6.129   6.542   7.897 -0.7940 -0.7899  1.8314
 2819TIP3    H232653   6.180   6.684   7.886 -0.6365 -1.0157 -0.8646
 2820TIP3   OH232654   6.635   3.894   9.062 -0.3485  0.4139 -0.8643
 2820TIP3    H132655   6.592   3.976   9.038 -0.7460 -0.0034 -1.5954
 2820TIP3    H232656   6.725   3.919   9.082 -0.7677  1.2138  0.1269
 2821TIP3   OH232657   0.968   3.458   8.850 -0.1791 -0.2944  0.3148
 2821TIP3    H132658   0.887   3.491   8.811  1.1043  1.3573 -1.1271
 2821TIP3    H232659   0.989   3.381   8.798 -0.0754  0.1328 -0.2939
 2822TIP3   OH232660   7.236   5.597   9.160 -0.4698 -0.0467  0.1540
 2822TIP3    H132661   7.216   5.543   9.084  1.1999  0.9719 -1.0715
 2822TIP3    H232662   7.205   5.684   9.136  0.2238  0.3209  0.5608
 2823TIP3   OH232663   0.143   0.307   7.451  0.2480  0.2980  0.0791
 2823TIP3    H132664   0.049   0.296   7.467  0.4396 -1.1324  0.2987
 2823TIP3    H232665   0.185   0.281   7.533  0.8924 -0.2464 -0.4177
 2824TIP3   OH232666   0.589   3.658   7.846 -0.1240  0.0050 -0.0668
 2824TIP3    H132667   0.591   3.697   7.758 -1.3856 -1.8590 -1.0032
 2824TIP3    H232668   0.505   3.683   7.882  0.5758  1.1374  0.8351
 2825TIP3   OH232669   2.631   3.040   8.182  1.0328  0.3773  0.7013
 2825TIP3    H132670   2.662   3.117   8.230  0.9673 -0.1616  1.6205
 2825TIP3    H232671   2.587   2.987   8.248  0.7288 -0.2632 -0.0104
 2826TIP3   OH232672   0.899   1.569   8.051  0.4243  0.1397  0.7640
 2826TIP3    H132673   0.976   1.565   8.108  0.2330 -1.2532  0.9607
 2826TIP3    H232674   0.897   1.484   8.007 -0.9385  0.1922  0.6734
 2827TIP3   OH232675   7.035   0.699   9.436 -0.2390  0.6656 -0.2713
 2827TIP3    H132676   6.987   0.625   9.472  0.4316  0.7495  0.8695
 2827TIP3    H232677   7.009   0.703   9.344 -2.9159  1.1355  0.4292
 2828TIP3   OH232678   7.051   1.573   7.495  0.1933 -0.1744  0.5057
 2828TIP3    H132679   7.107   1.582   7.417  0.9912 -0.2154  1.0646
 2828TIP3    H232680   7.026   1.481   7.496  0.6901 -0.3091  0.6386
 2829TIP3   OH232681   5.228   3.097   7.080 -0.0565 -0.0506 -0.4720
 2829TIP3    H132682   5.221   3.009   7.043 -0.4542 -0.3261  0.2549
 2829TIP3    H232683   5.319   3.104   7.109 -0.7526 -1.4034  2.3395
 2830TIP3   OH232684   4.097   6.901   6.609 -0.5653  0.5773  0.4058
 2830TIP3    H132685   4.170   6.961   6.598 -0.6891  0.8378  0.9991
 2830TIP3    H232686   4.127   6.819   6.569  0.0554  0.6798  0.6507
 2831TIP3   OH232687   6.165   5.936   8.028  0.0593  0.6099 -0.4327
 2831TIP3    H132688   6.080   5.909   8.064  0.7226  0.0111  0.7430
 2831TIP3    H232689   6.217   5.856   8.024  0.9997  1.1692  0.1001
 2832TIP3   OH232690   0.127   2.873   8.493  0.7023 -0.0251  0.1376
 2832TIP3    H132691   0.038   2.903   8.513  0.5878  0.4153 -0.9344
 2832TIP3    H232692   0.146   2.910   8.406  1.6989 -0.6185  0.0805
 2833TIP3   OH232693   5.536   0.813   9.383 -0.2508 -0.3585 -0.2646
 2833TIP3    H132694   5.449   0.854   9.378 -0.7046 -1.1508  0.6675
 2833TIP3    H232695   5.597   0.881   9.354 -1.1006  0.5024 -0.0842
 2834TIP3   OH232696   7.482   4.891   9.615 -0.1591  0.3930 -0.4159
 2834TIP3    H132697   7.430   4.971   9.609  0.7443  0.9614 -0.8965
 2834TIP3    H232698   7.531   4.901   9.697  0.8697  0.9245 -1.0694
 2835TIP3   OH232699   7.301   2.834   8.185 -0.2602 -0.9981 -0.3503
 2835TIP3    H132700   7.214   2.871   8.199  0.3982  0.8239 -0.7155
 2835TIP3    H232701   7.322   2.856   8.094  1.6382  1.1361  0.4910
 2836TIP3   OH232702   0.017   7.169   9.480  0.2927  0.0801  0.1041
 2836TIP3    H132703   0.021   7.238   9.414 -1.0008  0.6602  0.6049
 2836TIP3    H232704  -0.050   7.109   9.447  0.6563 -0.3750  0.1954
 2837TIP3   OH232705   0.603   2.587   6.856 -0.4983  0.1174  0.3197
 2837TIP3    H132706   0.659   2.528   6.905  0.4394  1.9639  1.5758
 2837TIP3    H232707   0.527   2.534   6.832  1.9521 -2.6604 -1.9986
 2838TIP3   OH232708   3.590   1.739   8.038 -0.0501 -0.5241 -0.2173
 2838TIP3    H132709   3.682   1.710   8.037  0.4983  1.1263 -0.7962
 2838TIP3    H232710   3.581   1.785   8.121 -0.6542 -1.4840  0.2722
 2839TIP3   OH232711   2.276   7.364   8.491 -0.2349 -0.3997  0.4181
 2839TIP3    H132712   2.294   7.270   8.489  0.0309 -0.3431 -0.9175
 2839TIP3    H232713   2.181   7.371   8.478 -0.1929 -0.4735  0.0629
 2840TIP3   OH232714   5.811   0.875   8.338  0.0027  0.1005 -0.4195
 2840TIP3    H132715   5.743   0.909   8.396 -0.6029  0.0201 -1.0668
 2840TIP3    H232716   5.892   0.911   8.373 -0.2486 -0.6096  0.9720
 2841TIP3   OH232717   1.795   3.302   7.609  0.1941  0.1604  0.5708
 2841TIP3    H132718   1.764   3.339   7.692 -2.9258 -2.9650  1.0439
 2841TIP3    H232719   1.812   3.210   7.630  0.1035 -0.5181 -2.0790
 2842TIP3   OH232720   1.766   1.700   8.387  0.1607  1.0814  0.3312
 2842TIP3    H132721   1.833   1.765   8.365  1.0342 -0.2537 -1.1969
 2842TIP3    H232722   1.777   1.685   8.480  0.4305  2.5615  0.5678
 2843TIP3   OH232723   6.863   0.705   8.331  0.3381 -0.1393 -0.7769
 2843TIP3    H132724   6.863   0.639   8.262  1.4957 -0.7226 -0.2417
 2843TIP3    H232725   6.956   0.721   8.349  0.0598  0.1778  0.4727
 2844TIP3   OH232726   3.756   0.968   8.176 -0.1516  0.7253 -0.5160
 2844TIP3    H132727   3.798   0.898   8.126  0.1383  0.9683 -0.6165
 2844TIP3    H232728   3.671   0.980   8.133 -0.0803  0.6399 -0.6841
 2845TIP3   OH232729   5.575   2.428   7.527  0.0398  0.2982 -0.5127
 2845TIP3    H132730   5.501   2.454   7.473 -0.7466 -0.9565 -0.0690
 2845TIP3    H232731   5.567   2.481   7.607  0.2848  0.9776 -0.9282
 2846TIP3   OH232732   2.743   4.994   6.792  0.1851 -0.6387 -0.0250
 2846TIP3    H132733   2.769   4.909   6.827 -0.6511 -1.4216 -1.2250
 2846TIP3    H232734   2.745   4.982   6.697 -0.1440  0.6269 -0.2025
 2847TIP3   OH232735   1.649   1.429   9.367 -0.0795  0.1855  0.1460
 2847TIP3    H132736   1.554   1.434   9.358  0.0908  2.0256 -1.0897
 2847TIP3    H232737   1.683   1.443   9.279  1.3500  1.2237  0.8144
 2848TIP3   OH232738   7.378   4.245   8.093 -0.3377  0.3591 -0.0291
 2848TIP3    H132739   7.375   4.339   8.107 -0.5914  0.2776  0.4719
 2848TIP3    H232740   7.391   4.208   8.180  0.6190 -0.0281 -0.3241
 2849TIP3   OH232741   0.850   0.190   7.694  0.5025 -0.5749  0.1796
 2849TIP3    H132742   0.788   0.189   7.621 -0.8545  0.5764  1.2460
 2849TIP3    H232743   0.797   0.215   7.770  2.2715  0.4073  1.1649
 2850TIP3   OH232744   3.754   4.655   8.221 -0.3501  0.6833  0.8462
 2850TIP3    H132745   3.765   4.654   8.126  1.6862  0.5729  1.0416
 2850TIP3    H232746   3.678   4.712   8.236 -0.9859  0.3428 -0.8458
 2851TIP3   OH232747   6.969   5.878   6.645 -0.1977 -0.0952 -0.2573
 2851TIP3    H132748   7.043   5.905   6.590  0.5599 -1.6345 -0.0750
 2851TIP3    H232749   6.970   5.782   6.639 -1.8752 -0.1686  0.1751
 2852TIP3   OH232750   7.085   1.207   7.749 -0.2769  0.4259  0.2167
 2852TIP3    H132751   7.130   1.122   7.746  0.1226  0.6206 -2.6380
 2852TIP3    H232752   7.122   1.255   7.675  0.0679  3.4291  2.2136
 2853TIP3   OH232753   4.277   4.958   7.280 -0.1918  0.0914  0.0162
 2853TIP3    H132754   4.317   5.038   7.247 -0.3598  0.1140 -0.1376
 2853TIP3    H232755   4.201   4.944   7.223 -1.2455  0.8304  1.2117
 2854TIP3   OH232756   2.367   0.047   7.437 -0.6210  0.0332 -0.1480
 2854TIP3    H132757   2.343   0.105   7.365  0.7099  1.7295  0.7009
 2854TIP3    H232758   2.377   0.106   7.513 -0.1704 -1.4492  0.9861
 2855TIP3   OH232759   6.122   4.975   8.212  0.0133 -0.8556  0.1711
 2855TIP3    H132760   6.030   4.995   8.226  0.7262  2.4891  0.9046
 2855TIP3    H232761   6.152   4.941   8.296 -0.1196  0.1343  0.6369
 2856TIP3   OH232762   7.533   4.495   8.785  0.6962  0.2652  0.8230
 2856TIP3    H132763   7.450   4.536   8.810 -1.2148 -3.1089  0.6850
 2856TIP3    H232764   7.545   4.518   8.693 -0.6643  0.0345  0.5675
 2857TIP3   OH232765   1.867   3.011   8.804  0.3142  0.2156  0.1276
 2857TIP3    H132766   1.869   2.965   8.887 -0.4789  0.9271  0.5567
 2857TIP3    H232767   1.869   2.942   8.738  1.2721 -0.3416  0.7224
 2858TIP3   OH232768   0.757   2.465   9.541 -0.1608  0.1749  0.3266
 2858TIP3    H132769   0.723   2.462   9.631 -0.1000  0.8557  0.3770
 2858TIP3    H232770   0.680   2.479   9.487 -0.0578  1.0220  0.3835
 2859TIP3   OH232771   4.970   5.894   9.564  0.4714 -0.0432  0.6665
 2859TIP3    H132772   5.025   5.826   9.602  1.5796 -0.4928 -1.5801
 2859TIP3    H232773   4.912   5.847   9.504  0.2990  0.8419  0.1259
 2860TIP3   OH232774   7.671   4.173   9.277 -0.1615  0.1103 -0.0049
 2860TIP3    H132775   7.686   4.230   9.201 -0.0293 -1.1545 -0.9723
 2860TIP3    H232776   7.721   4.213   9.348  1.3731  0.2666 -1.1119
 2861TIP3   OH232777   1.517   3.387   9.479  0.2049 -0.0673 -0.5744
 2861TIP3    H132778   1.549   3.465   9.525 -1.0601 -0.7885  1.7085
 2861TIP3    H232779   1.435   3.416   9.438 -0.2908 -0.1750  0.3149
 2862TIP3   OH232780   6.071   7.220   7.055 -0.4837  0.4294  0.6005
 2862TIP3    H132781   6.048   7.168   6.979 -0.4513 -0.9023  1.4710
 2862TIP3    H232782   6.166   7.232   7.048  0.1843 -2.8253  2.2337
 2863TIP3   OH232783   6.674   5.496   7.379  0.6806 -0.3614 -0.7363
 2863TIP3    H132784   6.638   5.423   7.330  0.6674 -1.8563  1.3454
 2863TIP3    H232785   6.598   5.544   7.410  0.6953  1.2716 -3.0112
 2864TIP3   OH232786   4.380   7.394   9.493  0.1882 -0.2679 -0.4483
 2864TIP3    H132787   4.354   7.391   9.401  0.0546  0.6028 -0.4426
 2864TIP3    H232788   4.301   7.421   9.539  0.3637 -0.3134 -0.1229
 2865TIP3   OH232789   5.104   3.512   9.138 -0.2371 -0.3066 -0.2228
 2865TIP3    H132790   5.166   3.515   9.211  0.4571  0.5363 -0.8142
 2865TIP3    H232791   5.019   3.530   9.177 -0.4552 -3.3929  0.9157
 2866TIP3   OH232792   1.215   1.931   7.927  0.3306  0.1841 -0.4159
 2866TIP3    H132793   1.172   1.975   8.000  0.2346  2.3981 -1.7217
 2866TIP3    H232794   1.291   1.887   7.966  0.2672  1.2940  1.0158
 2867TIP3   OH232795   0.146   5.298   8.872  0.5968  0.0842  0.2136
 2867TIP3    H132796   0.119   5.223   8.925  0.5174 -0.0681 -0.0365
 2867TIP3    H232797   0.086   5.296   8.797 -0.3917  1.2779  0.9325
 2868TIP3   OH232798   1.795   4.835   8.020  0.1472 -0.1692  0.7680
 2868TIP3    H132799   1.880   4.834   8.063  0.9361 -3.5202 -0.5090
 2868TIP3    H232800   1.761   4.746   8.031 -1.3952 -0.0545 -2.0175
 2869TIP3   OH232801   6.705   0.596   7.606  0.4481  0.4906  0.4336
 2869TIP3    H132802   6.689   0.595   7.512  0.1732 -2.9316  0.3801
 2869TIP3    H232803   6.618   0.595   7.645  0.5514 -0.0025  0.6576
 2870TIP3   OH232804   4.482   5.202   8.788 -0.1358 -0.0567 -0.0494
 2870TIP3    H132805   4.470   5.116   8.828 -0.4061 -0.0292 -0.0688
 2870TIP3    H232806   4.486   5.184   8.694  0.4915 -0.1207 -0.0151
 2871TIP3   OH232807   6.969   2.778   8.038 -0.3155  0.2770 -0.2121
 2871TIP3    H132808   6.879   2.783   8.005 -0.5216  1.2536  0.4635
 2871TIP3    H232809   6.965   2.713   8.108 -0.2899 -0.3533 -0.7802
 2872TIP3   OH232810   1.111   7.197   7.676 -0.4027 -0.1299 -0.3571
 2872TIP3    H132811   1.109   7.291   7.691 -1.2713 -0.2571  0.4351
 2872TIP3    H232812   1.055   7.184   7.599 -2.0647 -0.1754  0.7974
 2873TIP3   OH232813   2.691   6.258   7.417 -0.1400  0.0385 -0.2713
 2873TIP3    H132814   2.676   6.288   7.327 -0.2133  1.4531  0.1835
 2873TIP3    H232815   2.604   6.238   7.451  0.0342 -2.3809 -1.0951
 2874TIP3   OH232816   2.223   0.931   8.556 -0.6194  0.7991 -0.0788
 2874TIP3    H132817   2.163   0.874   8.604 -0.4432  0.5413 -0.1647
 2874TIP3    H232818   2.230   1.010   8.610  0.6395 -0.0289  1.0244
 2875TIP3   OH232819   4.392   7.673   8.856 -0.1362  0.0686 -0.8145
 2875TIP3    H132820   4.486   7.687   8.850 -0.0697  0.2769  0.4761
 2875TIP3    H232821   4.362   7.732   8.925 -1.0322 -0.7508 -0.4610
 2876TIP3   OH232822   5.636   7.534   8.531 -0.1564 -0.1253  0.0713
 2876TIP3    H132823   5.681   7.603   8.482  0.5485  0.0387  0.9246
 2876TIP3    H232824   5.564   7.578   8.576  1.9855  0.7322  2.9770
 2877TIP3   OH232825   0.556   2.810   7.832 -0.0550 -0.0010  0.3833
 2877TIP3    H132826   0.614   2.821   7.756 -1.7384  2.2900 -0.7024
 2877TIP3    H232827   0.491   2.746   7.804  0.2392 -0.3544  0.5013
 2878TIP3   OH232828   7.017   2.051   7.315 -0.2813  0.8089  0.3543
 2878TIP3    H132829   7.025   2.080   7.224  1.8978 -1.4876 -0.2992
 2878TIP3    H232830   6.924   2.032   7.326 -0.8988  2.8420 -0.7563
 2879TIP3   OH232831   5.978   2.783   7.122 -0.4545 -0.9425 -0.8326
 2879TIP3    H132832   5.925   2.814   7.048 -0.7416 -1.4912 -0.8607
 2879TIP3    H232833   5.922   2.793   7.198 -0.4170 -1.0521 -0.7904
 2880TIP3   OH232834   2.250   5.568   6.962  0.2206  0.1495 -0.4054
 2880TIP3    H132835   2.312   5.602   6.898  1.3272  1.4303  1.2602
 2880TIP3    H232836   2.299   5.567   7.044 -1.1948 -1.2792  0.4736
 2881TIP3   OH232837   2.707   0.092   7.644  0.1560 -0.3147  0.3569
 2881TIP3    H132838   2.779   0.093   7.580  0.8933  0.2969  1.1762
 2881TIP3    H232839   2.636   0.138   7.600  0.0889 -1.2940 -0.6311
 2882TIP3   OH232840   5.979   4.022   7.947  0.2054 -0.1643  0.0824
 2882TIP3    H132841   5.912   4.016   8.015  0.2574 -0.0021  0.1468
 2882TIP3    H232842   6.021   4.106   7.961  0.6513 -0.4098  0.2590
 2883TIP3   OH232843   4.291   6.721   8.994 -0.3587  1.0382 -0.4019
 2883TIP3    H132844   4.318   6.776   8.920  0.9772 -1.0572 -1.5561
 2883TIP3    H232845   4.255   6.642   8.953 -1.1035  0.5055  1.2090
 2884TIP3   OH232846   6.511   6.221   9.225  0.0949 -0.3274  0.3910
 2884TIP3    H132847   6.531   6.189   9.137  3.1378 -0.8872  1.1845
 2884TIP3    H232848   6.506   6.316   9.216  1.2323 -0.3208 -0.2491
 2885TIP3   OH232849   5.126   3.739   7.478 -0.2322 -0.7169  0.2195
 2885TIP3    H132850   5.208   3.758   7.523  0.6022  1.1601 -1.8813
 2885TIP3    H232851   5.151   3.679   7.408 -0.9235 -1.2193  0.3971
 2886TIP3   OH232852   1.524   6.978   8.252  0.0277  0.9264  0.2269
 2886TIP3    H132853   1.473   6.928   8.189  1.9465 -0.9181  0.0310
 2886TIP3    H232854   1.559   7.051   8.202 -0.0597  0.5662 -0.3683
 2887TIP3   OH232855   3.455   0.165   8.697  0.3821 -0.2283 -0.2422
 2887TIP3    H132856   3.543   0.174   8.735  0.2063 -0.8370  0.3289
 2887TIP3    H232857   3.463   0.203   8.610  0.3486  2.8905  1.0073
 2888TIP3   OH232858   5.238   5.421   7.471 -0.8468 -0.2176  0.0517
 2888TIP3    H132859   5.319   5.403   7.424 -0.6156 -1.2002  0.7779
 2888TIP3    H232860   5.259   5.493   7.530 -0.3852 -0.6901  0.4776
 2889TIP3   OH232861   5.000   0.140   7.013  0.7573 -0.0339  0.2785
 2889TIP3    H132862   4.978   0.047   7.015  0.4745  0.0134 -0.5048
 2889TIP3    H232863   4.987   0.166   6.922 -1.4433  1.3207  0.9234
 2890TIP3   OH232864   2.754   6.105   8.058  0.1129 -0.3625 -0.5261
 2890TIP3    H132865   2.727   6.081   7.969 -0.1437 -0.6340 -0.3752
 2890TIP3    H232866   2.805   6.185   8.046  0.7820 -0.8362 -1.0183
 2891TIP3   OH232867   3.112   5.792   7.714  0.0134  0.6037  0.1703
 2891TIP3    H132868   3.019   5.796   7.691  0.4840  1.9332 -1.7777
 2891TIP3    H232869   3.154   5.753   7.638  1.2076  1.3189  0.4353
 2892TIP3   OH232870   4.938   6.446   7.524 -0.0183  0.9231 -0.1014
 2892TIP3    H132871   4.933   6.362   7.478  0.2032  0.3434  0.8970
 2892TIP3    H232872   4.878   6.503   7.476 -1.0671 -0.1493 -0.1063
 2893TIP3   OH232873   1.115   0.868   9.031 -0.0702 -0.4801 -0.4819
 2893TIP3    H132874   1.077   0.921   9.101 -1.1170 -1.4568 -0.2782
 2893TIP3    H232875   1.183   0.816   9.074  1.2286  0.9409 -0.7572
 2894TIP3   OH232876   3.394   3.805   7.448 -0.2612 -0.1214  0.6286
 2894TIP3    H132877   3.427   3.804   7.358  2.0322 -1.4869  1.3913
 2894TIP3    H232878   3.316   3.750   7.445 -0.2098 -0.1626 -0.5128
 2895TIP3   OH232879   4.263   2.698   7.821  0.1622  0.4575  0.4094
 2895TIP3    H132880   4.199   2.728   7.886  0.0654 -1.2833  1.1649
 2895TIP3    H232881   4.212   2.688   7.740 -0.1454  0.7061  0.5690
 2896TIP3   OH232882   3.612   2.328   7.496  0.2937  0.3787  0.4139
 2896TIP3    H132883   3.692   2.279   7.478 -0.4325 -1.4040  1.7516
 2896TIP3    H232884   3.642   2.417   7.517  2.0197 -0.4781  1.7976
 2897TIP3   OH232885   5.378   4.144   8.956  0.5164  0.2449  0.7160
 2897TIP3    H132886   5.355   4.237   8.944 -2.0596 -0.2883  0.9108
 2897TIP3    H232887   5.372   4.130   9.050  0.1764 -0.2888  0.6175
 2898TIP3   OH232888   1.393   4.736   7.380  0.6168 -0.6386  0.0615
 2898TIP3    H132889   1.435   4.696   7.304 -0.2406  0.1167 -0.8424
 2898TIP3    H232890   1.465   4.753   7.441  1.2331 -1.8188 -0.3064
 2899TIP3   OH232891   2.691   3.635   8.488 -0.3255  0.1542  0.2959
 2899TIP3    H132892   2.604   3.600   8.467  0.1098 -0.5244 -0.3757
 2899TIP3    H232893   2.696   3.717   8.439 -0.7027  0.3532  0.5828
 2900TIP3   OH232894   6.676   1.882   8.338 -0.2383  0.0772 -0.2947
 2900TIP3    H132895   6.607   1.821   8.368  0.3824  0.3738  1.9382
 2900TIP3    H232896   6.751   1.825   8.320 -0.2082  0.0118  0.0295
 2901TIP3   OH232897   3.137   3.512   9.377 -0.2092 -0.0997  0.0561
 2901TIP3    H132898   3.212   3.557   9.416 -1.3283 -0.3774  2.7367
 2901TIP3    H232899   3.145   3.422   9.406  0.4721 -1.1060 -2.9341
 2902TIP3   OH232900   5.783   2.768   9.048 -1.0269  0.0549  0.6631
 2902TIP3    H132901   5.795   2.774   9.142  0.2830 -0.6931  0.5668
 2902TIP3    H232902   5.723   2.695   9.035 -1.8542  0.6679  0.9320
 2903TIP3   OH232903   5.612   0.972   8.045 -0.1379 -0.0659  0.3036
 2903TIP3    H132904   5.631   0.890   8.090 -1.3995 -0.4450  0.1926
 2903TIP3    H232905   5.636   0.956   7.954  0.7160  0.0882  0.5005
 2904TIP3   OH232906   3.893   4.468   7.437  0.4000 -0.3492  0.1745
 2904TIP3    H132907   3.938   4.548   7.410 -2.0861  1.2394  0.3909
 2904TIP3    H232908   3.825   4.455   7.370 -1.3134 -0.3768  1.8113
 2905TIP3   OH232909   7.154   5.854   9.021  0.0968 -0.3887 -0.1739
 2905TIP3    H132910   7.084   5.813   8.970  0.9386 -0.4731 -1.3053
 2905TIP3    H232911   7.226   5.865   8.959  0.2442  1.9501  0.3374
 2906TIP3   OH232912   4.925   2.578   9.454  0.0270 -0.0064 -0.6587
 2906TIP3    H132913   4.931   2.654   9.396 -0.1658 -0.8044 -1.7665
 2906TIP3    H232914   4.839   2.585   9.495 -0.1224  0.2078 -1.0030
 2907TIP3   OH232915   7.474   6.984   7.279 -0.0359 -0.0544 -0.4497
 2907TIP3    H132916   7.529   6.907   7.274 -0.1313 -0.3380  1.7390
 2907TIP3    H232917   7.525   7.053   7.238 -0.6437 -1.5463 -4.0331
 2908TIP3   OH232918   7.286   3.192   7.865 -0.0974  0.0986  0.0136
 2908TIP3    H132919   7.212   3.146   7.904  1.1004  0.3279  2.7916
 2908TIP3    H232920   7.247   3.269   7.823 -1.4631  0.4289  1.7515
 2909TIP3   OH232921   6.009   3.761   7.879 -0.1122  0.9809 -0.6087
 2909TIP3    H132922   5.993   3.848   7.915  0.0940  1.7590 -2.2742
 2909TIP3    H232923   6.099   3.740   7.905 -0.0498  1.4091 -0.4716
 2910TIP3   OH232924   3.177   1.917   8.195  0.4980 -0.0024  0.1820
 2910TIP3    H132925   3.241   1.858   8.155  0.5332  0.1744 -0.0248
 2910TIP3    H232926   3.227   1.962   8.263  0.3667 -0.5073  0.6216
 2911TIP3   OH232927   3.825   1.734   8.274 -0.3413 -0.4170  0.1811
 2911TIP3    H132928   3.863   1.774   8.196 -0.0297  0.9781  1.0246
 2911TIP3    H232929   3.897   1.683   8.312 -0.5547 -1.2713 -0.5460
 2912TIP3   OH232930   0.269   4.947   9.484 -0.2823  0.4470  0.2264
 2912TIP3    H132931   0.327   4.901   9.543 -0.9435 -0.4808  0.1677
 2912TIP3    H232932   0.224   4.878   9.435 -1.1814  1.1441  0.0352
 2913TIP3   OH232933   3.854   5.886   7.525  0.1255 -0.3115 -0.5935
 2913TIP3    H132934   3.814   5.841   7.451 -1.3153  0.6106 -0.4208
 2913TIP3    H232935   3.886   5.816   7.581  0.0276 -1.0513 -1.4282
 2914TIP3   OH232936   5.091   7.290   8.389  0.2226  0.4833 -0.2419
 2914TIP3    H132937   5.073   7.350   8.317 -0.5391  0.7315  0.1389
 2914TIP3    H232938   5.114   7.207   8.347  0.7848  0.9028 -0.7708
 2915TIP3   OH232939   5.066   1.147   7.400 -0.0483 -0.5017  0.4154
 2915TIP3    H132940   5.076   1.237   7.430  0.7867 -0.5365  0.2933
 2915TIP3    H232941   5.092   1.150   7.307  1.0768 -1.0534  0.6972
 2916TIP3   OH232942   6.907   6.831   8.713 -0.2150  0.2101  0.6779
 2916TIP3    H132943   6.897   6.757   8.773  1.2334  0.4112  1.1889
 2916TIP3    H232944   6.989   6.814   8.666 -1.1374  0.2325 -1.0306
 2917TIP3   OH232945   4.066   0.345   8.489 -0.0752  0.4270  1.0552
 2917TIP3    H132946   4.122   0.327   8.565  0.3505  0.4377  0.7452
 2917TIP3    H232947   4.038   0.259   8.459  0.9268  0.3328  0.3507
 2918TIP3   OH232948   6.225   4.424   7.673  0.0900 -0.3957  0.7444
 2918TIP3    H132949   6.279   4.348   7.695  0.1199 -0.2531  1.1680
 2918TIP3    H232950   6.181   4.447   7.755 -0.5410 -0.4500  0.4271
 2919TIP3   OH232951   3.624   7.317   9.395  0.7595 -0.0894  0.4997
 2919TIP3    H132952   3.577   7.395   9.425 -0.1228  1.9409 -5.0100
 2919TIP3    H232953   3.700   7.352   9.348  1.6831 -2.7274 -0.0977
 2920TIP3   OH232954   0.762   4.965   7.144 -0.5155 -0.3441  0.1047
 2920TIP3    H132955   0.811   4.921   7.214  0.3138  2.8890  1.7526
 2920TIP3    H232956   0.829   5.011   7.094 -1.4626  0.4178 -0.4934
 2921TIP3   OH232957   1.434   4.378   6.584  0.0755 -0.2085 -0.6869
 2921TIP3    H132958   1.519   4.336   6.569  0.2470 -0.8285  1.6199
 2921TIP3    H232959   1.454   4.459   6.630 -0.5492 -0.2318 -0.3514
 2922TIP3   OH232960   5.163   4.528   8.387 -0.2606 -0.3590  0.3882
 2922TIP3    H132961   5.172   4.621   8.369 -0.1094 -0.4797 -0.2039
 2922TIP3    H232962   5.097   4.498   8.325 -0.2865 -0.6478  0.5546
 2923TIP3   OH232963   3.515   5.005   7.563  0.4666  0.5560 -0.6494
 2923TIP3    H132964   3.575   4.954   7.508  0.9222 -1.5460  1.6004
 2923TIP3    H232965   3.547   5.095   7.557  1.3740  0.1602 -2.6063
 2924TIP3   OH232966   2.111   2.889   8.383  0.5953  0.0312  0.2358
 2924TIP3    H132967   2.131   2.946   8.309 -0.0845  0.0033  0.0302
 2924TIP3    H232968   2.018   2.902   8.399  0.4712 -0.8927  0.3008
 2925TIP3   OH232969   2.062   1.171   8.387  0.4274  0.1665 -0.1076
 2925TIP3    H132970   2.124   1.208   8.449  0.6440  0.2716 -0.3855
 2925TIP3    H232971   1.977   1.203   8.416  0.6773  1.5269 -0.7879
 2926TIP3   OH232972   1.536   6.824   7.110  0.2344 -0.3612 -0.2505
 2926TIP3    H132973   1.464   6.873   7.070  0.1441  0.0525  0.3853
 2926TIP3    H232974   1.601   6.815   7.041 -0.6381 -1.1778 -0.9809
 2927TIP3   OH232975   5.436   6.603   8.615  0.6085 -0.2930  0.7504
 2927TIP3    H132976   5.355   6.631   8.656  0.7822  0.7274  0.4432
 2927TIP3    H232977   5.410   6.538   8.550 -0.2115  1.3079 -0.6060
 2928TIP3   OH232978   3.854   6.587   7.131  0.5514 -0.0540  0.4146
 2928TIP3    H132979   3.817   6.675   7.132 -0.4011 -0.3564 -1.9918
 2928TIP3    H232980   3.822   6.548   7.050  1.1986 -2.5341  1.2479
 2929TIP3   OH232981   0.067   6.036   7.192 -0.3284  0.0337 -0.1586
 2929TIP3    H132982   0.004   6.090   7.239 -0.6913  0.0980 -0.7069
 2929TIP3    H232983   0.148   6.043   7.243 -0.8735 -0.4046  0.7949
 2930TIP3   OH232984   0.524   6.671   8.529  0.1671 -0.5347 -0.1973
 2930TIP3    H132985   0.457   6.658   8.463  0.3954  0.4996 -0.6545
 2930TIP3    H232986   0.599   6.619   8.498  0.2269 -0.1623 -0.6935
 2931TIP3   OH232987   6.766   7.592   7.857 -0.4150  0.2441  0.3882
 2931TIP3    H132988   6.749   7.558   7.769 -0.8811  0.5194  0.3652
 2931TIP3    H232989   6.857   7.622   7.854 -0.0122 -0.9580  0.4036
 2932TIP3   OH232990   1.416   0.727   7.539 -0.0094 -0.6578  0.4274
 2932TIP3    H132991   1.382   0.687   7.459  0.0297  0.2033 -0.0252
 2932TIP3    H232992   1.467   0.802   7.509 -1.7210  0.9661  1.3257
 2933TIP3   OH232993   7.090   2.810   9.572 -0.6071 -0.0255 -0.3117
 2933TIP3    H132994   7.051   2.780   9.654 -3.1371  3.1296 -0.1551
 2933TIP3    H232995   7.046   2.758   9.504  1.7326 -2.8852  0.1445
 2934TIP3   OH232996   2.467   0.865   9.513  0.3867 -0.3284 -0.7378
 2934TIP3    H132997   2.545   0.810   9.520  1.0940  0.8639  2.8518
 2934TIP3    H232998   2.395   0.803   9.498  1.5903 -1.8461 -0.4341
 2935TIP3   OH232999   6.572   3.685   7.859 -0.1085  0.0306 -0.5067
 2935TIP3    H133000   6.487   3.691   7.903  0.0435  1.4296 -0.3607
 2935TIP3    H233001   6.634   3.669   7.929 -0.2290 -1.0373 -0.6183
 2936TIP3   OH233002   3.458   0.579   8.203 -0.0892  0.4974 -0.2354
 2936TIP3    H133003   3.382   0.528   8.232  1.3627 -1.7858 -0.2081
 2936TIP3    H233004   3.463   0.562   8.109 -0.3705  1.7710 -0.5029
 2937TIP3   OH233005   3.047   4.341   8.664  0.0130  0.2015  0.3952
 2937TIP3    H133006   3.125   4.343   8.608 -1.4436 -0.5468 -1.8091
 2937TIP3    H233007   2.994   4.415   8.633 -0.7382 -0.1083  0.9229
 2938TIP3   OH233008   1.216   1.873   8.891 -0.0665  0.2478 -0.7041
 2938TIP3    H133009   1.218   1.890   8.797 -1.5110 -0.3200 -0.8667
 2938TIP3    H233010   1.147   1.808   8.902  0.8701 -0.5546  0.6333
 2939TIP3   OH233011   7.164   1.298   7.507 -0.2799  0.6160 -0.0093
 2939TIP3    H133012   7.128   1.285   7.419  0.6146 -1.3658 -0.1391
 2939TIP3    H233013   7.258   1.309   7.493 -0.0501 -0.3114  0.7112
 2940TIP3   OH233014   0.937   2.589   7.125 -0.1043  0.7606 -0.1820
 2940TIP3    H133015   0.949   2.679   7.094  3.2195 -0.3832 -2.9200
 2940TIP3    H233016   1.016   2.570   7.176  0.9898 -1.4779 -2.4740
 2941TIP3   OH233017   2.094   7.640   8.776 -0.1849  0.7652 -0.1884
 2941TIP3    H133018   2.065   7.671   8.861 -1.7205  1.1768 -0.8189
 2941TIP3    H233019   2.182   7.605   8.791  0.9961  3.8457  0.9173
 2942TIP3   OH233020   7.351   5.915   8.833  0.6579  0.3735 -0.2513
 2942TIP3    H133021   7.440   5.923   8.866  0.9581 -0.8876 -0.7312
 2942TIP3    H233022   7.346   5.980   8.763  0.8526  1.1755  0.4531
 2943TIP3   OH233023   5.447   5.736   9.402 -0.3096  0.2394  0.1677
 2943TIP3    H133024   5.480   5.664   9.349  0.4879  0.6562  0.0841
 2943TIP3    H233025   5.390   5.786   9.343 -0.1112  0.2101 -0.0496
 2944TIP3   OH233026   6.182   7.442   8.038  0.4316  0.4791 -0.0528
 2944TIP3    H133027   6.250   7.483   8.091 -0.0656 -1.0408  1.8539
 2944TIP3    H233028   6.126   7.515   8.011  1.0760  1.3797  0.9594
 2945TIP3   OH233029   4.586   3.191   8.157 -0.3331 -0.1346 -0.5556
 2945TIP3    H133030   4.637   3.271   8.143  0.3239 -0.5698 -0.6487
 2945TIP3    H233031   4.528   3.187   8.082 -0.9187  0.6634 -0.1693
 2946TIP3   OH233032   4.155   3.635   8.773 -0.1233  0.5402 -0.1113
 2946TIP3    H133033   4.073   3.681   8.757  0.9795  2.3692 -0.8187
 2946TIP3    H233034   4.207   3.695   8.826  0.8353 -0.4962  0.1671
 2947TIP3   OH233035   5.443   6.705   7.284  0.0012 -0.1950  0.1487
 2947TIP3    H133036   5.383   6.647   7.331  1.0590 -0.4687  1.2343
 2947TIP3    H233037   5.432   6.682   7.192 -1.6534 -0.1186  0.3054
 2948TIP3   OH233038   5.805   0.630   8.926  0.0330  0.4733  0.0063
 2948TIP3    H133039   5.751   0.562   8.886  1.0760  0.1842 -0.9746
 2948TIP3    H233040   5.887   0.586   8.947 -0.3847  0.6672  2.3344
 2949TIP3   OH233041   5.034   3.635   8.143  0.8294 -0.2760  0.1521
 2949TIP3    H133042   5.091   3.713   8.147 -0.3296  0.7195 -1.4093
 2949TIP3    H233043   5.002   3.634   8.053  0.9201 -2.6920  0.0958
 2950TIP3   OH233044   5.781   4.825   9.568  0.1673  0.1839  0.0787
 2950TIP3    H133045   5.800   4.919   9.565 -0.1446  0.2641  0.6175
 2950TIP3    H233046   5.862   4.784   9.537 -0.3106  0.6806 -1.9667
 2951TIP3   OH233047   6.313   1.736   9.069 -0.3395 -0.0179 -0.0421
 2951TIP3    H133048   6.379   1.745   9.138 -1.8188 -3.0237  1.9689
 2951TIP3    H233049   6.353   1.675   9.006 -0.3150 -0.0213 -0.0232
 2952TIP3   OH233050   4.573   5.025   7.178 -0.2971 -0.5549 -0.1175
 2952TIP3    H133051   4.560   5.056   7.267  0.0635 -1.0838  0.1226
 2952TIP3    H233052   4.520   4.945   7.172 -1.4152  0.2209 -0.8044
 2953TIP3   OH233053   1.423   3.258   8.461 -0.4493  0.0312 -0.0792
 2953TIP3    H133054   1.489   3.223   8.402 -1.1227  0.7832 -1.3105
 2953TIP3    H233055   1.468   3.264   8.546 -0.0805 -3.0183  0.0624
 2954TIP3   OH233056   6.704   7.420   8.339  0.0958 -0.1936  0.1737
 2954TIP3    H133057   6.711   7.450   8.429  2.2246  0.7342 -0.2397
 2954TIP3    H233058   6.630   7.469   8.303  0.3565  0.7907  0.9244
 2955TIP3   OH233059   3.851   7.584   8.133 -0.2884 -0.0429 -0.6655
 2955TIP3    H133060   3.852   7.680   8.134  2.1789  0.0363  1.2836
 2955TIP3    H233061   3.821   7.561   8.046 -0.1331  2.5284 -1.4826
 2956TIP3   OH233062   4.298   0.156   7.459 -0.2373  0.5314  0.2522
 2956TIP3    H133063   4.361   0.216   7.418 -1.3031  1.3530 -0.2493
 2956TIP3    H233064   4.217   0.207   7.464 -1.3591 -1.0478 -0.7570
 2957TIP3   OH233065   0.215   4.294   7.595  0.0287 -0.0313 -0.3365
 2957TIP3    H133066   0.293   4.345   7.574  0.2424  0.2216  0.9653
 2957TIP3    H233067   0.159   4.302   7.518  1.0859  0.1631 -1.1078
 2958TIP3   OH233068   7.307   7.088   7.899 -0.5300 -0.7401  0.4471
 2958TIP3    H133069   7.371   7.046   7.958 -0.8539 -2.6410 -0.4951
 2958TIP3    H233070   7.323   7.048   7.814 -0.2424  1.7903 -0.7782
 2959TIP3   OH233071   2.168   7.283   8.164  0.1891  0.8869 -0.5874
 2959TIP3    H133072   2.119   7.328   8.233  2.1197  0.9491  0.8386
 2959TIP3    H233073   2.252   7.330   8.159  0.9744 -0.5246 -1.3677
 2960TIP3   OH233074   7.043   7.565   7.725 -0.2684  0.3632  0.1500
 2960TIP3    H133075   6.979   7.543   7.657  0.6720 -0.3649 -0.5311
 2960TIP3    H233076   7.092   7.640   7.689 -0.8920  1.0807  0.7764
 2961TIP3   OH233077   6.580   1.787   9.174 -0.0148  0.2840 -0.1906
 2961TIP3    H133078   6.555   1.875   9.204  3.5515  1.0157  1.1546
 2961TIP3    H233079   6.592   1.796   9.080 -0.7735  0.9087 -0.2389
 2962TIP3   OH233080   5.367   4.417   8.931 -0.1297 -0.0195  0.4033
 2962TIP3    H133081   5.330   4.461   8.856  1.7855 -0.6249 -0.9751
 2962TIP3    H233082   5.336   4.467   9.007  1.6181  3.5172 -1.0005
 2963TIP3   OH233083   2.362   7.676   8.803  0.3171  0.1760 -0.3484
 2963TIP3    H133084   2.433   7.734   8.775  0.8592  0.3050  1.1655
 2963TIP3    H233085   2.400   7.588   8.797 -0.1669  0.0401 -1.6763
 2964TIP3   OH233086   5.282   5.327   8.627  0.9342  0.2443 -0.3670
 2964TIP3    H133087   5.318   5.238   8.628 -1.2257 -0.6859 -0.3324
 2964TIP3    H233088   5.195   5.318   8.666  1.3680  2.7360  1.4547
 2965TIP3   OH233089   0.379   6.502   9.533 -0.1136  0.1918 -0.0479
 2965TIP3    H133090   0.386   6.408   9.547  0.5110  0.1723 -0.4411
 2965TIP3    H233091   0.462   6.537   9.564 -0.3149  0.6071  0.0281
 2966TIP3   OH233092   3.805   0.899   7.465 -0.0996 -0.2180 -0.1247
 2966TIP3    H133093   3.737   0.963   7.443 -0.2057  0.2946  1.5793
 2966TIP3    H233094   3.836   0.925   7.551  2.3805 -0.3598 -0.8811
 2967TIP3   OH233095   5.565   5.197   7.498 -0.2312  0.0407  0.3231
 2967TIP3    H133096   5.596   5.276   7.452 -0.4524 -0.7710 -1.2816
 2967TIP3    H233097   5.581   5.126   7.436 -1.9779 -0.8913  0.8970
 2968TIP3   OH233098   6.428   6.037   7.837  0.1887  0.0716 -0.2534
 2968TIP3    H133099   6.378   6.085   7.903 -0.5057  0.4651 -1.0410
 2968TIP3    H233100   6.489   6.102   7.801  0.9261 -0.2746  0.3456
 2969TIP3   OH233101   3.989   0.022   9.253  0.5692 -0.0399 -0.0212
 2969TIP3    H133102   3.915  -0.020   9.209 -0.6823  0.3458  1.5899
 2969TIP3    H233103   4.062   0.011   9.193 -0.9324  0.1431 -2.0006
 2970TIP3   OH233104   5.522   6.964   7.745  0.3725  0.1787  0.3810
 2970TIP3    H133105   5.541   6.919   7.828  0.5666  1.1707  0.8836
 2970TIP3    H233106   5.594   7.026   7.734  0.4915 -0.1240 -0.6726
 2971TIP3   OH233107   4.301   1.775   8.808 -0.0414 -0.0677 -0.6745
 2971TIP3    H133108   4.388   1.794   8.774 -0.9231  1.3190 -2.3297
 2971TIP3    H233109   4.274   1.856   8.852  0.6867 -1.5055  2.7281
 2972TIP3   OH233110   7.244   6.891   7.157 -0.0149 -0.0551 -0.3957
 2972TIP3    H133111   7.322   6.930   7.196 -0.1246  0.5054 -0.7307
 2972TIP3    H233112   7.266   6.879   7.065 -0.6331  0.9434 -0.6843
 2973TIP3   OH233113   7.419   7.637   6.824 -0.3109  0.0212 -0.2457
 2973TIP3    H133114   7.329   7.605   6.826 -0.7014  0.8090 -2.4949
 2973TIP3    H233115   7.466   7.570   6.773 -0.0994  0.6356 -0.8694
 2974TIP3   OH233116   5.040   4.207   9.100  0.2725 -0.5734  0.7348
 2974TIP3    H133117   5.082   4.242   9.178  0.7533 -0.9358  0.6465
 2974TIP3    H233118   5.011   4.119   9.125 -0.9566 -0.1271  0.9675
 2975TIP3   OH233119   5.317   0.401   9.535  0.1177  0.5469  0.1090
 2975TIP3    H133120   5.362   0.395   9.450  2.6858  1.8472  1.2496
 2975TIP3    H233121   5.359   0.475   9.578 -2.8328  1.4894  1.5928
 2976TIP3   OH233122   7.234   3.965   9.212  0.4064  0.3834 -0.6905
 2976TIP3    H133123   7.207   3.888   9.162  1.4539  1.3160 -2.8452
 2976TIP3    H233124   7.319   3.942   9.249  0.4961  0.3178 -0.9345
 2977TIP3   OH233125   0.597   6.941   9.227  0.2163 -0.7117  0.4546
 2977TIP3    H133126   0.531   6.995   9.270  1.2021  0.5074  0.4932
 2977TIP3    H233127   0.680   6.985   9.246  0.7373 -0.2570 -2.4266
 2978TIP3   OH233128   2.711   0.508   8.756  0.2948 -0.3115  0.1177
 2978TIP3    H133129   2.671   0.493   8.842 -0.5506  1.1163  0.0098
 2978TIP3    H233130   2.646   0.474   8.694  0.3187 -0.1562  0.0089
 2979TIP3   OH233131   6.810   1.635   7.273  0.6338 -0.0395 -0.3022
 2979TIP3    H133132   6.727   1.591   7.296  0.6009 -0.7862 -1.7480
 2979TIP3    H233133   6.834   1.682   7.353 -1.1581  0.1497  0.1777
 2980TIP3   OH233134   3.668   3.095   7.920  0.0706  0.1990  0.2479
 2980TIP3    H133135   3.597   3.160   7.914 -0.5419 -0.5319 -0.6922
 2980TIP3    H233136   3.629   3.020   7.965  0.7572  0.4321  1.2621
 2981TIP3   OH233137   1.615   1.559   7.456  0.2489 -0.2910 -0.1284
 2981TIP3    H133138   1.534   1.606   7.434  0.5456  0.3768  0.1766
 2981TIP3    H233139   1.670   1.569   7.379  0.2253 -0.3270 -0.1499
 2982TIP3   OH233140   6.652   2.835   9.494  0.0804 -0.9044  0.2730
 2982TIP3    H133141   6.570   2.797   9.462  1.0133 -0.7178 -2.5705
 2982TIP3    H233142   6.664   2.795   9.581 -1.6741 -2.9826 -0.3398
 2983TIP3   OH233143   4.707   7.654   8.766  0.2645  0.3731  0.1743
 2983TIP3    H133144   4.745   7.567   8.752  0.3235  0.4038  0.1420
 2983TIP3    H233145   4.744   7.707   8.696  1.2170  0.7443  0.9334
 2984TIP3   OH233146   6.552   2.569   8.254 -0.3724  0.3571  0.5437
 2984TIP3    H133147   6.502   2.548   8.174 -1.4272 -3.4072  1.9987
 2984TIP3    H233148   6.643   2.573   8.225 -0.6382 -1.7277 -0.7996
 2985TIP3   OH233149   4.384   6.798   9.549 -0.1434  0.0166  0.2473
 2985TIP3    H133150   4.393   6.889   9.574  1.6231 -0.3873  1.1925
 2985TIP3    H233151   4.320   6.799   9.477 -1.0549  1.8261  1.0278
 2986TIP3   OH233152   0.565   2.555   9.367 -0.5341 -0.0455 -0.2516
 2986TIP3    H133153   0.546   2.626   9.305 -2.5580  1.2909  1.7125
 2986TIP3    H233154   0.482   2.507   9.374  0.4547 -1.8619 -0.5858
 2987TIP3   OH233155   1.934   6.860   8.772 -0.1569 -0.8706  0.5583
 2987TIP3    H133156   2.008   6.907   8.810  0.3994  0.3862 -1.8621
 2987TIP3    H233157   1.860   6.920   8.780 -0.2794 -1.0140  0.5265
 2988TIP3   OH233158   2.331   5.263   7.763  0.1162  0.4829 -0.1406
 2988TIP3    H133159   2.265   5.234   7.700  0.3278  1.3515 -0.7726
 2988TIP3    H233160   2.387   5.324   7.714  1.0404  0.2085  0.5446
 2989TIP3   OH233161   2.961   7.576   7.034  0.0917 -0.5243 -0.5100
 2989TIP3    H133162   2.871   7.564   7.065 -0.5851  1.7979 -1.3275
 2989TIP3    H233163   2.954   7.577   6.939  1.0627 -0.8024 -0.5965
 2990TIP3   OH233164   3.755   6.376   7.588  0.4193 -0.0677  0.3695
 2990TIP3    H133165   3.733   6.285   7.573 -0.9420  0.4261 -0.8314
 2990TIP3    H233166   3.729   6.421   7.508  2.0022  1.2421  0.5317
 2991TIP3   OH233167   0.187   7.549   9.521 -0.2667  0.5392  0.5131
 2991TIP3    H133168   0.158   7.576   9.434 -0.1824  0.9270  0.6017
 2991TIP3    H233169   0.199   7.631   9.568  0.5584  0.3718  0.6095
 2992TIP3   OH233170   6.835   3.314   8.601 -0.5394 -0.4217  0.0367
 2992TIP3    H133171   6.893   3.283   8.671 -0.5084  0.8769  0.6291
 2992TIP3    H233172   6.761   3.353   8.648 -0.3619  0.7652 -0.6428
 2993TIP3   OH233173   1.303   0.001   7.262  0.4548 -0.2986  0.6150
 2993TIP3    H133174   1.305   0.088   7.222  1.9007  0.3209  1.8861
 2993TIP3    H233175   1.259  -0.055   7.198  0.7151  1.0785 -0.8283
 2994TIP3   OH233176   5.519   5.613   7.886 -0.4998 -0.5981  0.1715
 2994TIP3    H133177   5.549   5.660   7.964 -0.2301 -0.2036 -0.1643
 2994TIP3    H233178   5.424   5.620   7.888 -0.4740 -0.2763  0.2747
 2995TIP3   OH233179   2.080   3.473   6.739 -0.4753 -0.4061  0.1052
 2995TIP3    H133180   2.141   3.483   6.812 -2.2490  0.9363  1.4931
 2995TIP3    H233181   2.136   3.465   6.662  1.4596 -1.3724  1.5340
 2996TIP3   OH233182   6.900   6.213   6.375  0.7668 -0.1443 -0.4574
 2996TIP3    H133183   6.848   6.289   6.401  2.1043  0.2779  1.2040
 2996TIP3    H233184   6.836   6.141   6.368 -0.3516  0.8669 -0.9320
 2997TIP3   OH233185   7.362   3.711   6.809  0.5111 -0.2762 -0.0980
 2997TIP3    H133186   7.358   3.639   6.872  3.0328  0.4473  1.0058
 2997TIP3    H233187   7.455   3.729   6.798  0.1964 -0.2035 -3.9473
 2998TIP3   OH233188   3.967   6.429   7.987  0.1108  0.4089  0.1298
 2998TIP3    H133189   4.020   6.456   7.911 -0.0793  3.2732  0.9281
 2998TIP3    H233190   4.009   6.472   8.062 -0.1250 -1.7968  1.6216
 2999TIP3   OH233191   3.316   4.173   8.881  0.1265  0.9138  0.0888
 2999TIP3    H133192   3.224   4.166   8.907 -0.0228 -0.4849 -0.7359
 2999TIP3    H233193   3.319   4.250   8.824 -0.8087  0.2506 -0.9025
 3000TIP3   OH233194   5.437   0.052   8.641 -0.2549 -0.1257 -0.6001
 3000TIP3    H133195   5.353   0.011   8.621 -1.0495  1.6793 -1.2828
 3000TIP3    H233196   5.432   0.074   8.734  0.1052 -1.3879 -0.2775
 3001TIP3   OH233197   0.874   3.719   6.669 -0.6641 -0.0908 -0.2000
 3001TIP3    H133198   0.924   3.720   6.587 -0.9447  2.3437 -0.4030
 3001TIP3    H233199   0.866   3.626   6.691  0.8135 -0.7148 -2.0676
 3002TIP3   OH233200   3.931   3.808   9.003 -0.4431  0.0818 -0.8393
 3002TIP3    H133201   3.922   3.724   8.958  0.8887 -0.5420  0.0022
 3002TIP3    H233202   3.990   3.859   8.948  0.3862 -0.3165 -0.3531
 3003TIP3   OH233203   6.323   6.022   7.377  0.3319  0.2661 -0.3767
 3003TIP3    H133204   6.270   5.979   7.444 -0.7740 -0.0635 -1.4309
 3003TIP3    H233205   6.413   5.991   7.394  0.4066  1.4889  1.9614
 3004TIP3   OH233206   4.886   1.290   8.349  0.3512 -0.3137  0.1515
 3004TIP3    H133207   4.887   1.383   8.373 -0.0996 -0.3060  0.1589
 3004TIP3    H233208   4.911   1.245   8.430 -2.4856 -0.3662  1.1407
 3005TIP3   OH233209   7.056   6.215   7.684 -0.0514 -0.0205  0.6054
 3005TIP3    H133210   7.024   6.178   7.766  0.4947 -0.7366  0.5036
 3005TIP3    H233211   6.988   6.278   7.657 -0.6717 -0.4640  1.1202
 3006TIP3   OH233212   5.891   2.275   8.716  0.2647 -0.4139  0.4260
 3006TIP3    H133213   5.800   2.295   8.738  0.3305  1.2931 -0.7064
 3006TIP3    H233214   5.941   2.350   8.748  1.3304 -1.4233  1.2239
 3007TIP3   OH233215   5.240   0.857   8.459 -0.0104 -0.1607 -0.0987
 3007TIP3    H133216   5.228   0.875   8.552 -0.3752  0.4697 -0.2676
 3007TIP3    H233217   5.158   0.816   8.432 -0.1336  0.2030 -0.2779
 3008TIP3   OH233218   6.839   6.801   6.835 -0.5024 -0.1731 -0.2210
 3008TIP3    H133219   6.765   6.861   6.829 -0.6193 -0.3326 -0.3848
 3008TIP3    H233220   6.829   6.757   6.919  0.7887  1.6191  0.9451
 3009TIP3   OH233221   1.362   6.214   9.058  0.0981 -0.3475 -0.0170
 3009TIP3    H133222   1.439   6.227   9.113 -0.0203 -2.7022  0.8238
 3009TIP3    H233223   1.290   6.251   9.109  0.4346  0.3685 -0.0565
 3010TIP3   OH233224   5.366   6.757   7.857  0.2702 -0.1859  0.4829
 3010TIP3    H133225   5.416   6.699   7.914  1.1610  2.1567  2.2795
 3010TIP3    H233226   5.281   6.765   7.901 -0.3949 -1.2368 -0.5615
 3011TIP3   OH233227   4.489   0.194   7.804 -0.5221 -0.2999 -0.0851
 3011TIP3    H133228   4.513   0.105   7.832 -1.2379 -0.2138  0.8825
 3011TIP3    H233229   4.403   0.208   7.843 -0.0451  1.1417  0.5129
 3012TIP3   OH233230   0.778   2.184   9.213  0.0399 -0.3967  0.6454
 3012TIP3    H133231   0.821   2.218   9.292  0.7540 -1.4160  0.7096
 3012TIP3    H233232   0.735   2.260   9.174 -0.3528  0.1261  2.0333
 3013TIP3   OH233233   4.170   6.473   6.893 -0.7053  0.3295  0.6033
 3013TIP3    H133234   4.194   6.554   6.936  0.6200 -0.5316  1.5703
 3013TIP3    H233235   4.204   6.481   6.804 -0.9989  1.0131  0.5525
 3014TIP3   OH233236   1.859   3.927   8.586 -0.5482 -0.9526  0.3590
 3014TIP3    H133237   1.894   3.999   8.638 -0.4641 -0.5065 -0.3072
 3014TIP3    H233238   1.768   3.920   8.613 -0.9298  0.3044 -0.5389
 3015TIP3   OH233239   1.503   4.538   7.194 -0.4340 -0.4436  0.3716
 3015TIP3    H133240   1.576   4.568   7.140 -0.1447 -2.3124 -0.3636
 3015TIP3    H233241   1.437   4.511   7.131 -0.3741 -1.9940  0.9398
 3016TIP3   OH233242   0.128   7.444   8.146 -0.7626  0.3976  0.3003
 3016TIP3    H133243   0.213   7.415   8.181 -0.1306  2.0340  0.1987
 3016TIP3    H233244   0.150   7.493   8.067 -1.7751  1.1449  0.4608
 3017TIP3   OH233245   5.923   6.018   9.345 -0.3510 -0.1612  0.4379
 3017TIP3    H133246   5.840   6.044   9.386 -1.8795 -1.1823 -1.7969
 3017TIP3    H233247   5.935   6.081   9.273  1.1725  0.3480  1.0944
 3018TIP3   OH233248   5.775   1.598   9.156  0.5450 -0.5929  0.6111
 3018TIP3    H133249   5.721   1.603   9.077  0.3357  1.8678  0.8363
 3018TIP3    H233250   5.712   1.585   9.227  0.4344  0.1492  0.6555
 3019TIP3   OH233251   1.774   3.860   7.356  0.0611  0.6979 -0.5122
 3019TIP3    H133252   1.795   3.917   7.429  1.2423  0.7299 -0.8642
 3019TIP3    H233253   1.857   3.844   7.312 -0.8477  2.2703 -3.0211
 3020TIP3   OH233254   5.297   3.142   8.049  0.5143  0.0172  0.0951
 3020TIP3    H133255   5.288   3.094   8.131 -0.9035 -1.3876 -0.8063
 3020TIP3    H233256   5.273   3.232   8.071 -2.5924 -0.8477  0.7705
 3021TIP3   OH233257   6.856   6.803   7.460 -0.3079 -0.2114  0.3784
 3021TIP3    H133258   6.950   6.790   7.471 -0.5530 -1.7317  0.9530
 3021TIP3    H233259   6.832   6.866   7.528  0.4930  1.2822 -0.6662
 3022TIP3   OH233260   3.150   5.207   9.086 -0.4864 -0.2031  0.2240
 3022TIP3    H133261   3.072   5.180   9.135  0.1838 -2.9319 -0.0460
 3022TIP3    H233262   3.223   5.189   9.145  0.0725  0.7805 -0.1398
 3023TIP3   OH233263   4.968   2.614   8.626  0.2131  0.1572 -0.2799
 3023TIP3    H133264   4.929   2.582   8.545 -0.0772  0.8537 -0.4232
 3023TIP3    H233265   4.901   2.599   8.693  0.9254 -1.6162  0.1165
 3024TIP3   OH233266   4.546   7.323   8.977  0.2186  0.2299 -0.3060
 3024TIP3    H133267   4.602   7.357   8.907  1.8921  1.3125  1.4512
 3024TIP3    H233268   4.601   7.259   9.022 -1.0388 -0.8818 -0.2906
 3025TIP3   OH233269   3.149   5.226   7.181 -0.2050  0.2039 -0.3524
 3025TIP3    H133270   3.206   5.294   7.218  0.2325  0.0851 -0.7933
 3025TIP3    H233271   3.099   5.272   7.113  0.5675 -0.0433 -1.1109
 3026TIP3   OH233272   1.116   7.563   9.247 -0.3399  0.6293 -0.1201
 3026TIP3    H133273   1.063   7.622   9.194 -1.7159  0.3467  0.8907
 3026TIP3    H233274   1.099   7.589   9.338  0.0789 -0.4533  0.2935
 3027TIP3   OH233275   5.781   2.684   8.090  0.1295 -0.0274 -0.2756
 3027TIP3    H133276   5.873   2.698   8.113  0.2684  1.7345 -1.7055
 3027TIP3    H233277   5.734   2.751   8.139 -0.2504 -0.0979 -0.5412
 3028TIP3   OH233278   5.981   7.131   6.761 -0.2203  0.0971  0.0597
 3028TIP3    H133279   5.992   7.056   6.703 -0.4980  0.4974 -0.5193
 3028TIP3    H233280   5.891   7.124   6.792 -0.3621  0.3944 -0.2849
 3029TIP3   OH233281   0.341   1.559   7.706  0.1812 -0.1305 -0.5279
 3029TIP3    H133282   0.373   1.617   7.776 -1.3283 -0.0920  0.1621
 3029TIP3    H233283   0.396   1.581   7.630  1.4152  0.2849  0.4552
 3030TIP3   OH233284   7.184   0.058   7.560 -0.3989  0.3475 -0.4928
 3030TIP3    H133285   7.197   0.147   7.593  0.9602  0.8719 -2.2998
 3030TIP3    H233286   7.164   0.069   7.467 -0.0451 -1.2469 -0.7931
 3031TIP3   OH233287   5.785   6.082   8.565 -0.1285 -0.4331 -0.1102
 3031TIP3    H133288   5.769   6.167   8.524 -1.3361  0.0778  1.3488
 3031TIP3    H233289   5.732   6.083   8.645 -1.3540 -3.1448 -0.7884
 3032TIP3   OH233290   5.505   1.046   8.300 -0.3263 -0.1340  0.1765
 3032TIP3    H133291   5.532   1.010   8.215 -1.2265 -0.6078  0.0825
 3032TIP3    H233292   5.566   1.006   8.363  0.9774  0.9710 -0.3324
 3033TIP3   OH233293   1.670   2.131   9.303  0.1244  0.1790 -0.3980
 3033TIP3    H133294   1.700   2.109   9.392  2.7445 -0.6305 -1.3818
 3033TIP3    H233295   1.587   2.084   9.293  0.7595 -1.3377  0.9616
 3034TIP3   OH233296   2.494   2.994   8.951  0.2490  0.5212 -0.3437
 3034TIP3    H133297   2.426   2.934   8.983 -0.4759  1.7951  0.6219
 3034TIP3    H233298   2.445   3.067   8.911  1.0349  1.3448  0.1528
 3035TIP3   OH233299   1.601   1.056   7.982  0.1469  0.4626  0.0608
 3035TIP3    H133300   1.652   1.122   8.029 -0.1969 -0.3159  1.5815
 3035TIP3    H233301   1.537   1.026   8.046 -1.9665  1.0792 -1.6476
 3036TIP3   OH233302   2.097   5.426   9.144  0.5269  0.6704 -0.4490
 3036TIP3    H133303   2.192   5.414   9.140  0.5380  0.9744 -1.3391
 3036TIP3    H233304   2.070   5.431   9.052 -0.6559 -1.6801 -0.2790
 3037TIP3   OH233305   2.535   4.598   8.268 -0.1766  0.2474  0.4184
 3037TIP3    H133306   2.533   4.540   8.345  0.1959  0.9698  0.9905
 3037TIP3    H233307   2.446   4.596   8.234 -0.1794 -0.6381  0.4378
 3038TIP3   OH233308   5.835   0.453   6.986 -0.3972 -0.1614  0.3775
 3038TIP3    H133309   5.930   0.458   6.972 -0.3938 -1.7510 -0.3665
 3038TIP3    H233310   5.798   0.506   6.915 -0.1046 -1.3383 -0.6913
 3039TIP3   OH233311   6.605   6.592   6.907 -0.0164 -0.0412 -0.5018
 3039TIP3    H133312   6.667   6.626   6.972 -0.3663  2.1373 -1.2011
 3039TIP3    H233313   6.536   6.552   6.958  0.4748  0.2465  0.4074
 3040TIP3   OH233314   0.620   4.300   9.140  0.0348 -0.2449  0.2684
 3040TIP3    H133315   0.617   4.241   9.216  2.2613 -1.3815 -0.4111
 3040TIP3    H233316   0.543   4.276   9.088  0.1055 -1.5768  0.7247
 3041TIP3   OH233317   6.915   7.084   8.468  0.1089 -0.2342  0.3203
 3041TIP3    H133318   6.941   7.111   8.556  0.5695  1.1862 -0.2255
 3041TIP3    H233319   6.994   7.043   8.432  0.0174 -0.5293  0.4525
 3042TIP3   OH233320   6.299   5.755   8.931  0.1939  0.0140 -0.0425
 3042TIP3    H133321   6.271   5.835   8.975 -0.4046  0.1479 -0.6514
 3042TIP3    H233322   6.224   5.696   8.939  0.2408 -0.1103 -0.5005
 3043TIP3   OH233323   7.491   0.236   8.597  0.0763  0.0627 -0.6596
 3043TIP3    H133324   7.468   0.270   8.684  1.0812  1.6790 -0.9643
 3043TIP3    H233325   7.422   0.174   8.576  1.0156 -2.1813  2.2632
 3044TIP3   OH233326   2.643   5.046   9.198 -0.5558 -0.5504 -0.3130
 3044TIP3    H133327   2.608   4.958   9.182  1.4126 -1.5218  0.4808
 3044TIP3    H233328   2.638   5.057   9.292 -1.3574  0.4748 -0.4581
 3045TIP3   OH233329   2.555   4.577   8.864  0.1588 -0.0918 -0.3697
 3045TIP3    H133330   2.521   4.646   8.921  0.1677  0.9376 -1.5651
 3045TIP3    H233331   2.480   4.554   8.809  0.1090 -1.1745  0.1343
 3046TIP3   OH233332   0.129   5.251   9.208 -0.0671  0.8690 -0.3222
 3046TIP3    H133333   0.212   5.295   9.225  0.5221  0.2522 -1.5230
 3046TIP3    H233334   0.110   5.202   9.288  1.6106 -0.3721 -0.6457
 3047TIP3   OH233335   0.476   7.077   8.110  0.3223  0.0885 -0.1696
 3047TIP3    H133336   0.542   7.142   8.132 -0.9278  1.2708  0.1695
 3047TIP3    H233337   0.425   7.116   8.039  0.0669 -0.8653 -0.5380
 3048TIP3   OH233338   6.410   6.807   6.990  0.1580 -0.0857  0.4256
 3048TIP3    H133339   6.321   6.799   6.955  1.1122  1.1921 -2.6077
 3048TIP3    H233340   6.431   6.900   6.981  2.6914 -0.7330 -1.5436
 3049TIP3   OH233341   6.173   7.674   7.438 -0.1673 -0.1908 -0.1011
 3049TIP3    H133342   6.269   7.667   7.443 -0.2449 -0.7732  0.9145
 3049TIP3    H233343   6.141   7.591   7.473 -1.0528 -0.9393 -2.5192
 3050TIP3   OH233344   5.788   0.248   7.170 -0.3894 -0.1233 -0.2502
 3050TIP3    H133345   5.695   0.253   7.192 -0.5280 -0.3996 -0.7546
 3050TIP3    H233346   5.804   0.324   7.114 -0.4418 -0.3753 -0.6117
 3051TIP3   OH233347   5.019   4.478   7.251 -0.5746 -0.0951  0.1507
 3051TIP3    H133348   4.939   4.437   7.218 -0.5634  0.0150 -0.0136
 3051TIP3    H233349   5.037   4.432   7.334 -0.0713 -1.0439 -0.4650
 3052TIP3   OH233350   1.247   4.673   8.618  0.0070 -0.0727  0.0055
 3052TIP3    H133351   1.309   4.618   8.570 -0.9306  0.1192 -1.4815
 3052TIP3    H233352   1.199   4.720   8.550 -2.6408 -1.1184  1.0324
 3053TIP3   OH233353   3.757   5.923   8.235  0.4366 -0.5057  0.1504
 3053TIP3    H133354   3.762   5.863   8.310  0.5912 -1.0392 -0.2764
 3053TIP3    H233355   3.687   5.985   8.258  0.6825 -0.4820  0.8594
 3054TIP3   OH233356   2.172   4.593   8.947 -0.0132 -0.2404  0.0948
 3054TIP3    H133357   2.093   4.616   8.897 -0.0935  0.6431  0.6143
 3054TIP3    H233358   2.156   4.504   8.978 -0.7893 -0.0819  0.1625
 3055TIP3   OH233359   0.114   4.181   8.542 -0.2285  0.4678  0.1154
 3055TIP3    H133360   0.063   4.123   8.487 -0.8243  2.1109 -1.1524
 3055TIP3    H233361   0.174   4.225   8.482  1.4383 -0.0512  1.2924
 3056TIP3   OH233362   3.915   7.358   8.996  0.2309 -0.4064  0.3208
 3056TIP3    H133363   3.988   7.301   9.018 -0.3343 -1.1271  0.3753
 3056TIP3    H233364   3.837   7.305   9.015 -0.3173  0.6251  1.0212
 3057TIP3   OH233365   0.064   2.561   8.713  0.2780 -0.3350  0.1566
 3057TIP3    H133366   0.107   2.640   8.746  0.5669  0.3034 -1.6444
 3057TIP3    H233367   0.085   2.493   8.778  2.2757  0.4378  0.3893
 3058TIP3   OH233368   0.093   0.505   8.232  0.3047  0.2358  0.3430
 3058TIP3    H133369   0.014   0.471   8.190  1.2079  0.3514 -1.5503
 3058TIP3    H233370   0.076   0.598   8.244 -0.2130  0.0806  0.8510
 3059TIP3   OH233371   3.717   7.026   8.518  0.0902 -0.3301 -0.9802
 3059TIP3    H133372   3.682   7.087   8.453 -1.0273  0.3975  0.2560
 3059TIP3    H233373   3.792   6.985   8.474  1.4111  2.4914 -1.6085
 3060TIP3   OH233374   3.370   6.730   7.250  0.6192  0.0924 -0.0411
 3060TIP3    H133375   3.420   6.805   7.217  1.2642 -0.0311  0.6269
 3060TIP3    H233376   3.296   6.769   7.296 -0.6559  0.2618 -2.1083
 3061TIP3   OH233377   6.891   0.502   8.702 -0.2824 -1.0795 -0.0886
 3061TIP3    H133378   6.906   0.594   8.721 -0.4527 -1.4054  1.9117
 3061TIP3    H233379   6.851   0.501   8.615 -2.7885  0.9902  0.9064
 3062TIP3   OH233380   0.206   4.563   7.328 -0.1852  0.0755 -0.2512
 3062TIP3    H133381   0.201   4.630   7.395  1.6912 -0.7242  0.7701
 3062TIP3    H233382   0.143   4.496   7.355  0.8288 -0.4244  0.9846
 3063TIP3   OH233383   6.961   6.026   9.565  0.3625  0.0985 -0.6179
 3063TIP3    H133384   7.013   6.045   9.643 -1.5483  0.0366  0.7449
 3063TIP3    H233385   6.877   5.995   9.599  0.1292 -1.8543 -2.7058
 3064TIP3   OH233386   0.382   3.232   7.241  0.3014  0.1515  0.3129
 3064TIP3    H133387   0.473   3.248   7.215  0.9298  0.5151  2.5397
 3064TIP3    H233388   0.330   3.292   7.187  1.5190  0.9870  0.0399
 3065TIP3   OH233389   2.975   1.347   8.108 -0.3973  0.3457  0.2630
 3065TIP3    H133390   2.958   1.335   8.015 -2.5237  2.5555  0.2762
 3065TIP3    H233391   2.909   1.293   8.152 -1.1481  1.3773  0.4298
 3066TIP3   OH233392   2.275   7.571   7.754  0.0463  0.0104 -0.4094
 3066TIP3    H133393   2.339   7.594   7.821 -1.0752  1.2036  0.2978
 3066TIP3    H233394   2.264   7.476   7.762  0.2133  0.0878  0.8249
 3067TIP3   OH233395   6.802   0.265   7.484  0.1501  0.3892 -0.6141
 3067TIP3    H133396   6.811   0.330   7.414 -0.0317  1.5206  0.3822
 3067TIP3    H233397   6.839   0.308   7.561  1.4415 -1.2813 -0.2547
 3068TIP3   OH233398   2.584   4.215   9.796  0.2820 -0.1006  0.0720
 3068TIP3    H133399   2.503   4.170   9.774  1.3540 -2.4198  0.6469
 3068TIP3    H233400   2.626   4.160   9.861  2.8689  0.4348 -1.0167
 3069TIP3   OH233401   1.122   3.669   8.971  0.7377 -0.0976 -0.2681
 3069TIP3    H133402   1.066   3.599   8.938 -0.1863  1.2210 -1.6420
 3069TIP3    H233403   1.209   3.630   8.977  0.2130 -1.3964 -0.8423
 3070TIP3   OH233404   5.539   0.224   8.144 -0.0555 -0.1518 -0.3039
 3070TIP3    H133405   5.488   0.303   8.161  0.0665 -0.1520  0.0736
 3070TIP3    H233406   5.549   0.222   8.049  0.7041  0.7765 -0.2647
 3071TIP3   OH233407   2.032   5.453   8.491  0.4156  0.0979  0.1463
 3071TIP3    H133408   2.020   5.501   8.410 -1.0548  1.4237  1.0733
 3071TIP3    H233409   1.982   5.372   8.479  0.9188 -0.1055 -0.5718
 3072TIP3   OH233410   5.299   1.050   9.315  0.0065 -0.1779 -0.5125
 3072TIP3    H133411   5.319   1.111   9.385  0.0877  0.6230 -1.2218
 3072TIP3    H233412   5.234   1.095   9.261 -1.8360 -1.6948  0.3137
 3073TIP3   OH233413   7.358   3.685   9.393  0.2121  0.0794 -0.2560
 3073TIP3    H133414   7.453   3.696   9.391  0.1434  0.9124  0.1948
 3073TIP3    H233415   7.338   3.671   9.486 -0.2198  1.2913 -0.1396
 3074TIP3   OH233416   0.877   6.384   7.848  0.1609 -0.0552 -0.0148
 3074TIP3    H133417   0.851   6.333   7.925 -1.5180 -1.1207 -1.2251
 3074TIP3    H233418   0.829   6.466   7.857  0.3015 -0.0035  0.2786
 3075TIP3   OH233419   6.343   4.690   6.767 -0.1687  0.4179 -0.4682
 3075TIP3    H133420   6.266   4.634   6.755  0.1958 -0.1314 -0.3138
 3075TIP3    H233421   6.402   4.637   6.821 -0.4573  1.5764  1.0448
 3076TIP3   OH233422   6.792   3.493   8.404  0.1163  0.5138  0.3764
 3076TIP3    H133423   6.706   3.502   8.365  1.3798 -0.0459 -2.8141
 3076TIP3    H233424   6.778   3.436   8.480 -2.0462 -1.2389 -1.2153
 3077TIP3   OH233425   1.037   5.676   7.931 -0.3426 -0.8012 -0.0323
 3077TIP3    H133426   1.092   5.604   7.961  1.4543 -0.2200 -1.6664
 3077TIP3    H233427   1.039   5.739   8.002 -0.8490 -1.7869  0.8776
 3078TIP3   OH233428   0.844   0.536   9.314 -0.2537 -0.2658 -0.7895
 3078TIP3    H133429   0.906   0.480   9.360 -0.1595 -0.4924 -1.1857
 3078TIP3    H233430   0.806   0.591   9.382  0.1827 -0.3125 -0.5046
 3079TIP3   OH233431   4.119   6.479   7.206  0.2878 -0.3035 -0.0877
 3079TIP3    H133432   4.062   6.474   7.129 -0.3222  2.7743  0.0449
 3079TIP3    H233433   4.207   6.465   7.171 -0.2771 -3.4584 -0.5523
 3080TIP3   OH233434   7.029   7.134   8.734  0.4446 -0.3752  0.6860
 3080TIP3    H133435   7.038   7.058   8.791  1.0544 -0.3709  0.6039
 3080TIP3    H233436   7.119   7.159   8.712  0.2291 -0.2620 -0.1210
 3081TIP3   OH233437   5.464   6.204   9.025 -0.0193 -0.0195 -0.3798
 3081TIP3    H133438   5.414   6.172   9.100  0.6053  0.2548  0.1591
 3081TIP3    H233439   5.403   6.261   8.978 -0.4843 -0.3729 -0.2156
 3082TIP3   OH233440   0.429   0.431   9.120  0.4243  0.1390  0.5646
 3082TIP3    H133441   0.388   0.490   9.056 -0.1925  0.7751  1.5250
 3082TIP3    H233442   0.494   0.383   9.069 -0.1851  0.4860 -0.5921
 3083TIP3   OH233443   0.925   0.204   8.519 -0.3044  0.2757 -0.3024
 3083TIP3    H133444   1.012   0.202   8.479 -0.2590  1.0806 -0.2623
 3083TIP3    H233445   0.934   0.265   8.592 -0.4469 -1.0187  0.8127
 3084TIP3   OH233446   5.267   2.901   6.721 -0.0894 -0.1903  0.1393
 3084TIP3    H133447   5.282   2.822   6.773 -0.0802 -1.6281 -1.9002
 3084TIP3    H233448   5.185   2.937   6.754 -0.5520 -1.5584  0.5487
 3085TIP3   OH233449   3.749   3.753   9.213 -0.0353 -0.2023 -0.5144
 3085TIP3    H133450   3.829   3.729   9.166 -0.1054  0.3689 -0.9426
 3085TIP3    H233451   3.751   3.849   9.217  0.2881 -0.2573  1.2331
 3086TIP3   OH233452   2.856   1.245   7.851 -0.2609 -0.2671  0.1726
 3086TIP3    H133453   2.932   1.210   7.804  0.8880  0.8882  1.0980
 3086TIP3    H233454   2.785   1.184   7.831 -0.0995  0.5716 -3.7501
 3087TIP3   OH233455   1.115   3.128   9.181 -0.1255  0.1103  0.3559
 3087TIP3    H133456   1.143   3.125   9.089  0.5363 -0.0587  0.5569
 3087TIP3    H233457   1.114   3.036   9.209 -0.4495  0.1514  0.4865
 3088TIP3   OH233458   5.452   4.628   7.216 -0.2667 -0.1112 -0.0769
 3088TIP3    H133459   5.521   4.597   7.274 -0.3686 -0.4808 -0.1536
 3088TIP3    H233460   5.436   4.556   7.156 -0.9498 -0.1584  0.1486
 3089TIP3   OH233461   1.524   5.309   6.879  0.0296  0.2317 -0.8756
 3089TIP3    H133462   1.602   5.361   6.898  1.0122 -0.8258 -1.8709
 3089TIP3    H233463   1.461   5.372   6.843  0.9223  0.8814 -1.3352
 3090TIP3   OH233464   2.003   6.413   7.529 -0.4116  0.3104  0.1053
 3090TIP3    H133465   1.970   6.497   7.561 -0.4555  0.2645  0.1822
 3090TIP3    H233466   2.040   6.433   7.443  0.9859  0.7208  0.7660
 3091TIP3   OH233467   2.022   0.738   8.622  0.2280 -0.0217 -0.0532
 3091TIP3    H133468   1.938   0.708   8.658 -1.1558  1.5327 -1.7648
 3091TIP3    H233469   2.033   0.687   8.541  0.3646  0.5484 -0.4017
 3092TIP3   OH233470   0.294   2.696   9.293 -0.4269  0.1596  0.6828
 3092TIP3    H133471   0.332   2.782   9.313 -0.2900  0.9101 -2.3624
 3092TIP3    H233472   0.203   2.714   9.272 -0.7045 -0.6483  1.1359
 3093TIP3   OH233473   0.757   6.791   9.796 -0.0191  0.5298  0.1851
 3093TIP3    H133474   0.776   6.848   9.870 -0.7903 -1.8341  2.3485
 3093TIP3    H233475   0.676   6.827   9.758  0.1789  1.5698  0.7193
 3094TIP3   OH233476   4.552   4.100   7.841  0.3391 -0.2492 -0.2855
 3094TIP3    H133477   4.524   4.009   7.849  0.6486 -0.4524 -1.4008
 3094TIP3    H233478   4.526   4.140   7.924  0.0663 -1.3109  0.1593
 3095TIP3   OH233479   7.493   1.259   9.103  0.2854 -0.3544 -0.2428
 3095TIP3    H133480   7.522   1.217   9.022  2.1027  1.6686 -0.7551
 3095TIP3    H233481   7.536   1.210   9.173  0.7987 -0.5442 -0.6873
 3096TIP3   OH233482   6.594   0.209   7.309 -0.7397  0.1706  0.5130
 3096TIP3    H133483   6.646   0.232   7.386  0.5114 -0.0858 -0.2236
 3096TIP3    H233484   6.654   0.222   7.236 -1.6625 -0.3594 -0.3501
 3097TIP3   OH233485   6.093   0.008   8.762 -0.1380 -0.2145  0.2751
 3097TIP3    H133486   6.105  -0.009   8.855 -0.3308  0.7409  0.4921
 3097TIP3    H233487   6.024  -0.052   8.735  0.9646 -1.5651  0.3848
 3098TIP3   OH233488   5.455   6.246   9.768 -0.4846 -0.0075 -0.1463
 3098TIP3    H133489   5.476   6.258   9.676 -0.4054 -1.0535 -0.2768
 3098TIP3    H233490   5.363   6.269   9.775 -1.0165 -1.7016 -0.8838
 3099TIP3   OH233491   6.717   0.706   6.880 -0.1614  0.2105 -0.0545
 3099TIP3    H133492   6.723   0.782   6.822 -0.7795  0.0328 -0.3547
 3099TIP3    H233493   6.785   0.646   6.848 -0.4842  0.1213 -0.5792
 3100TIP3   OH233494   3.377   3.375   7.381 -0.3852 -0.6054 -0.2951
 3100TIP3    H133495   3.375   3.339   7.470 -1.8857 -0.1174 -0.1175
 3100TIP3    H233496   3.286   3.394   7.360  0.0836  0.5101 -1.4503
 3101TIP3   OH233497   5.790   5.452   7.769  0.1585 -0.4460  0.0721
 3101TIP3    H133498   5.801   5.541   7.736  1.4027 -0.8047 -0.5264
 3101TIP3    H233499   5.862   5.402   7.730 -0.5341 -1.7302  0.3657
 3102TIP3   OH233500   7.656   5.684   9.644 -0.5799 -0.1548 -0.4404
 3102TIP3    H133501   7.569   5.687   9.684 -0.5786  1.6396 -0.4923
 3102TIP3    H233502   7.648   5.621   9.572 -1.8616  0.0769 -0.5091
 3103TIP3   OH233503   1.486   0.800   9.042 -0.0279  0.1676  0.3897
 3103TIP3    H133504   1.441   0.773   9.122  1.3364  0.1442  1.1816
 3103TIP3    H233505   1.576   0.814   9.070 -0.0568  2.7754 -0.5659
 3104TIP3   OH233506   1.375   1.438   9.239  0.2403  0.0589 -0.4055
 3104TIP3    H133507   1.323   1.371   9.282  0.3760  0.0306 -0.2847
 3104TIP3    H233508   1.400   1.400   9.155 -2.2907  1.0918 -1.7426
 3105TIP3   OH233509   3.529   0.388   7.994 -0.2366 -0.0456 -0.1828
 3105TIP3    H133510   3.608   0.416   7.947 -0.5555 -0.0694 -0.7451
 3105TIP3    H233511   3.520   0.295   7.972 -0.5168 -0.0004 -0.2628
 3106TIP3   OH233512   2.278   6.004   9.552 -0.1766  0.0542 -0.1064
 3106TIP3    H133513   2.362   6.011   9.599  0.5419 -1.2590 -1.1258
 3106TIP3    H233514   2.249   5.915   9.570 -1.9195  0.8101  1.0783
 3107TIP3   OH233515   0.881   6.479   8.846 -0.0629  0.1013  0.7638
 3107TIP3    H133516   0.803   6.533   8.856 -2.4716 -2.7816 -0.9461
 3107TIP3    H233517   0.890   6.434   8.930  0.2257  0.9530  1.2004
 3108TIP3   OH233518   4.972   3.278   7.347  0.2052 -0.3012  0.4849
 3108TIP3    H133519   5.035   3.250   7.413  0.3591 -1.3640 -0.0803
 3108TIP3    H233520   4.948   3.197   7.302  0.0025  0.3802 -0.6632
 3109TIP3   OH233521   1.234   0.636   9.270  0.1518  0.1301 -0.0130
 3109TIP3    H133522   1.232   0.595   9.357  0.1657  0.9820  0.3979
 3109TIP3    H233523   1.283   0.717   9.283  1.3669 -0.3966 -1.1131
 3110TIP3   OH233524   6.418   0.343   9.024 -0.3144 -0.1140  0.6811
 3110TIP3    H133525   6.496   0.303   9.062  0.0523 -0.2583 -0.2103
 3110TIP3    H233526   6.426   0.327   8.930 -1.1172  0.3960  0.5185
 3111TIP3   OH233527   1.273   1.176   8.101 -0.1997  0.1203  0.4211
 3111TIP3    H133528   1.224   1.227   8.166 -0.8584 -0.4550  0.3895
 3111TIP3    H233529   1.318   1.109   8.153  2.9376  2.3476  0.8247
 3112TIP3   OH233530   4.605   2.564   8.425  0.3344  0.8537 -0.8344
 3112TIP3    H133531   4.612   2.659   8.431  1.4780  0.7529 -0.3401
 3112TIP3    H233532   4.566   2.537   8.508  0.0134  0.8847 -0.9735
 3113TIP3   OH233533   6.848   6.672   7.079 -0.0997 -0.1165  0.0663
 3113TIP3    H133534   6.882   6.722   7.153 -0.4969 -0.1142  0.2471
 3113TIP3    H233535   6.898   6.590   7.081  0.0670 -0.0124  0.1849
 3114TIP3   OH233536   6.888   4.735   8.290  0.2532  0.5584 -0.2356
 3114TIP3    H133537   6.855   4.699   8.209 -2.5023  0.0157  1.0307
 3114TIP3    H233538   6.864   4.828   8.287 -0.8462  0.3061  0.4005
 3115TIP3   OH233539   4.909   5.850   6.923 -0.0257  0.1422  0.1179
 3115TIP3    H133540   4.817   5.842   6.899 -0.0003 -3.3310  0.5882
 3115TIP3    H233541   4.916   5.936   6.963 -2.8413  0.8828 -0.7257
 3116TIP3   OH233542   5.101   7.230   9.229  0.6621 -0.6808  1.1023
 3116TIP3    H133543   5.026   7.276   9.191  0.9162  0.0488  1.4773
 3116TIP3    H233544   5.117   7.274   9.312  3.2066  1.0000 -0.1460
 3117TIP3   OH233545   3.895   6.188   9.411  0.1767  0.2885  0.0446
 3117TIP3    H133546   3.939   6.106   9.388 -0.5817 -0.5057  1.2693
 3117TIP3    H233547   3.824   6.196   9.347  1.2848  0.9326 -1.1631
 3118TIP3   OH233548   4.573   4.106   9.043  0.1800 -0.2944 -0.1188
 3118TIP3    H133549   4.547   4.051   9.117 -0.6541  2.2401  1.6267
 3118TIP3    H233550   4.532   4.066   8.967 -1.2709 -1.4834  1.2283
 3119TIP3   OH233551   2.427   0.660   8.625 -0.9843  0.2905  0.1351
 3119TIP3    H133552   2.379   0.585   8.660 -1.5286  0.7823  0.4612
 3119TIP3    H233553   2.362   0.709   8.576 -0.3875 -0.0060 -0.9975
 3120TIP3   OH233554   3.112   0.160   9.372  0.5369 -0.2363  0.5999
 3120TIP3    H133555   3.203   0.133   9.380  0.9508  0.5077 -1.0726
 3120TIP3    H233556   3.084   0.124   9.287 -0.5726 -0.0335  0.8590
 3121TIP3   OH233557   3.287   5.087   8.821 -0.0366  0.0007 -0.7206
 3121TIP3    H133558   3.215   5.050   8.770  0.0808 -0.7360 -0.3616
 3121TIP3    H233559   3.336   5.140   8.758 -0.0106 -0.7266 -1.3202
 3122TIP3   OH233560   5.999   5.715   8.219 -0.3286  0.1312 -0.0662
 3122TIP3    H133561   6.016   5.677   8.306 -1.9867 -1.4625 -0.3827
 3122TIP3    H233562   6.064   5.675   8.162  0.1955  0.5076  0.2566
 3123TIP3   OH233563   6.933   5.579   9.637  0.0175 -0.2110 -0.3729
 3123TIP3    H133564   7.004   5.639   9.617  0.6102 -0.4492  0.8880
 3123TIP3    H233565   6.973   5.492   9.631 -0.4863 -0.4134 -0.8679
 3124TIP3   OH233566   5.096   1.191   7.120 -0.2458 -0.2970  0.5594
 3124TIP3    H133567   5.117   1.097   7.117  0.2255 -0.1722 -0.3353
 3124TIP3    H233568   5.111   1.222   7.030  0.4775  0.8174  1.0411
 3125TIP3   OH233569   2.188   6.572   8.976  0.3696 -0.0000  0.1164
 3125TIP3    H133570   2.204   6.615   8.892 -0.2623 -0.3451 -0.1870
 3125TIP3    H233571   2.253   6.610   9.035 -0.1845  1.4022 -0.1282
 3126TIP3   OH233572   3.630   4.209   7.831  0.0028 -0.5223 -0.5967
 3126TIP3    H133573   3.607   4.126   7.873 -0.9073  0.4816  0.9686
 3126TIP3    H233574   3.724   4.218   7.846  0.3497 -1.8020 -1.8107
 3127TIP3   OH233575   3.859   4.066   6.940  0.0679  0.4859  0.5290
 3127TIP3    H133576   3.804   3.992   6.917  0.7737 -0.3627  1.4978
 3127TIP3    H233577   3.818   4.141   6.897 -0.2701 -0.5616 -1.0379
 3128TIP3   OH233578   5.420   4.641   8.462  0.5515  0.5016 -0.2112
 3128TIP3    H133579   5.511   4.624   8.438  0.3618  0.5191 -0.9617
 3128TIP3    H233580   5.372   4.639   8.379 -0.4967 -1.6856  0.3799
 3129TIP3   OH233581   6.213   7.022   7.867 -0.0690  0.4258  0.2588
 3129TIP3    H133582   6.264   7.094   7.828  0.3846 -0.0769 -0.0923
 3129TIP3    H233583   6.134   7.064   7.899 -0.0093  1.0166 -0.3414
 3130TIP3   OH233584   5.491   3.072   8.394 -0.7971 -0.6630  0.0483
 3130TIP3    H133585   5.490   3.167   8.407 -1.0265 -0.5492 -0.7620
 3130TIP3    H233586   5.416   3.040   8.444 -1.9684 -0.1751 -1.3226
 3131TIP3   OH233587   0.016   3.745   9.044  0.8178  0.4643 -0.5054
 3131TIP3    H133588   0.015   3.705   8.957 -1.8411  1.6277 -1.1259
 3131TIP3    H233589  -0.055   3.701   9.092  0.0633  2.0575 -0.0791
 3132TIP3   OH233590   2.050   4.405   7.199 -0.2793 -0.1624  0.0614
 3132TIP3    H133591   2.025   4.314   7.181  1.7021 -0.4350 -1.6712
 3132TIP3    H233592   2.097   4.433   7.120 -0.0934  2.0969  0.9111
 3133TIP3   OH233593   2.808   7.536   7.277  0.1242 -0.1164  0.5416
 3133TIP3    H133594   2.724   7.582   7.272  0.1703 -0.1465 -1.3609
 3133TIP3    H233595   2.855   7.579   7.348 -0.7065  1.2896  0.2833
 3134TIP3   OH233596   0.142   0.783   8.288 -0.7503 -0.3666 -0.0268
 3134TIP3    H133597   0.228   0.759   8.252 -1.1508 -0.7539 -0.7550
 3134TIP3    H233598   0.152   0.775   8.382  0.5010  1.1916  0.0135
 3135TIP3   OH233599   5.752   6.443   6.730 -0.1329  0.0118  0.0826
 3135TIP3    H133600   5.692   6.470   6.800  0.2752 -1.2839  0.9586
 3135TIP3    H233601   5.821   6.510   6.731 -0.6982  0.6082  0.1597
 3136TIP3   OH233602   0.641   3.902   9.152 -0.0982 -0.1277  0.3106
 3136TIP3    H133603   0.671   3.817   9.186  0.6081 -0.2222 -0.5135
 3136TIP3    H233604   0.717   3.937   9.106 -0.7837  0.3583 -0.4810
 3137TIP3   OH233605   3.690   1.848   7.702 -0.3365 -0.1981  0.3275
 3137TIP3    H133606   3.721   1.807   7.783  0.5604  0.3025  0.2520
 3137TIP3    H233607   3.597   1.824   7.698  0.1300 -2.2187  0.2761
 3138TIP3   OH233608   0.249   6.312   8.535  0.7286  0.0265 -0.5633
 3138TIP3    H133609   0.277   6.339   8.448  1.5738 -1.9182 -0.9500
 3138TIP3    H233610   0.324   6.330   8.592 -0.7231  3.8818  0.4562
 3139TIP3   OH233611   4.508   3.014   8.711 -0.7357  0.0304 -0.0266
 3139TIP3    H133612   4.422   3.057   8.709 -0.8591 -0.2214 -0.3150
 3139TIP3    H233613   4.495   2.934   8.660  0.3390  1.2525 -2.3641
 3140TIP3   OH233614   2.987   6.868   7.026 -0.2314 -0.1567 -0.0411
 3140TIP3    H133615   3.023   6.935   7.083 -3.1950  0.0482  1.7817
 3140TIP3    H233616   2.893   6.886   7.024 -0.4987 -1.1823 -3.7202
 3141TIP3   OH233617   2.416   1.994   8.206  0.0641 -0.2196  0.6097
 3141TIP3    H133618   2.441   2.080   8.172  1.0842 -0.4246  0.8119
 3141TIP3    H233619   2.402   1.940   8.129 -2.0837  0.4975  0.4210
 3142TIP3   OH233620   2.706   2.023   9.236  0.4648 -0.3528  0.4143
 3142TIP3    H133621   2.797   2.022   9.265  0.4346  1.2881  0.6674
 3142TIP3    H233622   2.664   2.091   9.289 -1.3063 -2.0808  1.3694
 3143TIP3   OH233623   2.431   4.835   7.799  0.2469 -0.1314  0.2507
 3143TIP3    H133624   2.383   4.887   7.863  0.3355  0.5965 -0.2726
 3143TIP3    H233625   2.422   4.745   7.831  0.2131  0.2067  1.2333
 3144TIP3   OH233626   2.609   0.933   7.765  0.0289 -0.5379 -0.3749
 3144TIP3    H133627   2.665   0.910   7.839  2.7172 -0.7692 -2.3440
 3144TIP3    H233628   2.608   0.855   7.710 -0.3531  0.2450 -1.5184
 3145TIP3   OH233629   0.585   0.137   9.274 -0.2883 -0.2899 -0.0677
 3145TIP3    H133630   0.495   0.165   9.293  0.7426  2.5031  1.1081
 3145TIP3    H233631   0.599   0.163   9.183 -0.8818 -1.4693 -0.5201
 3146TIP3   OH233632   3.981   4.888   8.119  0.1059  0.6391  0.2394
 3146TIP3    H133633   3.952   4.798   8.134  2.2576 -0.1140  0.2743
 3146TIP3    H233634   3.969   4.932   8.203  0.8452 -0.1645  0.7729
 3147TIP3   OH233635   6.598   4.932   8.379 -0.3111  0.4114 -0.2574
 3147TIP3    H133636   6.565   4.893   8.298 -1.0988 -1.1946  0.8135
 3147TIP3    H233637   6.576   5.025   8.370 -1.5797  0.0468 -1.3075
 3148TIP3   OH233638   0.909   3.421   9.439  0.1450 -0.4059 -0.3419
 3148TIP3    H133639   0.861   3.347   9.402  1.9375 -2.0787  0.4616
 3148TIP3    H233640   0.933   3.474   9.363  0.7572 -1.8989 -1.2459
 3149TIP3   OH233641   6.102   5.127   7.977 -0.0418  0.1135 -0.1299
 3149TIP3    H133642   6.115   5.067   8.051  0.4573 -0.2184 -0.4849
 3149TIP3    H233643   6.116   5.214   8.014  0.3960 -0.0636  0.1300
 3150TIP3   OH233644   5.515   3.181   7.895 -0.2766  0.1640  0.1743
 3150TIP3    H133645   5.453   3.181   7.969  0.3395  0.1440  0.7011
 3150TIP3    H233646   5.548   3.092   7.891  2.1608  0.8794  2.0163
 3151TIP3   OH233647   3.830   3.104   8.133  0.0911 -0.1408  0.3076
 3151TIP3    H133648   3.791   3.061   8.056 -0.3628 -0.8247  0.9085
 3151TIP3    H233649   3.774   3.078   8.206  0.0616  1.1473  0.7636
 3152TIP3   OH233650   1.868   4.841   8.587  0.0120 -0.2185  0.2470
 3152TIP3    H133651   1.792   4.844   8.645  0.0857 -0.9460  0.3900
 3152TIP3    H233652   1.934   4.793   8.636  1.0554  1.5805  0.6590
 3153TIP3   OH233653   3.673   1.698   9.301  0.2389 -0.6336 -0.2011
 3153TIP3    H133654   3.644   1.677   9.212  1.0243 -2.4784 -0.0615
 3153TIP3    H233655   3.595   1.684   9.355 -0.4906  1.3559 -0.6555
 3154TIP3   OH233656   0.666   7.564   7.932 -0.3740  0.1348  0.0492
 3154TIP3    H133657   0.715   7.525   7.859  0.6994 -2.2753  1.8911
 3154TIP3    H233658   0.734   7.596   7.992 -1.0530 -1.0315  1.5166
 3155TIP3   OH233659   0.891   0.103   9.003  0.0514  0.1368 -0.1574
 3155TIP3    H133660   0.870   0.103   8.909  1.0667 -0.2192 -0.3900
 3155TIP3    H233661   0.931   0.189   9.018 -0.9401  0.5625  0.1577
 3156TIP3   OH233662   3.821   0.518   9.406  0.0020 -0.0113 -0.4695
 3156TIP3    H133663   3.779   0.455   9.348 -0.6207 -1.2660  1.2723
 3156TIP3    H233664   3.749   0.568   9.444  0.4537  1.3742 -1.3468
 3157TIP3   OH233665   6.334   6.571   7.423 -0.4460  0.4877 -0.1251
 3157TIP3    H133666   6.379   6.495   7.388 -1.6583 -1.0839  1.5303
 3157TIP3    H233667   6.401   6.640   7.426  0.2647  0.0404 -3.1565
 3158TIP3   OH233668   6.978   4.507   7.672 -0.0395  0.6762  0.6693
 3158TIP3    H133669   6.915   4.578   7.663  1.2296  1.7965  0.3237
 3158TIP3    H233670   7.050   4.530   7.614  1.1415 -0.0585  1.7677
 3159TIP3   OH233671   4.682   7.610   8.125 -0.0076  0.3816  0.2448
 3159TIP3    H133672   4.766   7.654   8.113  1.1384 -1.3880  1.3349
 3159TIP3    H233673   4.640   7.615   8.040  2.0445 -0.3550 -0.8831
 3160TIP3   OH233674   1.554   0.694   7.928 -0.4299 -0.4246  0.1075
 3160TIP3    H133675   1.598   0.638   7.865 -0.5278 -0.2580 -0.1084
 3160TIP3    H233676   1.583   0.661   8.013 -2.6537 -2.6292  0.1033
 3161TIP3   OH233677   4.880   6.390   8.549  0.4613  0.1363  0.4228
 3161TIP3    H133678   4.868   6.478   8.512  1.5824  0.2286  0.2295
 3161TIP3    H233679   4.814   6.336   8.504 -1.3708  1.1637  1.7298
 3162TIP3   OH233680   4.110   5.739   8.719 -0.4030 -0.0855 -0.1519
 3162TIP3    H133681   4.074   5.657   8.752 -1.9420 -0.0345 -1.5506
 3162TIP3    H233682   4.037   5.780   8.672  0.4792  1.8343  0.0589
 3163TIP3   OH233683   1.098   6.790   9.110 -0.2955 -0.1718  0.5585
 3163TIP3    H133684   1.081   6.725   9.042 -2.3415  2.2233 -1.4536
 3163TIP3    H233685   1.036   6.770   9.180  1.2313 -2.1318  1.4495
 3164TIP3   OH233686   4.151   4.654   8.725  0.2149 -0.5163  0.6299
 3164TIP3    H133687   4.169   4.612   8.641 -1.3291 -1.1222  0.5650
 3164TIP3    H233688   4.202   4.604   8.788  2.4893  0.7856 -0.0516
 3165TIP3   OH233689   5.293   5.932   7.109  0.9048 -0.2205  0.4598
 3165TIP3    H133690   5.284   6.027   7.113 -0.8685 -0.3597  0.3571
 3165TIP3    H233691   5.300   5.912   7.016 -0.2926 -0.2833  0.3630
 3166TIP3   OH233692   2.777   0.539   7.320  0.0685 -0.5228  0.9654
 3166TIP3    H133693   2.722   0.512   7.393  0.9193 -0.1850  1.7537
 3166TIP3    H233694   2.789   0.633   7.332 -0.4290 -0.3151 -0.0693
 3167TIP3   OH233695   4.434   5.812   9.285 -0.1910  0.1672 -0.6865
 3167TIP3    H133696   4.382   5.852   9.215  1.9664  1.1877 -1.8300
 3167TIP3    H233697   4.409   5.858   9.364  0.2033  1.8647 -1.5139
 3168TIP3   OH233698   4.776   6.077   7.705 -0.1585  0.1042  0.5175
 3168TIP3    H133699   4.859   6.056   7.749  0.3146  1.8741  0.5209
 3168TIP3    H233700   4.732   6.137   7.765 -0.6968  0.4806 -0.2400
 3169TIP3   OH233701   4.045   7.603   9.008 -0.5172 -0.1071  0.2485
 3169TIP3    H133702   4.123   7.562   8.971 -0.7662 -0.2193 -0.1468
 3169TIP3    H233703   3.973   7.545   8.984 -0.9040  0.6603 -0.4981
 3170TIP3   OH233704   2.807   3.526   7.001 -0.5996 -0.4316 -0.0360
 3170TIP3    H133705   2.748   3.460   6.964 -0.3194 -0.1337 -1.0470
 3170TIP3    H233706   2.890   3.480   7.012 -0.4298 -0.2916 -0.6563
 3171TIP3   OH233707   6.616   7.243   8.673  0.0502  0.3663 -0.0689
 3171TIP3    H133708   6.610   7.332   8.636 -1.5171 -0.0394 -0.8631
 3171TIP3    H233709   6.679   7.252   8.745  1.7514  1.6144 -1.5858
 3172TIP3   OH233710   4.067   2.364   8.368 -0.2929  0.3973 -0.3034
 3172TIP3    H133711   4.039   2.273   8.375 -0.8346  0.6519  1.1637
 3172TIP3    H233712   4.016   2.411   8.435  0.2425  1.7149 -0.7733
 3173TIP3   OH233713   2.387   0.260   8.947  0.2936  0.0567 -0.0611
 3173TIP3    H133714   2.408   0.195   9.014 -0.6084  1.5207  1.7506
 3173TIP3    H233715   2.294   0.245   8.928  0.6174 -0.5479 -1.2681
 3174TIP3   OH233716   6.487   1.978   8.737  0.3421 -0.0164 -0.4279
 3174TIP3    H133717   6.534   2.011   8.660  2.2800 -0.2840  0.5691
 3174TIP3    H233718   6.533   1.897   8.759 -1.4352 -0.9946 -0.1239
 3175TIP3   OH233719   1.208   0.054   8.562  0.3761  0.3523  0.2125
 3175TIP3    H133720   1.300   0.030   8.551 -0.1823 -0.9589 -2.4588
 3175TIP3    H233721   1.197   0.131   8.506  0.2322  1.7842  2.1136
 3176TIP3   OH233722   4.290   3.843   8.887 -0.1688  0.0636  0.5725
 3176TIP3    H133723   4.260   3.883   8.968 -1.6133  2.2056 -0.9320
 3176TIP3    H233724   4.367   3.895   8.862 -1.1481  0.9817 -0.6158
 3177TIP3   OH233725   1.828   2.447   8.305  0.2900 -0.5453 -0.0752
 3177TIP3    H133726   1.732   2.443   8.308  0.1518  0.6397 -1.3770
 3177TIP3    H233727   1.846   2.506   8.232  2.0556 -2.1107 -0.9827
 3178TIP3   OH233728   1.074   2.067   9.545  0.0285 -0.1364 -0.3027
 3178TIP3    H133729   1.005   2.064   9.611 -1.1500 -2.0392 -1.5319
 3178TIP3    H233730   1.124   1.986   9.556  0.1483 -0.2339 -1.3672
 3179TIP3   OH233731   1.249   0.536   9.529 -0.2387  0.6241 -0.4226
 3179TIP3    H133732   1.285   0.583   9.605 -0.0132  0.1189 -0.2076
 3179TIP3    H233733   1.276   0.445   9.543  1.5897  0.8497 -2.1561
 3180TIP3   OH233734   5.433   7.063   6.865  0.0006  0.5860 -0.2873
 3180TIP3    H133735   5.366   7.114   6.820  0.4113  1.9314  0.5711
 3180TIP3    H233736   5.385   7.000   6.918 -0.5292  0.2862 -1.1195
 3181TIP3   OH233737   6.715   3.394   6.858 -0.2217 -0.0396  0.3578
 3181TIP3    H133738   6.777   3.435   6.798 -1.6265 -0.0750 -1.1877
 3181TIP3    H233739   6.707   3.304   6.826 -1.3061  0.0541  0.3558
 3182TIP3   OH233740   7.034   5.131   9.191  0.4951 -0.6699 -0.6154
 3182TIP3    H133741   7.020   5.205   9.132 -0.5277 -0.9083 -0.6941
 3182TIP3    H233742   7.128   5.131   9.208  0.5128  0.6781 -0.5780
 3183TIP3   OH233743   0.902   4.621   9.247 -0.5903  0.2583  0.6183
 3183TIP3    H133744   0.975   4.670   9.285 -0.8589  0.8321  0.4096
 3183TIP3    H233745   0.929   4.602   9.158 -1.3890  2.0208 -0.0484
 3184TIP3   OH233746   0.956   0.382   8.745  0.1651  0.4237 -0.1581
 3184TIP3    H133747   1.017   0.321   8.787 -1.0089  0.5170  1.7848
 3184TIP3    H233748   0.982   0.468   8.778  0.2155  0.7086 -0.9120
 3185TIP3   OH233749   3.390   0.945   7.295 -0.3318 -0.1905 -0.4554
 3185TIP3    H133750   3.408   0.922   7.386  0.5705  1.8389 -0.0658
 3185TIP3    H233751   3.449   0.891   7.243  0.4520 -0.0505  0.2844
 3186TIP3   OH233752   4.149   4.283   9.022 -0.4757  0.0192  0.4400
 3186TIP3    H133753   4.142   4.211   9.085 -0.5921 -0.6191 -0.2850
 3186TIP3    H233754   4.152   4.362   9.076  1.5765 -0.6255  1.3545
 3187TIP3   OH233755   1.269   3.059   8.540 -0.0111  0.2697 -0.1488
 3187TIP3    H133756   1.348   3.087   8.493 -0.3575  0.3002 -0.7143
 3187TIP3    H233757   1.301   3.033   8.626  0.6061  0.3748 -0.3412
 3188TIP3   OH233758   4.475   1.982   9.335 -0.0103  0.2842 -0.5714
 3188TIP3    H133759   4.425   2.011   9.259 -3.4148 -3.9092 -0.2875
 3188TIP3    H233760   4.545   1.928   9.300 -0.8853 -0.7120 -0.8141
 3189TIP3   OH233761   7.573   7.366   7.888  0.1282  0.2265  0.0221
 3189TIP3    H133762   7.652   7.407   7.853  0.9676 -0.3547  1.1783
 3189TIP3    H233763   7.597   7.275   7.901 -0.8768 -0.0540 -0.0187
 3190TIP3   OH233764   6.313   5.576   9.252 -0.2809  0.6025 -0.0971
 3190TIP3    H133765   6.376   5.594   9.183  0.3633 -0.7183  0.1096
 3190TIP3    H233766   6.367   5.556   9.329 -0.8182 -2.2968 -0.3520
 3191TIP3   OH233767   7.619   3.266   8.879  0.2595 -0.0835  0.3964
 3191TIP3    H133768   7.550   3.330   8.860  1.2913  1.4718  1.6152
 3191TIP3    H233769   7.613   3.251   8.974 -0.9753 -3.0845 -0.0444
 3192TIP3   OH233770   1.052   4.727   9.689 -0.0565  0.0044  0.2337
 3192TIP3    H133771   1.132   4.776   9.674  0.2310 -0.6747 -0.5506
 3192TIP3    H233772   1.074   4.637   9.664 -0.4193 -0.6344  2.0583
 3193TIP3   OH233773   1.996   3.833   7.904  0.3215 -0.1835  0.2644
 3193TIP3    H133774   1.969   3.900   7.841 -0.4822 -1.1783 -0.4869
 3193TIP3    H233775   1.931   3.839   7.974 -0.7704 -1.2601 -0.6046
 3194TIP3   OH233776   4.528   3.468   8.280  0.0293  0.0107 -0.2387
 3194TIP3    H133777   4.542   3.543   8.222 -0.5845 -0.3853 -0.9065
 3194TIP3    H233778   4.616   3.447   8.313  0.2869  0.6643 -0.4867
 3195TIP3   OH233779   1.368   6.902   8.035 -0.1679 -0.3426  0.3051
 3195TIP3    H133780   1.435   6.883   7.969  0.1108  2.3586 -0.2805
 3195TIP3    H233781   1.305   6.959   7.991 -0.8920  0.1731  1.9133
 3196TIP3   OH233782   5.133   5.718   7.130 -0.1188 -0.1725  0.7940
 3196TIP3    H133783   5.056   5.741   7.182 -2.4346 -0.8802 -2.0276
 3196TIP3    H233784   5.184   5.799   7.125 -1.3413  0.6931  1.6869
 3197TIP3   OH233785   7.416   5.152   7.893  0.1624 -0.4494  0.0111
 3197TIP3    H133786   7.375   5.235   7.870  1.2246  0.4483  1.1990
 3197TIP3    H233787   7.415   5.150   7.988  1.8172 -0.9050  0.0544
 3198TIP3   OH233788   1.437   3.880   7.381 -0.5109  0.3186  0.4215
 3198TIP3    H133789   1.399   3.937   7.448 -1.2263  0.5647 -0.1691
 3198TIP3    H233790   1.508   3.834   7.425 -0.1950  1.3581  1.0247
 3199TIP3   OH233791   5.701   2.876   8.319 -0.4813 -0.8591 -0.2564
 3199TIP3    H133792   5.627   2.928   8.349  0.6510  0.3287  0.5442
 3199TIP3    H233793   5.740   2.842   8.399  0.5651 -0.4630 -0.5898
 3200TIP3   OH233794   3.543   5.074   9.307 -0.4595 -0.1521  0.2930
 3200TIP3    H133795   3.455   5.093   9.340  0.2257 -1.1366  2.9360
 3200TIP3    H233796   3.546   4.978   9.302  0.8248 -0.1950  1.4508
 3201TIP3   OH233797   4.974   0.781   7.634 -0.8691 -0.0858  0.0548
 3201TIP3    H133798   4.956   0.870   7.604 -0.1196  0.0026 -0.1601
 3201TIP3    H233799   4.891   0.750   7.669 -1.3010  0.4640 -0.4633
 3202TIP3   OH233800   7.246   5.171   9.419  0.5433 -0.0370 -0.7080
 3202TIP3    H133801   7.243   5.265   9.399  0.7307  0.1788  0.2550
 3202TIP3    H233802   7.291   5.133   9.343  0.1642  0.6009 -1.2640
 3203TIP3   OH233803   1.329   6.896   8.474  0.4514  0.0800  0.3904
 3203TIP3    H133804   1.389   6.897   8.399  1.1679  0.5679  0.9582
 3203TIP3    H233805   1.384   6.871   8.548  0.1414  1.2950  1.0589
 3204TIP3   OH233806   4.602   2.088   8.886 -0.4959 -0.0387 -0.4899
 3204TIP3    H133807   4.656   2.150   8.936 -1.4220  0.1448  0.3187
 3204TIP3    H233808   4.652   2.070   8.807  0.3093  0.8554 -0.1953
 3205TIP3   OH233809   0.020   2.714   9.238 -0.2311 -0.1667 -0.0633
 3205TIP3    H133810   0.029   2.777   9.166 -0.1719  0.7248  0.7068
 3205TIP3    H233811  -0.049   2.752   9.293  1.0898  0.1953  1.3952
 3206TIP3   OH233812   3.246   4.679   9.688 -0.2745 -0.3030 -0.0245
 3206TIP3    H133813   3.270   4.604   9.633  1.7678 -2.8317  3.8526
 3206TIP3    H233814   3.169   4.650   9.736 -0.1680  0.5403  0.6763
 3207TIP3   OH233815   6.667   3.623   8.979 -0.4988 -0.1506  0.4511
 3207TIP3    H133816   6.638   3.696   9.035  0.3982 -1.0973  2.2333
 3207TIP3    H233817   6.706   3.560   9.040  0.4343 -1.3018 -1.2589
 3208TIP3   OH233818   5.585   4.854   8.873 -0.2534 -0.5801 -0.5106
 3208TIP3    H133819   5.571   4.945   8.899  0.4214 -0.3397 -0.9530
 3208TIP3    H233820   5.591   4.807   8.956 -0.2104 -0.1547 -0.2691
 3209TIP3   OH233821   3.458   5.297   8.120 -0.2285  0.2798  0.1901
 3209TIP3    H133822   3.514   5.303   8.043  0.1830 -1.7567  0.2577
 3209TIP3    H233823   3.484   5.371   8.174 -0.4676  1.6949 -1.5564
 3210TIP3   OH233824   2.941   2.244   8.229  0.3110  0.0159 -0.2695
 3210TIP3    H133825   2.873   2.200   8.280  1.5229  0.0696  1.4777
 3210TIP3    H233826   2.895   2.313   8.182 -0.7306  0.6695  1.6009
 3211TIP3   OH233827   2.419   3.652   8.394 -0.1014  0.0720 -0.2150
 3211TIP3    H133828   2.342   3.599   8.411  0.1841 -0.2323  0.1487
 3211TIP3    H233829   2.386   3.727   8.345 -0.6977  0.1744  0.3266
 3212TIP3   OH233830   2.865   4.759   6.639 -0.2439 -0.4785  0.0477
 3212TIP3    H133831   2.772   4.743   6.619 -0.5946  0.8226  0.5602
 3212TIP3    H233832   2.891   4.682   6.689 -1.2547 -0.5284  0.5279
 3213TIP3   OH233833   7.431   7.259   8.610 -0.6084 -0.4422 -0.1938
 3213TIP3    H133834   7.396   7.171   8.620 -0.4366 -0.5428 -0.4796
 3213TIP3    H233835   7.466   7.261   8.521 -1.8468  0.3476 -0.6830
 3214TIP3   OH233836   3.779   5.760   7.997  0.0645 -0.0214 -0.3735
 3214TIP3    H133837   3.836   5.833   7.973 -1.6236  1.1934 -0.9101
 3214TIP3    H233838   3.773   5.763   8.092  1.2674 -0.4951 -0.2642
 3215TIP3   OH233839   7.472   4.773   6.313 -0.1060  0.5350  0.0858
 3215TIP3    H133840   7.473   4.679   6.333  0.0041  0.4473 -0.3199
 3215TIP3    H233841   7.379   4.798   6.317 -0.2201  0.2358 -0.5854
 3216TIP3   OH233842   7.599   5.635   6.945  0.2593 -0.5667  0.4355
 3216TIP3    H133843   7.563   5.719   6.917  0.3758 -1.2001 -1.8131
 3216TIP3    H233844   7.677   5.623   6.890  1.4829 -1.2090  2.1921
 3217TIP3   OH233845   5.908   0.904   7.384  0.6461  0.1589 -0.5982
 3217TIP3    H133846   5.859   0.853   7.319  1.9832 -1.6378 -0.2759
 3217TIP3    H233847   5.996   0.866   7.382  0.8460  0.3444  1.9277
 3218TIP3   OH233848   5.384   0.833   7.934  0.8331  0.6717 -0.4743
 3218TIP3    H133849   5.420   0.899   7.994  0.1459  1.2634 -0.7075
 3218TIP3    H233850   5.310   0.795   7.982  1.5409 -0.3210 -0.1272
 3219TIP3   OH233851   5.656   7.229   8.827 -0.1945  0.8253 -0.3415
 3219TIP3    H133852   5.612   7.190   8.902  0.2144  0.1987 -0.4238
 3219TIP3    H233853   5.664   7.158   8.764 -0.7168  1.3898 -1.0671
 3220TIP3   OH233854   5.343   6.965   9.003 -0.0573  0.4144 -0.7463
 3220TIP3    H133855   5.298   6.973   9.087  0.2895  1.4128 -0.6363
 3220TIP3    H233856   5.403   6.892   9.014 -1.1235 -0.4673 -0.6559
 3221TIP3   OH233857   7.584   2.110   8.148 -0.5782 -0.2113  0.1171
 3221TIP3    H133858   7.653   2.177   8.145 -0.4868 -0.2722  0.7026
 3221TIP3    H233859   7.629   2.029   8.127 -0.2856 -0.3824  1.3166
 3222TIP3   OH233860   1.751   0.947   8.745  0.0462  0.2648 -0.3187
 3222TIP3    H133861   1.765   1.006   8.671 -0.8259  0.9266  0.0215
 3222TIP3    H233862   1.839   0.920   8.772  0.4334  1.0416 -0.7814
 3223TIP3   OH233863   7.481   0.106   8.992  0.1337 -0.3270  0.3839
 3223TIP3    H133864   7.419   0.075   8.927  1.8178 -1.1707 -0.8884
 3223TIP3    H233865   7.567   0.084   8.956  1.1976  0.9448  1.9925
 3224TIP3   OH233866   7.378   5.224   8.937  0.0064 -0.0691 -0.3116
 3224TIP3    H133867   7.359   5.184   8.852  1.5944 -0.1396 -0.6724
 3224TIP3    H233868   7.448   5.287   8.919 -0.3264  0.6433  0.7821
 3225TIP3   OH233869   5.359   0.576   8.671 -0.1284 -0.1996 -0.3110
 3225TIP3    H133870   5.351   0.558   8.577  0.7535  1.6890 -0.7859
 3225TIP3    H233871   5.446   0.544   8.694  0.3673  0.9590 -0.5506
 3226TIP3   OH233872   1.692   0.159   7.169  0.0405  0.0152 -0.2636
 3226TIP3    H133873   1.739   0.212   7.104  0.9718 -2.7673 -2.0417
 3226TIP3    H233874   1.762   0.115   7.218 -0.6281 -1.5653 -0.6544
 3227TIP3   OH233875   1.558   3.718   9.401  0.4451 -0.7589 -0.1089
 3227TIP3    H133876   1.631   3.726   9.462  0.0117  0.6957  0.2610
 3227TIP3    H233877   1.600   3.698   9.317  1.0979 -1.9760  0.4811
 3228TIP3   OH233878   2.504   1.615   7.301  0.0680  0.1570 -0.0324
 3228TIP3    H133879   2.439   1.684   7.311 -0.9323 -0.9573  1.8103
 3228TIP3    H233880   2.582   1.648   7.346 -0.0953  0.4526  0.0347
 3229TIP3   OH233881   5.703   5.452   7.436 -0.5683 -0.4056  0.1166
 3229TIP3    H133882   5.734   5.438   7.346 -0.1335 -1.1970  0.3728
 3229TIP3    H233883   5.780   5.485   7.483 -0.0712 -2.3071  0.7415
 3230TIP3   OH233884   6.040   5.030   7.499 -0.3214 -0.3864 -0.5146
 3230TIP3    H133885   6.000   5.045   7.413  0.3309  1.1461 -0.6004
 3230TIP3    H233886   5.993   5.089   7.558  1.0922  0.7151 -0.4254
 3231TIP3   OH233887   4.867   5.063   8.038  0.3946  0.2935  0.0275
 3231TIP3    H133888   4.791   5.116   8.062  0.5757  0.8334 -0.5622
 3231TIP3    H233889   4.913   5.116   7.973  1.4741  0.1401  0.6415
 3232TIP3   OH233890   6.192   6.239   6.948 -0.5851  0.2645  0.4761
 3232TIP3    H133891   6.168   6.208   7.036  0.3184  0.2105  0.7159
 3232TIP3    H233892   6.173   6.333   6.950  1.5098  0.7124  1.5026
 3233TIP3   OH233893   2.957   0.459   7.635  0.2438  0.7658  0.7954
 3233TIP3    H133894   2.879   0.474   7.689  0.5081  0.4126  1.2850
 3233TIP3    H233895   2.985   0.370   7.659  0.3541  0.6003  0.0623
 3234TIP3   OH233896   7.669   2.915   7.062 -0.4141 -0.9893 -0.2541
 3234TIP3    H133897   7.755   2.957   7.055 -0.8263 -0.1846 -0.6053
 3234TIP3    H233898   7.633   2.921   6.974 -1.1327 -0.6692  0.0612
 3235TIP3   OH233899   1.131   1.300   8.314 -0.2167 -0.2285 -0.0202
 3235TIP3    H133900   1.198   1.316   8.381  0.3304 -0.5054 -0.4997
 3235TIP3    H233901   1.059   1.260   8.362  0.8370 -2.0487  0.1429
 3236TIP3   OH233902   4.712   0.194   6.884 -0.2227 -1.2316  0.1660
 3236TIP3    H133903   4.669   0.109   6.881 -0.6328 -1.0076 -0.5441
 3236TIP3    H233904   4.805   0.176   6.869 -0.4213 -1.4796 -0.8138
 3237TIP3   OH233905   4.260   5.681   8.984  0.2665 -0.1480 -0.4122
 3237TIP3    H133906   4.198   5.696   8.913  0.2141  0.2891 -0.2779
 3237TIP3    H233907   4.223   5.607   9.033 -0.8305  0.8823  0.4000
 3238TIP3   OH233908   5.528   2.046   7.296  0.1730  0.2227 -0.5181
 3238TIP3    H133909   5.585   2.114   7.333 -0.6097 -0.4361  2.1041
 3238TIP3    H233910   5.469   2.093   7.238  2.1786  1.1743 -1.8646
 3239TIP3   OH233911   6.637   1.664   7.885  0.5740 -0.2372 -0.5968
 3239TIP3    H133912   6.664   1.641   7.974  1.5341  1.1597 -0.4895
 3239TIP3    H233913   6.647   1.583   7.835  1.8674 -0.5800  0.1659
 3240TIP3   OH233914   5.779   5.702   6.705 -0.0393  0.6204 -0.1792
 3240TIP3    H133915   5.740   5.614   6.707 -1.3781  1.1980  0.7275
 3240TIP3    H233916   5.750   5.739   6.621 -0.1326  0.4856 -0.2073
 3241TIP3   OH233917   7.412   1.736   6.949 -0.8082 -0.4552 -0.0113
 3241TIP3    H133918   7.353   1.715   7.021  1.6980 -1.2143  1.9571
 3241TIP3    H233919   7.403   1.663   6.888 -2.8880  0.1508 -0.5307
 3242TIP3   OH233920   5.735   4.102   6.888 -0.0432  0.0929 -0.5654
 3242TIP3    H133921   5.679   4.180   6.889 -1.4023 -0.8474  0.2355
 3242TIP3    H233922   5.772   4.099   6.800  0.2478  1.7734 -0.5316
 3243TIP3   OH233923   7.012   4.400   9.213  0.2048  0.3107 -0.5567
 3243TIP3    H133924   7.029   4.312   9.180  0.2708  0.6422 -1.4213
 3243TIP3    H233925   7.074   4.411   9.285  0.2039 -0.3405 -0.4507
 3244TIP3   OH233926   0.822   0.459   8.232 -0.8267 -0.2779  0.1993
 3244TIP3    H133927   0.727   0.457   8.243 -0.6733 -1.8098  1.6875
 3244TIP3    H233928   0.851   0.370   8.251  0.9821  0.3208  0.5197
 3245TIP3   OH233929   0.982   1.312   8.717 -0.4076 -0.2495  0.8103
 3245TIP3    H133930   1.019   1.366   8.647  1.4144 -0.9002  1.2182
 3245TIP3    H233931   0.890   1.338   8.721  0.4268  3.1408  1.2661
 3246TIP3   OH233932   1.608   4.330   9.710 -0.0821 -0.0134  0.2247
 3246TIP3    H133933   1.536   4.378   9.670  1.9414  0.9408 -2.6422
 3246TIP3    H233934   1.582   4.238   9.706 -1.1099  0.3122 -0.7837
 3247TIP3   OH233935   0.080   5.062   7.568  0.0645  0.6340 -0.3627
 3247TIP3    H133936  -0.002   5.032   7.530  0.1843  0.4185 -0.4539
 3247TIP3    H233937   0.054   5.112   7.645 -0.0795 -1.5530  1.1089
 3248TIP3   OH233938   6.030   6.415   7.373 -0.3485 -0.3023  0.5698
 3248TIP3    H133939   5.938   6.439   7.385 -0.3556 -0.2155  0.3463
 3248TIP3    H233940   6.071   6.440   7.455 -0.6703 -1.0690  0.9706
 3249TIP3   OH233941   6.610   7.457   8.037 -0.7454 -0.1254  0.0278
 3249TIP3    H133942   6.645   7.510   7.966 -2.8928  1.8441  0.3448
 3249TIP3    H233943   6.569   7.382   7.994  1.4261 -1.0948 -0.4850
 3250TIP3   OH233944   2.825   1.027   8.131  0.1889  0.3530  0.6607
 3250TIP3    H133945   2.911   1.052   8.163 -0.3851  2.3074  0.7693
 3250TIP3    H233946   2.783   1.109   8.105 -1.1744 -0.6678 -0.5837
 3251TIP3   OH233947   2.966   1.897   8.918  0.5704 -0.1362 -0.0258
 3251TIP3    H133948   2.964   1.978   8.969  1.2572 -1.5829  2.4885
 3251TIP3    H233949   2.892   1.846   8.951  0.4814 -0.7785 -1.1592
 3252TIP3   OH233950   1.553   0.367   7.388  0.2623  0.3984 -0.0339
 3252TIP3    H133951   1.499   0.350   7.311  0.8510  1.2274 -0.6399
 3252TIP3    H233952   1.510   0.317   7.458 -1.3708  1.1263 -0.4628
 3253TIP3   OH233953   0.763   2.427   7.017 -0.0652  0.1658  0.2427
 3253TIP3    H133954   0.831   2.470   7.068 -0.5075  0.9010  0.2235
 3253TIP3    H233955   0.798   2.339   6.999  0.3687  0.1305  1.2321
 3254TIP3   OH233956   2.828   0.234   8.103  0.2989  0.0770  0.5019
 3254TIP3    H133957   2.752   0.227   8.160 -1.5488 -0.8445 -1.9225
 3254TIP3    H233958   2.843   0.328   8.094 -2.2267  0.4267 -0.9502
 3255TIP3   OH233959   2.073   3.655   8.291  0.0266  0.1752  0.4062
 3255TIP3    H133960   2.122   3.702   8.357  1.8711  0.3736 -1.0252
 3255TIP3    H233961   2.111   3.567   8.290  0.9121  0.5265 -1.1850
 3256TIP3   OH233962   2.583   3.013   6.991  0.1265 -0.3000 -0.4733
 3256TIP3    H133963   2.660   2.971   6.952  1.3884  0.9318  0.5824
 3256TIP3    H233964   2.553   2.950   7.057  0.1699 -0.8272 -0.9498
 3257TIP3   OH233965   2.834   6.825   9.546  0.1156  0.4980  0.3191
 3257TIP3    H133966   2.867   6.738   9.526  0.6444  0.8527 -0.4015
 3257TIP3    H233967   2.749   6.829   9.502  0.0294  0.3022  0.4662
 3258TIP3   OH233968   2.384   6.042   7.727 -0.4332 -0.0054 -0.0288
 3258TIP3    H133969   2.419   5.969   7.778  0.2233 -0.2534 -0.7984
 3258TIP3    H233970   2.294   6.052   7.757 -0.1924 -0.4172  0.8601
 3259TIP3   OH233971   6.167   1.592   6.596  0.6078 -1.0020 -0.3939
 3259TIP3    H133972   6.251   1.546   6.596  1.7275  0.9220  0.2224
 3259TIP3    H233973   6.189   1.682   6.573 -1.1552 -0.2419  0.6913
 3260TIP3   OH233974   6.320   6.542   8.869 -0.2551 -0.1080 -0.1322
 3260TIP3    H133975   6.395   6.594   8.841 -0.9157 -0.0346 -1.8846
 3260TIP3    H233976   6.332   6.457   8.827 -0.3883 -0.6144  0.8145
 3261TIP3   OH233977   5.802   5.669   9.130 -0.0326  0.3255 -0.1873
 3261TIP3    H133978   5.716   5.696   9.099 -0.1085  1.2832  0.8014
 3261TIP3    H233979   5.801   5.690   9.224  0.3149 -2.0974  0.4231
 3262TIP3   OH233980   0.598   0.467   9.576 -0.1555 -0.2171 -0.2971
 3262TIP3    H133981   0.603   0.557   9.543 -1.8789 -1.0128 -3.0869
 3262TIP3    H233982   0.545   0.475   9.656  0.0390  1.2926 -0.2805
 3263TIP3   OH233983   4.817   1.907   9.325  0.0562  0.8715  0.3672
 3263TIP3    H133984   4.884   1.975   9.316  1.5039 -0.6280 -0.9130
 3263TIP3    H233985   4.812   1.867   9.238 -0.6101 -0.7849  1.1363
 3264TIP3   OH233986   4.802   4.500   7.531 -0.0876  0.1589  0.0367
 3264TIP3    H133987   4.749   4.437   7.581 -0.7761 -0.8804 -1.9211
 3264TIP3    H233988   4.749   4.519   7.454  1.5523  0.6419 -1.0007
 3265TIP3   OH233989   1.435   5.571   6.856  0.2533  0.7538  0.0857
 3265TIP3    H133990   1.391   5.656   6.858 -1.4356 -0.0675  0.0109
 3265TIP3    H233991   1.518   5.585   6.901 -0.5683  2.1347  1.2354
 3266TIP3   OH233992   1.378   4.763   8.832 -0.5561 -0.2790  0.0042
 3266TIP3    H133993   1.360   4.712   8.753 -2.1542  0.7055 -0.3121
 3266TIP3    H233994   1.353   4.707   8.905 -0.0360 -0.8141 -0.2249
 3267TIP3   OH233995   6.766   1.861   6.736 -0.3473  0.3564 -0.0013
 3267TIP3    H133996   6.786   1.781   6.687 -0.9606 -4.1017  5.8371
 3267TIP3    H233997   6.845   1.914   6.728  2.3791 -3.3059 -0.3199
 3268TIP3   OH233998   3.879   1.523   8.874 -0.3057  0.7028 -0.1021
 3268TIP3    H133999   3.857   1.616   8.884 -0.8903  0.4109  1.7069
 3268TIP3    H234000   3.951   1.509   8.936 -1.4875 -0.4443  1.0587
 3269TIP3   OH234001   2.275   2.684   7.632  0.3427  0.1575  0.4662
 3269TIP3    H134002   2.302   2.775   7.617 -0.4577  0.3934  0.3754
 3269TIP3    H234003   2.235   2.657   7.549  1.6961 -0.7160  0.0605
 3270TIP3   OH234004   2.617   4.813   6.573 -0.1825 -0.0728 -0.3484
 3270TIP3    H134005   2.539   4.818   6.628  0.3938  0.2863  0.4781
 3270TIP3    H234006   2.590   4.765   6.495 -0.6796 -1.9286  0.8936
 3271TIP3   OH234007   5.830   4.760   8.231  0.5179  0.3184  0.3601
 3271TIP3    H134008   5.894   4.773   8.162  0.4626  0.6375  0.3666
 3271TIP3    H234009   5.745   4.771   8.188  0.4589 -0.2823  0.3153
 3272TIP3   OH234010   6.874   1.836   7.063 -0.5031 -0.0620 -0.5432
 3272TIP3    H134011   6.957   1.826   7.016 -0.9659 -1.9794 -1.0472
 3272TIP3    H234012   6.885   1.785   7.143 -0.8554  0.5060 -0.1228
 3273TIP3   OH234013   1.967   1.887   8.720  0.8708  0.3312 -0.1677
 3273TIP3    H134014   1.991   1.797   8.744 -1.1739 -0.1300  0.2958
 3273TIP3    H234015   2.041   1.917   8.666  0.2496 -2.7269 -3.0893
 3274TIP3   OH234016   6.940   1.211   7.115  0.1857 -0.3682  0.4353
 3274TIP3    H134017   6.869   1.149   7.133  1.0904 -1.1669  1.2844
 3274TIP3    H234018   6.999   1.204   7.190  0.7753  0.8679  0.1175
 3275TIP3   OH234019   0.703   0.456   8.605 -0.3723  0.0542  0.7476
 3275TIP3    H134020   0.644   0.508   8.659 -0.0305  0.5966  0.6093
 3275TIP3    H234021   0.747   0.397   8.668  0.6417  1.2591  1.2198
 3276TIP3   OH234022   1.847   7.040   9.487 -0.2235  0.4537 -0.3027
 3276TIP3    H134023   1.940   7.063   9.476  0.1796 -0.1055  1.5603
 3276TIP3    H234024   1.847   6.945   9.496 -0.9460  0.4733 -0.0527
 3277TIP3   OH234025   0.912   6.279   8.658  0.4487  0.0087  0.4805
 3277TIP3    H134026   0.899   6.351   8.720 -0.0957  3.0092 -2.8336
 3277TIP3    H234027   1.007   6.273   8.648  0.4809  1.5729 -0.4954
 3278TIP3   OH234028   4.622   4.220   8.690  0.4386  0.1652 -0.4166
 3278TIP3    H134029   4.699   4.183   8.732  1.0818  2.0358  0.1597
 3278TIP3    H234030   4.606   4.302   8.737 -4.1589 -1.7683  2.1296
 3279TIP3   OH234031   0.233   4.394   8.689  0.1059 -0.0135  0.0255
 3279TIP3    H134032   0.314   4.390   8.638 -1.2987  1.2394 -2.5106
 3279TIP3    H234033   0.170   4.345   8.637 -1.8710  2.8642 -0.5356
 3280TIP3   OH234034   6.313   3.898   9.232  0.0897 -0.2413  0.4019
 3280TIP3    H134035   6.339   3.987   9.254  0.9861 -0.6782  1.2109
 3280TIP3    H234036   6.396   3.849   9.231 -0.0703 -0.6146 -2.3719
 3281TIP3   OH234037   2.116   3.059   7.558 -0.0520  0.3671 -0.2395
 3281TIP3    H134038   2.212   3.051   7.553 -0.0428 -1.2931  1.2789
 3281TIP3    H234039   2.092   3.004   7.633 -2.1709  1.0796 -0.3345
 3282TIP3   OH234040   0.297   3.151   8.541  0.7467 -0.4422  0.0048
 3282TIP3    H134041   0.269   3.059   8.537 -0.6920 -0.0704  0.8841
 3282TIP3    H234042   0.235   3.192   8.601  0.5133  1.4249 -1.4527
 3283TIP3   OH234043   7.645   6.560   6.939  0.3198 -0.3668 -0.0248
 3283TIP3    H134044   7.701   6.586   7.012  0.7039 -0.4942 -0.2692
 3283TIP3    H234045   7.649   6.634   6.878  0.3239 -0.4263 -0.0981
 3284TIP3   OH234046   3.752   5.211   7.515 -0.3158  0.0532 -0.2182
 3284TIP3    H134047   3.802   5.141   7.473 -0.2141  0.8457 -1.4691
 3284TIP3    H234048   3.808   5.241   7.586  0.3912  0.0011 -0.7372
 3285TIP3   OH234049   7.513   5.037   7.437 -0.2639 -0.3171  0.5926
 3285TIP3    H134050   7.471   5.115   7.402  0.8538 -0.1323 -0.3924
 3285TIP3    H234051   7.479   4.965   7.383  1.2855 -0.0603 -0.7979
 3286TIP3   OH234052   1.944   7.422   8.610  0.7960 -0.7164 -0.2214
 3286TIP3    H134053   2.028   7.462   8.631  1.8301 -3.0247  0.3366
 3286TIP3    H234054   1.892   7.431   8.690 -0.3249  2.3757 -1.1177
 3287TIP3   OH234055   6.711   5.987   7.706  0.4811  0.4042 -0.0259
 3287TIP3    H134056   6.639   5.972   7.645  2.0859 -1.3326 -1.6136
 3287TIP3    H234057   6.745   5.899   7.724  1.0610  1.0205  2.1833
 3288TIP3   OH234058   5.287   5.543   8.235 -0.3252 -0.3889 -0.0226
 3288TIP3    H134059   5.246   5.457   8.230  1.3034 -1.1567 -0.7238
 3288TIP3    H234060   5.278   5.580   8.147 -0.7375  0.0314  0.1916
 3289TIP3   OH234061   5.744   6.515   7.996  0.3973 -0.0216  0.2903
 3289TIP3    H134062   5.654   6.522   8.030  0.2449 -0.9166  0.0967
 3289TIP3    H234063   5.754   6.591   7.940  0.2589  0.8675  1.4302
 3290TIP3   OH234064   6.697   0.228   7.822  0.1396  0.0482  0.4315
 3290TIP3    H134065   6.713   0.135   7.842  0.2741 -0.0036  0.0879
 3290TIP3    H234066   6.602   0.238   7.832  0.0482 -0.2650 -0.1021
 3291TIP3   OH234067   5.697   4.826   7.603 -0.1405 -0.3075  0.0078
 3291TIP3    H134068   5.733   4.907   7.638 -1.6119  0.1136  0.6267
 3291TIP3    H234069   5.611   4.817   7.645 -0.8432 -1.1805 -1.4997
 3292TIP3   OH234070   0.961   4.470   7.380 -0.0659 -0.2635 -0.1251
 3292TIP3    H134071   1.008   4.553   7.385 -0.4493 -0.0482 -0.0613
 3292TIP3    H234072   0.869   4.495   7.372 -0.1710 -0.6802 -0.2418
 3293TIP3   OH234073   7.161   3.577   9.253  0.2955  0.0445  0.1958
 3293TIP3    H134074   7.225   3.623   9.308  0.5456 -1.0581  0.8532
 3293TIP3    H234075   7.190   3.486   9.254  0.5718  0.0496 -2.1650
 3294TIP3   OH234076   7.620   1.884   7.668  0.8008  0.2584  0.0763
 3294TIP3    H134077   7.693   1.898   7.607  0.9360  0.4602  0.2843
 3294TIP3    H234078   7.650   1.922   7.750  0.1273  1.1000 -0.0549
 3295TIP3   OH234079   2.610   6.116   8.463 -0.0288  0.1712  0.5195
 3295TIP3    H134080   2.588   6.178   8.393 -0.2528  0.7221  1.0747
 3295TIP3    H234081   2.696   6.081   8.437 -1.3464 -1.8026 -1.5343
 3296TIP3   OH234082   1.026   5.160   7.425 -0.2584  0.1757 -0.2955
 3296TIP3    H134083   1.119   5.180   7.426  0.0741 -1.2585 -0.0398
 3296TIP3    H234084   0.984   5.242   7.400  0.8235  1.6866  2.3823
 3297TIP3   OH234085   3.821   2.145   8.703  0.4122  0.4289 -0.2152
 3297TIP3    H134086   3.862   2.058   8.701  0.9879  0.6804  0.1880
 3297TIP3    H234087   3.727   2.127   8.702  0.5251 -0.1996 -0.2411
 3298TIP3   OH234088   6.991   3.792   8.287  0.3419  0.4050 -0.0505
 3298TIP3    H134089   6.904   3.832   8.285  0.3955  0.7515  2.2872
 3298TIP3    H234090   6.994   3.743   8.369  2.4896  0.7455  0.1547
 3299TIP3   OH234091   0.552   7.235   9.559  0.3506 -0.4450  0.1120
 3299TIP3    H134092   0.467   7.208   9.592 -0.7498  1.3643 -1.0547
 3299TIP3    H234093   0.569   7.319   9.602  2.5857 -1.7260  1.9331
 3300TIP3   OH234094   6.353   1.246   7.963 -0.2072 -0.2619  0.4282
 3300TIP3    H134095   6.371   1.294   7.882 -0.9296  1.3839  1.1985
 3300TIP3    H234096   6.301   1.171   7.934 -2.1127  1.3095 -0.4931
 3301TIP3   OH234097   7.039   1.707   9.390 -0.5427  0.3699  0.2250
 3301TIP3    H134098   7.002   1.766   9.456 -2.2999 -0.7786  0.3555
 3301TIP3    H234099   6.966   1.690   9.330 -0.5946 -2.7156  0.9868
 3302TIP3   OH234100   3.846   1.918   9.395 -0.0079 -0.0333  0.4571
 3302TIP3    H134101   3.772   1.858   9.404  1.2336 -1.5746  0.8865
 3302TIP3    H234102   3.820   1.996   9.444 -0.9249 -0.9765  1.5471
 3303TIP3   OH234103   2.771   7.505   9.213 -0.2643 -0.0088  0.3055
 3303TIP3    H134104   2.735   7.445   9.147 -0.1740 -0.1844  0.4134
 3303TIP3    H234105   2.763   7.592   9.174 -3.1221  0.2853  1.3006
 3304TIP3   OH234106   6.119   4.077   7.337 -0.6945  0.1975  0.1975
 3304TIP3    H134107   6.136   4.118   7.252  0.9686 -2.1085 -0.6987
 3304TIP3    H234108   6.044   4.019   7.322 -0.5697 -0.0091  0.3628
 3305TIP3   OH234109   1.117   3.703   7.875 -0.3088  0.5097  0.0429
 3305TIP3    H134110   1.037   3.715   7.823  0.0757  2.9595 -0.1104
 3305TIP3    H234111   1.187   3.732   7.817  0.5749 -0.4477  0.6090
 3306TIP3   OH234112   1.806   4.684   7.517  0.2030 -0.1736  0.0258
 3306TIP3    H134113   1.802   4.686   7.613  1.0765 -3.3440  0.2406
 3306TIP3    H234114   1.735   4.742   7.489 -2.6182 -2.0402  2.6295
 3307TIP3   OH234115   2.392   0.915   7.291  0.0493 -0.0463  0.3480
 3307TIP3    H134116   2.391   0.823   7.264 -1.1648 -0.5253  1.8867
 3307TIP3    H234117   2.427   0.913   7.380 -0.7732  0.8771  0.7100
 3308TIP3   OH234118   3.835   5.374   9.004  0.4414 -0.3476 -0.0409
 3308TIP3    H134119   3.769   5.327   8.954  0.6830  0.1554 -0.8436
 3308TIP3    H234120   3.791   5.455   9.031  0.4671 -0.3976  0.1548
 3309TIP3   OH234121   7.465   6.317   9.148  0.1597 -0.1164 -0.3769
 3309TIP3    H134122   7.515   6.377   9.094  0.6000 -1.0669 -1.0531
 3309TIP3    H234123   7.374   6.330   9.120  0.3245 -0.2185 -0.9715
 3310TIP3   OH234124   1.031   6.403   7.089 -0.0073  0.0922  0.3343
 3310TIP3    H134125   1.019   6.339   7.019 -0.3229 -1.9759  2.1988
 3310TIP3    H234126   0.942   6.429   7.114  0.0972  2.7275 -1.5606
 3311TIP3   OH234127   4.687   0.079   9.679  0.3565 -0.1018 -1.0717
 3311TIP3    H134128   4.617   0.037   9.728  0.5760  2.6835  1.9428
 3311TIP3    H234129   4.642   0.124   9.607 -1.0711  1.6304  0.8006
 3312TIP3   OH234130   2.890   2.835   8.977 -0.3537  0.0295 -0.2939
 3312TIP3    H134131   2.975   2.820   9.018 -0.8112 -1.0473  0.2859
 3312TIP3    H234132   2.894   2.926   8.947  0.1061  0.7955  1.9096
 3313TIP3   OH234133   0.947   1.763   9.449 -0.6218  0.4811  0.1881
 3313TIP3    H134134   0.907   1.803   9.526 -0.5598 -0.8552  0.9383
 3313TIP3    H234135   0.975   1.837   9.396 -0.2347  1.4535  1.6755
 3314TIP3   OH234136   0.201   3.436   8.426 -0.0972  0.2356  0.1519
 3314TIP3    H134137   0.213   3.401   8.338  1.1238  0.5905  0.1676
 3314TIP3    H234138   0.258   3.384   8.481 -1.5961 -0.6534  0.9400
 3315TIP3   OH234139   4.941   0.050   8.158  0.1141  0.6275 -0.0568
 3315TIP3    H134140   5.022   0.048   8.208 -0.7186  1.8871  1.4213
 3315TIP3    H234141   4.889   0.120   8.198 -2.2483 -0.9548 -0.0957
 3316TIP3   OH234142   5.766   4.733   8.699  0.1428 -0.0369 -0.1203
 3316TIP3    H134143   5.823   4.703   8.770  0.1171  0.5056  0.1410
 3316TIP3    H234144   5.683   4.754   8.743 -0.0610 -0.2491 -0.4021
 3317TIP3   OH234145   4.592   3.395   9.080  0.3203 -0.3344  0.2669
 3317TIP3    H134146   4.652   3.410   9.007  0.0097  0.5259  0.1821
 3317TIP3    H234147   4.555   3.309   9.062 -0.0039  0.0069 -0.7698
 3318TIP3   OH234148   1.984   2.978   7.927  0.2867 -0.2225 -0.0697
 3318TIP3    H134149   2.056   2.967   7.990  1.5733 -1.3069 -1.6283
 3318TIP3    H234150   1.985   3.071   7.906 -0.5954  0.3031  1.9100
 3319TIP3   OH234151   3.872   1.239   8.186  0.0006 -0.3582 -0.1548
 3319TIP3    H134152   3.837   1.150   8.174  0.7894 -0.8876  1.1969
 3319TIP3    H234153   3.825   1.272   8.263  1.4950 -0.5949  0.8943
 3320TIP3   OH234154   6.417   0.147   7.596  0.2334 -0.3580 -0.2257
 3320TIP3    H134155   6.372   0.232   7.597 -0.1388 -0.5122  1.7435
 3320TIP3    H234156   6.424   0.124   7.504 -3.1708 -0.0201 -0.6888
 3321TIP3   OH234157   6.488   3.033   9.279  0.2334  0.4052  0.0459
 3321TIP3    H134158   6.505   2.987   9.361  0.2839  1.4264  0.6256
 3321TIP3    H234159   6.393   3.035   9.270  0.2470 -0.8921 -0.6302
 3322TIP3   OH234160   3.830   1.164   7.862 -0.4498 -0.0591 -0.1671
 3322TIP3    H134161   3.860   1.233   7.921  1.3179 -1.5462  0.7598
 3322TIP3    H234162   3.750   1.131   7.903  0.9804 -1.3634  1.7650
 3323TIP3   OH234163   4.959   5.785   7.853  0.4795 -0.2387 -0.0377
 3323TIP3    H134164   5.025   5.738   7.903  1.1380  0.8951  0.2049
 3323TIP3    H234165   5.009   5.852   7.805 -0.3838  0.0138 -0.6028
 3324TIP3   OH234166   1.552   7.479   9.047 -0.3860 -0.1610 -0.4503
 3324TIP3    H134167   1.505   7.466   8.964 -2.0142 -1.0917  0.5818
 3324TIP3    H234168   1.523   7.407   9.103  1.1777  0.0862  0.7510
 3325TIP3   OH234169   4.113   1.444   9.022  0.3172 -0.0950 -0.4344
 3325TIP3    H134170   4.084   1.366   9.070  0.2325 -0.4062 -0.9806
 3325TIP3    H234171   4.086   1.517   9.076  0.3728 -0.4447  0.0757
 3326TIP3   OH234172   7.359   5.052   8.162 -0.1153  0.2732 -0.0876
 3326TIP3    H134173   7.292   4.988   8.185  0.2085  0.3243  1.0346
 3326TIP3    H234174   7.436   5.025   8.212  0.9715 -0.2630 -1.9598
 3327TIP3   OH234175   1.399   1.233   9.019  0.4407 -0.2880 -0.0047
 3327TIP3    H134176   1.354   1.180   9.085  3.0384 -0.7892  1.4956
 3327TIP3    H234177   1.446   1.170   8.965 -0.3083  0.2387 -1.3098
 3328TIP3   OH234178   3.388   3.782   8.683  0.1878  0.1523  0.0832
 3328TIP3    H134179   3.308   3.823   8.650  0.6248 -1.4842 -3.3487
 3328TIP3    H234180   3.370   3.767   8.776 -3.9647 -1.0946 -0.7174
 3329TIP3   OH234181   1.090   1.490   7.834 -0.1090 -0.0484 -0.9434
 3329TIP3    H134182   1.048   1.410   7.867  0.9031 -0.9326 -1.6876
 3329TIP3    H234183   1.176   1.490   7.875  0.5131 -0.2407 -2.1889
 3330TIP3   OH234184   3.249   2.546   8.974  0.2804 -0.4934 -0.0247
 3330TIP3    H134185   3.231   2.485   8.903 -1.5054 -3.0337  2.4010
 3330TIP3    H234186   3.336   2.581   8.954 -0.0804 -1.1610 -3.3071
 3331TIP3   OH234187   6.424   5.223   8.759  0.0556 -0.2002  0.3450
 3331TIP3    H134188   6.392   5.165   8.689  0.9464 -1.9783  1.3339
 3331TIP3    H234189   6.382   5.188   8.839  0.6504  0.5077  0.9750
 3332TIP3   OH234190   3.956   6.755   7.956  0.5082  0.2778  0.2143
 3332TIP3    H134191   3.975   6.681   7.898  2.2708  1.2658 -0.5658
 3332TIP3    H234192   3.931   6.714   8.039 -0.8198 -1.1628 -0.8327
 3333TIP3   OH234193   3.296   5.370   7.783 -0.2256  0.2338 -0.2607
 3333TIP3    H134194   3.257   5.352   7.869 -3.8878 -0.0959 -1.7838
 3333TIP3    H234195   3.326   5.460   7.789 -0.4238  0.2248  1.3687
 3334TIP3   OH234196   3.025   6.669   7.247  0.3356  0.0936 -0.1566
 3334TIP3    H134197   2.930   6.661   7.254  0.4074 -0.2424  0.5889
 3334TIP3    H234198   3.039   6.750   7.197 -0.3321  0.9927  1.0427
 3335TIP3   OH234199   6.883   6.409   7.579 -0.2153 -0.1109 -0.1040
 3335TIP3    H134200   6.915   6.378   7.495 -0.6830 -0.3888 -0.1862
 3335TIP3    H234201   6.788   6.395   7.575 -0.1496 -0.9745  0.8091
 3336TIP3   OH234202   4.348   5.315   9.431 -0.7814  0.7298  0.2265
 3336TIP3    H134203   4.347   5.399   9.477 -0.3776  1.0954 -0.4195
 3336TIP3    H234204   4.399   5.332   9.352  0.1052 -0.3664  0.5474
 3337TIP3   OH234205   4.715   3.117   8.583  0.1890  0.0460 -0.2542
 3337TIP3    H134206   4.705   3.100   8.489  0.7820 -1.9832 -0.0198
 3337TIP3    H234207   4.627   3.104   8.619 -0.2142  1.6356 -0.5965
 3338TIP3   OH234208   3.145   3.838   8.617  0.2847 -0.3885 -0.1354
 3338TIP3    H134209   3.079   3.864   8.554  0.8550 -2.0166 -1.4969
 3338TIP3    H234210   3.099   3.779   8.677  0.3414 -1.1287 -0.7897
 3339TIP3   OH234211   2.681   2.177   9.008 -0.4007 -0.4383 -0.0291
 3339TIP3    H134212   2.624   2.167   8.931 -0.0220  0.2421 -0.4023
 3339TIP3    H234213   2.673   2.093   9.054 -2.8190  0.1284  0.7029
 3340TIP3   OH234214   6.564   5.654   7.617  0.0554 -0.1589 -0.3772
 3340TIP3    H134215   6.535   5.676   7.705 -0.2700  0.3703 -0.6129
 3340TIP3    H234216   6.499   5.592   7.585  0.7218 -1.1399  0.1176
 3341TIP3   OH234217   4.189   4.540   8.485  0.5519  0.5012 -0.0036
 3341TIP3    H134218   4.210   4.527   8.392  1.6497  0.3739  0.2528
 3341TIP3    H234219   4.141   4.461   8.510  1.2676  0.0100 -0.1689
 3342TIP3   OH234220   3.200   1.394   6.869 -0.0231  0.5711 -1.0396
 3342TIP3    H134221   3.178   1.302   6.852 -1.4843  0.6454  0.2062
 3342TIP3    H234222   3.120   1.431   6.904  0.8861  2.0523 -0.4463
 3343TIP3   OH234223   3.793   7.426   8.340 -0.3563  0.3617  0.0353
 3343TIP3    H134224   3.809   7.458   8.251  1.0132 -0.1802  0.0517
 3343TIP3    H234225   3.757   7.338   8.327  0.9225 -0.1785 -0.0069
 3344TIP3   OH234226   1.651   4.735   9.512 -0.6388 -0.3849  0.3200
 3344TIP3    H134227   1.699   4.703   9.588  1.1764 -1.0721 -1.0296
 3344TIP3    H234228   1.699   4.813   9.485 -2.1391  0.7083  0.7043
 3345TIP3   OH234229   6.461   1.808   8.142  0.4673 -0.1055  0.0497
 3345TIP3    H134230   6.410   1.854   8.208  0.4931 -0.1202  0.0803
 3345TIP3    H234231   6.471   1.719   8.177 -2.1817 -1.0664 -1.3845
 3346TIP3   OH234232   2.611   4.488   6.915  0.2579  0.5663  0.1916
 3346TIP3    H134233   2.618   4.529   6.829  0.8961 -0.0099 -0.0425
 3346TIP3    H234234   2.595   4.396   6.896  1.6881  0.1904  0.6484
 3347TIP3   OH234235   6.697   2.236   8.794  0.0566 -0.3492  0.6958
 3347TIP3    H134236   6.727   2.317   8.835  0.2512  0.7483 -1.4540
 3347TIP3    H234237   6.601   2.241   8.798 -0.1210  1.8486 -2.4980
 3348TIP3   OH234238   5.524   7.288   8.443  0.5194 -0.2562 -0.3995
 3348TIP3    H134239   5.536   7.360   8.505  1.5064 -0.0996 -0.7575
 3348TIP3    H234240   5.605   7.286   8.392  1.1086 -2.4808  0.4874
 3349TIP3   OH234241   7.235   5.641   7.890  0.4652 -0.7391 -0.3270
 3349TIP3    H134242   7.281   5.722   7.871 -0.4328  0.3271  1.7118
 3349TIP3    H234243   7.150   5.651   7.847  0.1580 -0.3362  0.3525
 3350TIP3   OH234244   3.494   3.728   8.439 -0.1307 -1.2950  0.2448
 3350TIP3    H134245   3.451   3.722   8.524  0.6664 -1.4337  0.6525
 3350TIP3    H234246   3.426   3.758   8.379 -0.3942  0.0152  1.1762
 3351TIP3   OH234247   4.552   4.710   8.291  0.4305 -0.2072 -0.0222
 3351TIP3    H134248   4.499   4.695   8.214  0.6747 -1.5496  0.0528
 3351TIP3    H234249   4.578   4.623   8.321  0.1496  0.2562  1.7121
 3352TIP3   OH234250   1.161   2.438   7.286 -0.4446 -0.0192 -0.8510
 3352TIP3    H134251   1.115   2.422   7.369  3.3223 -4.0852  0.8722
 3352TIP3    H234252   1.244   2.478   7.313  0.2425  0.0049 -2.8890
 3353TIP3   OH234253   5.405   7.677   7.661 -0.3555 -0.1057  0.6810
 3353TIP3    H134254   5.378   7.587   7.644  1.0435 -0.5210  0.5456
 3353TIP3    H234255   5.364   7.728   7.591  2.2048 -1.2583 -1.8706
 3354TIP3   OH234256   1.514   1.243   8.479 -0.4063 -0.0384  0.2447
 3354TIP3    H134257   1.602   1.255   8.514  0.1312 -0.0073 -1.0680
 3354TIP3    H234258   1.485   1.331   8.455 -1.2248  0.0969  1.5850
 3355TIP3   OH234259   5.350   6.219   8.075  0.1209  0.1688 -0.4683
 3355TIP3    H134260   5.340   6.256   7.987 -1.5194  0.4008 -0.2077
 3355TIP3    H234261   5.392   6.134   8.060 -3.0375 -1.2839 -1.8641
 3356TIP3   OH234262   7.197   1.680   8.021 -0.1099  0.1331 -0.2043
 3356TIP3    H134263   7.169   1.771   8.009 -2.1774 -0.2691  1.0302
 3356TIP3    H234264   7.189   1.641   7.934 -0.7250  0.7504 -0.4401
 3357TIP3   OH234265   0.601   7.205   8.776  0.2818 -0.0649  0.0439
 3357TIP3    H134266   0.625   7.227   8.866 -0.7874  0.3079  0.2474
 3357TIP3    H234267   0.621   7.285   8.726  1.4870 -0.4865 -0.1813
 3358TIP3   OH234268   7.237   6.525   6.452 -0.4194  0.4029  0.2436
 3358TIP3    H134269   7.320   6.481   6.431 -0.2329  1.2119 -0.7680
 3358TIP3    H234270   7.179   6.503   6.380 -1.6355 -1.4324  1.6837
 3359TIP3   OH234271   5.423   3.574   7.404  0.3947  0.0205  0.0363
 3359TIP3    H134272   5.459   3.625   7.332 -1.8443 -1.0621 -1.9740
 3359TIP3    H234273   5.397   3.639   7.469 -0.0019  1.2425 -1.2998
 3360TIP3   OH234274   5.691   0.886   7.569  0.0482 -0.1732  0.0034
 3360TIP3    H134275   5.764   0.896   7.509  1.9381  0.7608  2.3144
 3360TIP3    H234276   5.649   0.973   7.571  0.8871  0.2259  1.0732
 3361TIP3   OH234277   4.163   3.900   9.141 -0.5213  0.2173 -0.3727
 3361TIP3    H134278   4.073   3.870   9.127 -0.2121 -0.8065 -0.2665
 3361TIP3    H234279   4.170   3.913   9.235  0.1628 -2.2096 -0.0355
 3362TIP3   OH234280   6.112   3.432   8.040  0.1406  0.3119 -0.0312
 3362TIP3    H134281   6.075   3.410   7.955 -0.7457  0.4486  0.3076
 3362TIP3    H234282   6.036   3.444   8.097  0.7272 -0.1527  0.8722
 3363TIP3   OH234283   3.476   2.126   7.680 -0.0841  0.1076 -0.5084
 3363TIP3    H134284   3.504   2.185   7.749  0.5281 -1.7217  0.9019
 3363TIP3    H234285   3.546   2.129   7.615  1.6729 -1.5164  1.1578
 3364TIP3   OH234286   3.682   6.488   7.333  0.2822  0.3903  0.3122
 3364TIP3    H134287   3.622   6.513   7.262  1.9034 -3.6426 -2.8919
 3364TIP3    H234288   3.769   6.496   7.294  1.2673 -1.5464  1.9828
 3365TIP3   OH234289   6.283   0.415   7.591  0.6094 -0.1855 -0.2022
 3365TIP3    H134290   6.345   0.472   7.545  0.7863 -0.3500 -0.1691
 3365TIP3    H234291   6.228   0.475   7.641  0.6221 -0.0262 -0.3794
 3366TIP3   OH234292   2.169   6.296   7.727  0.5250  0.0315 -0.4654
 3366TIP3    H134293   2.118   6.217   7.744 -2.1486  1.6682 -0.3595
 3366TIP3    H234294   2.125   6.337   7.652  3.2358  0.3302 -2.0076
 3367TIP3   OH234295   2.887   1.916   8.316 -0.0676  0.4859  0.2914
 3367TIP3    H134296   2.858   1.827   8.295  1.4936 -0.7064  2.7427
 3367TIP3    H234297   2.961   1.932   8.257  1.6687 -1.1882  1.8584
 3368TIP3   OH234298   3.229   5.969   8.989  0.0100 -0.3989 -0.5801
 3368TIP3    H134299   3.191   5.965   9.076  0.4952  0.7429 -0.2864
 3368TIP3    H234300   3.156   5.991   8.931 -0.2451 -0.8094 -0.4169
 3369TIP3   OH234301   6.874   4.537   7.162 -0.0290 -0.0278  0.0210
 3369TIP3    H134302   6.902   4.614   7.212 -2.6380  0.6410  0.6222
 3369TIP3    H234303   6.848   4.474   7.229 -0.9524 -0.1820 -0.4685
 3370TIP3   OH234304   7.420   1.335   8.310 -0.3228  0.2331 -0.2778
 3370TIP3    H134305   7.464   1.363   8.229  2.8608  1.2149  1.6307
 3370TIP3    H234306   7.433   1.241   8.313 -0.9050  0.1144 -1.1155
 3371TIP3   OH234307   0.929   2.810   8.428  0.5025 -0.7042  0.1591
 3371TIP3    H134308   0.834   2.815   8.418  0.6363 -0.4533 -1.1783
 3371TIP3    H234309   0.958   2.902   8.424  1.0717 -0.9267 -2.9194
 3372TIP3   OH234310   3.887   4.960   8.379 -0.3785 -0.4036  0.4178
 3372TIP3    H134311   3.921   5.010   8.453  0.5737  0.0362 -0.3117
 3372TIP3    H234312   3.897   4.868   8.406 -0.3239 -0.2430  0.9567
 3373TIP3   OH234313   2.146   2.919   8.917  0.5508 -0.5644 -0.2169
 3373TIP3    H134314   2.052   2.901   8.914  0.3314  0.5801 -0.8796
 3373TIP3    H234315   2.178   2.897   8.830  0.3626  1.6250 -0.8963
 3374TIP3   OH234316   1.386   6.299   8.775  0.5422 -0.4290 -0.1073
 3374TIP3    H134317   1.403   6.383   8.817 -0.3050 -0.1435 -0.3208
 3374TIP3    H234318   1.405   6.234   8.843  0.4847 -0.0341  0.2887
 3375TIP3   OH234319   0.448   6.580   8.769  0.0686  0.2388  0.5379
 3375TIP3    H134320   0.458   6.487   8.752  1.9492  0.1092  1.9671
 3375TIP3    H234321   0.467   6.622   8.685  1.6234 -0.6070  0.4270
 3376TIP3   OH234322   6.902   6.215   9.050  0.2611 -0.2511  0.4753
 3376TIP3    H134323   6.854   6.180   8.975  1.7938 -0.0458 -0.6504
 3376TIP3    H234324   6.852   6.187   9.126 -2.2732  0.9183 -0.6416
 3377TIP3   OH234325   5.364   0.481   8.412 -0.1147  0.1131  0.7021
 3377TIP3    H134326   5.442   0.435   8.443  0.3928  1.7235  1.9546
 3377TIP3    H234327   5.397   0.566   8.381 -1.3073  0.6320  0.7974
 3378TIP3   OH234328   1.814   0.845   8.360 -0.1975  0.1291  0.4792
 3378TIP3    H134329   1.887   0.786   8.375  0.5540  1.1530  1.0083
 3378TIP3    H234330   1.810   0.854   8.264 -0.3239 -0.7619  0.3964
 3379TIP3   OH234331   1.674   3.662   9.149 -0.2616 -0.0305  0.1719
 3379TIP3    H134332   1.757   3.672   9.103  0.4282  1.5945  1.6721
 3379TIP3    H234333   1.654   3.568   9.142  0.4070 -0.0633 -2.2917
 3380TIP3   OH234334   3.020   0.431   6.884  0.1629  0.2386  0.1427
 3380TIP3    H134335   2.938   0.449   6.930 -0.7577 -0.4728 -1.1641
 3380TIP3    H234336   3.053   0.517   6.859 -0.6658  0.4970 -0.0979
 3381TIP3   OH234337   2.465   1.483   7.074 -0.2298 -0.0734  0.4558
 3381TIP3    H134338   2.370   1.488   7.083 -0.2352 -1.9233  1.8211
 3381TIP3    H234339   2.499   1.541   7.142 -0.3932 -0.9409  1.2960
 3382TIP3   OH234340   7.634   4.416   8.284  0.1867 -0.2710 -0.1567
 3382TIP3    H134341   7.663   4.390   8.197  0.7740 -0.6448  0.1395
 3382TIP3    H234342   7.562   4.356   8.304  0.2149 -0.3465 -0.2830
 3383TIP3   OH234343   0.522   7.485   9.661  0.3945  0.1131 -0.1964
 3383TIP3    H134344   0.427   7.492   9.673  0.4776  1.1493 -0.0854
 3383TIP3    H234345   0.549   7.571   9.630  1.4966  0.2737  1.1001
 3384TIP3   OH234346   7.534   3.945   9.310 -0.1495  0.2086  0.0058
 3384TIP3    H134347   7.573   3.862   9.282  0.3979 -0.5924  2.8002
 3384TIP3    H234348   7.595   4.012   9.278  0.1588 -0.5485 -1.0506
 3385TIP3   OH234349   4.192   0.832   7.370  0.2022 -0.3689 -0.4676
 3385TIP3    H134350   4.267   0.849   7.313 -0.6943  0.7382 -1.3621
 3385TIP3    H234351   4.116   0.851   7.316 -0.6974  0.5406  1.0349
 3386TIP3   OH234352   2.079   3.599   9.492  0.1886 -0.2040 -0.4738
 3386TIP3    H134353   2.170   3.593   9.523 -0.8212 -0.4977  2.6770
 3386TIP3    H234354   2.078   3.680   9.439  2.4342 -0.6584 -1.3274
 3387TIP3   OH234355   1.461   5.052   6.929  0.6637  0.7388  0.2421
 3387TIP3    H134356   1.433   5.030   6.839 -0.9929  0.9470  0.6642
 3387TIP3    H234357   1.457   5.147   6.932  0.2616  0.7128  0.6518
 3388TIP3   OH234358   3.475   3.841   9.023  0.5173  0.1961 -0.7838
 3388TIP3    H134359   3.494   3.933   9.045 -0.5695  0.0059  1.2100
 3388TIP3    H234360   3.560   3.805   8.997  1.3427  1.3223  0.1898
 3389TIP3   OH234361   6.641   4.570   7.513 -0.1174  0.5049 -0.4885
 3389TIP3    H134362   6.603   4.600   7.430 -0.0984 -0.6299 -0.9335
 3389TIP3    H234363   6.724   4.615   7.519  0.0989  0.2438 -1.3459
 3390TIP3   OH234364   1.496   1.400   8.777  0.3473 -0.1836  0.0212
 3390TIP3    H134365   1.460   1.388   8.865 -1.3787 -3.2003 -0.9268
 3390TIP3    H234366   1.583   1.361   8.781 -0.3332 -1.7990  0.1032
 3391TIP3   OH234367   2.528   5.433   7.532  0.6764  0.0382 -0.5994
 3391TIP3    H134368   2.574   5.427   7.448 -0.5376  2.0674 -1.4926
 3391TIP3    H234369   2.437   5.451   7.508 -0.0071 -0.7733  1.1696
 3392TIP3   OH234370   4.633   3.256   7.871  0.5384 -0.0349 -0.4266
 3392TIP3    H134371   4.631   3.307   7.791 -0.7352  0.4437 -0.1119
 3392TIP3    H234372   4.548   3.272   7.912  1.0697 -0.4500  0.9011
 3393TIP3   OH234373   0.553   1.029   8.842 -0.6458  0.2217  0.2244
 3393TIP3    H134374   0.544   1.093   8.913 -1.6721 -0.3172  0.6008
 3393TIP3    H234375   0.629   0.976   8.867 -2.2478 -1.3707  2.1281
 3394TIP3   OH234376   7.013   0.728   8.784  0.0046 -0.4783  0.6073
 3394TIP3    H134377   7.030   0.813   8.743  2.1320 -1.7850 -1.4372
 3394TIP3    H234378   6.981   0.750   8.872  0.1960  2.4198  0.0480
 3395TIP3   OH234379   0.442   0.722   8.609  0.3581 -0.0849  0.4872
 3395TIP3    H134380   0.376   0.787   8.584  0.9894  0.3939  0.0215
 3395TIP3    H234381   0.416   0.642   8.564  0.4997  0.2988 -0.2847
 3396TIP3   OH234382   5.395   0.322   9.103 -0.2122 -0.0229 -0.4786
 3396TIP3    H134383   5.441   0.319   9.187  0.7905  1.5730 -0.9148
 3396TIP3    H234384   5.424   0.404   9.063 -2.2584  0.2892 -1.4890
 3397TIP3   OH234385   7.143   6.888   8.932  0.6473  0.7877  0.3815
 3397TIP3    H134386   7.127   6.845   9.016  2.2539 -1.7315 -0.5013
 3397TIP3    H234387   7.199   6.827   8.884 -1.3463  1.4782 -3.1122
 3398TIP3   OH234388   1.941   1.050   9.403  0.0792 -0.1120 -0.5358
 3398TIP3    H134389   1.998   1.118   9.366 -0.2668  0.6432  0.2993
 3398TIP3    H234390   1.867   1.097   9.440  1.3677 -0.5590  3.0295
 3399TIP3   OH234391   1.673   3.157   8.452 -0.6994  0.4103 -0.7222
 3399TIP3    H134392   1.729   3.139   8.527 -0.4776 -0.5668 -1.1020
 3399TIP3    H234393   1.717   3.115   8.378 -0.4943  2.0619 -1.5715
 3400TIP3   OH234394   1.102   7.647   8.259 -0.0634  0.1247 -0.2257
 3400TIP3    H134395   1.076   7.667   8.349  1.3181  2.7797 -0.3181
 3400TIP3    H234396   1.164   7.716   8.236  0.9842 -1.4719 -2.6434
 3401TIP3   OH234397   2.167   5.835   8.751  0.1690  0.2844 -0.5156
 3401TIP3    H134398   2.192   5.872   8.836 -0.7920 -0.4402  0.0907
 3401TIP3    H234399   2.230   5.874   8.690 -0.1860  2.1720  0.2368
 3402TIP3   OH234400   0.680   6.273   8.975  0.2362  0.0599  0.5589
 3402TIP3    H134401   0.706   6.181   8.970  1.1247  0.3360 -0.4198
 3402TIP3    H234402   0.647   6.285   9.064  0.7727 -1.0377  0.9136
 3403TIP3   OH234403   5.066   6.118   7.252 -0.2422 -0.1161  0.0592
 3403TIP3    H134404   5.082   6.032   7.290 -0.1086 -0.5469 -0.9582
 3403TIP3    H234405   5.033   6.101   7.164  1.3155  0.8686 -0.7714
 3404TIP3   OH234406   1.034   7.520   8.553 -0.4559  0.4443 -0.1024
 3404TIP3    H134407   0.998   7.478   8.632 -0.8832 -0.2763 -0.6717
 3404TIP3    H234408   1.086   7.593   8.587  2.5474 -2.0291  1.1524
 3405TIP3   OH234409   1.396   7.350   7.745  0.4399 -0.4809  0.1212
 3405TIP3    H134410   1.444   7.286   7.797  0.9267 -0.9637 -0.8980
 3405TIP3    H234411   1.307   7.316   7.740  0.7173 -1.1486 -0.4953
 3406TIP3   OH234412   1.733   7.331   8.448  0.0378  0.1774  0.3435
 3406TIP3    H134413   1.777   7.326   8.533 -2.8357  0.3946  1.9611
 3406TIP3    H234414   1.709   7.423   8.438  0.3431  0.1607 -0.7450
 3407TIP3   OH234415   5.903   7.089   9.176  0.2712  0.1949 -0.0494
 3407TIP3    H134416   5.993   7.077   9.208  0.3542 -1.1122 -0.7209
 3407TIP3    H234417   5.898   7.181   9.154  0.9647  0.6288  1.4312
 3408TIP3   OH234418   1.101   2.006   7.678  0.1185  0.1395 -0.2359
 3408TIP3    H134419   1.106   1.919   7.639  1.4762  0.5113 -0.9669
 3408TIP3    H234420   1.159   2.001   7.754 -0.0315  0.3132 -0.1101
 3409TIP3   OH234421   6.263   1.768   7.862  0.0410  0.8199 -0.3264
 3409TIP3    H134422   6.315   1.807   7.932  0.8475 -0.6315 -0.0809
 3409TIP3    H234423   6.307   1.794   7.781  2.8906 -2.5031 -0.0787
 3410TIP3   OH234424   2.867   2.250   7.841 -0.3546  0.4840 -0.0484
 3410TIP3    H134425   2.823   2.211   7.766 -1.3397 -0.0066  0.7510
 3410TIP3    H234426   2.878   2.177   7.903  0.6234  0.8309  0.2035
 3411TIP3   OH234427   5.077   2.356   7.999  0.1240 -0.5676  0.4595
 3411TIP3    H134428   5.045   2.420   8.062  1.4581 -0.5668  1.1626
 3411TIP3    H234429   5.022   2.369   7.921 -1.2584 -0.2820  1.4511
 3412TIP3   OH234430   2.820   6.231   8.938  0.8567 -0.2743  0.2507
 3412TIP3    H134431   2.751   6.233   8.872  0.9784  0.2908  0.1357
 3412TIP3    H234432   2.780   6.187   9.013  0.2666  0.3253  0.2964
 3413TIP3   OH234433   5.267   6.356   8.901 -0.3896  0.2845  0.7771
 3413TIP3    H134434   5.260   6.345   8.806  0.0426  2.6889  0.4068
 3413TIP3    H234435   5.182   6.328   8.935 -1.0058  0.5760 -0.4656
 3414TIP3   OH234436   3.563   4.968   8.017  0.6240 -0.6430 -0.1147
 3414TIP3    H134437   3.646   4.985   7.971  0.4190 -3.1626 -1.5771
 3414TIP3    H234438   3.497   5.012   7.963  0.8455  0.1590  0.2581
 3415TIP3   OH234439   1.932   5.635   7.764  0.1445 -0.1130 -0.3848
 3415TIP3    H134440   1.901   5.556   7.720 -1.1208 -0.0395  0.3328
 3415TIP3    H234441   2.015   5.609   7.804 -0.1577 -1.0276 -0.3261
 3416TIP3   OH234442   3.309   1.497   8.489 -0.0182 -0.0992 -0.0822
 3416TIP3    H134443   3.216   1.479   8.481  0.1117 -0.8567 -0.0191
 3416TIP3    H234444   3.348   1.458   8.411  0.6330 -2.9168  1.5061
 3417TIP3   OH234445   0.342   5.420   7.847 -0.0156  0.0396 -0.0809
 3417TIP3    H134446   0.282   5.467   7.789 -0.5583 -0.2123  0.2655
 3417TIP3    H234447   0.285   5.379   7.912  0.3569 -1.9642 -0.9717
 3418TIP3   OH234448   6.575   1.439   7.735 -0.4272  0.3204 -0.2930
 3418TIP3    H134449   6.484   1.469   7.738 -0.4191  0.3450 -0.2923
 3418TIP3    H234450   6.570   1.346   7.756 -0.2618  0.7018  1.6068
 3419TIP3   OH234451   2.812   4.550   8.977 -0.3109  0.4315  0.1640
 3419TIP3    H134452   2.732   4.567   8.928 -0.5197  0.4416  0.5116
 3419TIP3    H234453   2.882   4.559   8.912 -0.7178 -1.5237 -0.6059
 3420TIP3   OH234454   7.431   2.002   7.866  0.4362 -0.2228 -0.2202
 3420TIP3    H134455   7.480   1.931   7.906 -0.7284 -0.7909  0.2460
 3420TIP3    H234456   7.363   1.959   7.814  0.1845  0.5368 -0.5482
 3421TIP3   OH234457   6.406   4.258   7.522 -0.1929 -0.1793 -0.6675
 3421TIP3    H134458   6.416   4.164   7.504 -0.0191  0.1543 -2.4828
 3421TIP3    H234459   6.372   4.295   7.440 -0.5185  1.3120  0.1024
 3422TIP3   OH234460   1.320   5.113   9.451  0.2537 -0.3798 -0.3988
 3422TIP3    H134461   1.415   5.127   9.449  0.3884 -1.0071  0.6927
 3422TIP3    H234462   1.293   5.122   9.360  1.2843  0.3067 -0.6583
 3423TIP3   OH234463   4.327   7.583   8.021 -0.0471 -0.5025 -0.9568
 3423TIP3    H134464   4.350   7.501   8.064 -0.7179 -0.9215 -1.3805
 3423TIP3    H234465   4.403   7.603   7.966  0.8317  0.0605  0.4264
 3424TIP3   OH234466   1.263   5.040   7.139  0.4847 -0.4791  0.7468
 3424TIP3    H134467   1.310   5.007   7.215  1.7536 -1.0599 -0.2530
 3424TIP3    H234468   1.307   5.000   7.064 -1.6334 -1.0937 -0.2602
 3425TIP3   OH234469   3.077   1.631   8.749  0.4857  0.0878  0.1170
 3425TIP3    H134470   3.008   1.655   8.688  0.6207 -2.6659 -1.2912
 3425TIP3    H234471   3.115   1.715   8.777 -1.2980  1.5345 -1.5327
 3426TIP3   OH234472   5.497   2.691   8.668 -0.0872 -0.2229  0.8428
 3426TIP3    H134473   5.410   2.654   8.651 -0.8181  1.1754  1.3975
 3426TIP3    H234474   5.481   2.768   8.722  1.5229 -0.0173  1.0952
 3427TIP3   OH234475   5.195   6.968   8.163  0.4567  0.3335  0.6827
 3427TIP3    H134476   5.189   7.017   8.081 -0.3934  0.3741  0.7552
 3427TIP3    H234477   5.241   7.027   8.223  1.2508  0.2259  0.1856
 3428TIP3   OH234478   7.602   2.260   8.914 -0.0212  0.0654 -0.1694
 3428TIP3    H134479   7.519   2.266   8.867  0.6099 -1.0176 -1.5026
 3428TIP3    H234480   7.589   2.190   8.978 -1.0393  1.8583  1.7492
 3429TIP3   OH234481   4.701   0.749   7.657  0.0837 -0.6794 -0.3725
 3429TIP3    H134482   4.635   0.762   7.589 -1.7996 -0.9162  1.3027
 3429TIP3    H234483   4.716   0.654   7.658 -0.8021 -0.8262  0.3079
 3430TIP3   OH234484   1.320   5.512   8.269 -0.0826  0.6854 -0.5013
 3430TIP3    H134485   1.269   5.554   8.338  0.4519  1.9566 -0.8397
 3430TIP3    H234486   1.336   5.424   8.301 -1.5159  0.6241  0.1012
 3431TIP3   OH234487   4.026   5.581   7.064  0.1236  1.1307 -0.5850
 3431TIP3    H134488   3.937   5.568   7.097 -0.1657 -0.0941 -1.7570
 3431TIP3    H234489   4.059   5.657   7.113 -1.8294  2.1115 -0.6816
 3432TIP3   OH234490   4.212   0.583   8.758 -0.2498  0.3018  0.6281
 3432TIP3    H134491   4.195   0.650   8.824 -0.1072  0.9999 -0.0321
 3432TIP3    H234492   4.126   0.547   8.736 -0.2707 -0.1281  1.3825
 3433TIP3   OH234493   3.448   4.678   7.816 -0.0503 -0.0875 -0.0560
 3433TIP3    H134494   3.375   4.731   7.845 -0.0238  0.2385 -0.5810
 3433TIP3    H234495   3.490   4.649   7.897 -1.4646 -1.2933  0.2895
 3434TIP3   OH234496   6.219   0.292   8.385  0.3374 -0.1460 -0.3479
 3434TIP3    H134497   6.164   0.214   8.384 -0.2111  0.2277  0.4063
 3434TIP3    H234498   6.158   0.365   8.393  0.7801  0.4405 -1.9852
 3435TIP3   OH234499   2.320   4.686   9.421  0.0617 -0.0999  0.1555
 3435TIP3    H134500   2.399   4.739   9.424  0.5186 -0.7904  2.1804
 3435TIP3    H234501   2.350   4.597   9.442 -1.0035 -0.7488 -0.8885
 3436TIP3   OH234502   4.785   1.451   7.922 -0.9330  0.4468 -0.1762
 3436TIP3    H134503   4.793   1.544   7.901  0.5133  0.2320 -0.7163
 3436TIP3    H234504   4.758   1.410   7.839 -0.1646  0.2218 -0.3225
 3437TIP3   OH234505   3.522   3.014   9.629 -0.1274  0.4023  0.2776
 3437TIP3    H134506   3.537   3.109   9.624 -0.0528  0.3396 -1.0036
 3437TIP3    H234507   3.571   2.978   9.555 -0.4948 -0.5985  0.5083
 3438TIP3   OH234508   0.853   1.165   6.964 -0.6690 -0.6777 -0.1501
 3438TIP3    H134509   0.924   1.226   6.943 -0.7387  0.1557  1.7430
 3438TIP3    H234510   0.795   1.168   6.889  1.2912 -1.4182 -1.7765
 3439TIP3   OH234511   6.828   1.965   8.769  0.1385  0.0572 -0.5273
 3439TIP3    H134512   6.827   1.964   8.674 -1.1269  0.9087 -0.5502
 3439TIP3    H234513   6.803   2.054   8.793 -0.7797 -0.4630  0.5908
 3440TIP3   OH234514   0.195   2.736   7.320 -0.1274  0.3461  0.8987
 3440TIP3    H134515   0.261   2.691   7.268  0.8329  1.1749  1.3793
 3440TIP3    H234516   0.127   2.670   7.335  0.0772 -0.2028 -0.5011
 3441TIP3   OH234517   1.292   4.416   6.302  0.6656  0.5773 -0.2697
 3441TIP3    H134518   1.309   4.323   6.292  0.0138  0.5329 -1.0102
 3441TIP3    H234519   1.334   4.439   6.385  2.5456  0.0611 -1.0441
 3442TIP3   OH234520   3.884   1.099   8.838 -0.0439 -0.0412  0.6902
 3442TIP3    H134521   3.887   1.189   8.806 -1.6595 -0.2434 -0.1191
 3442TIP3    H234522   3.938   1.050   8.777  0.2235  0.2414  0.6942
 3443TIP3   OH234523   0.286   5.872   9.336  0.3942  0.3855  0.0817
 3443TIP3    H134524   0.200   5.913   9.327 -0.3061 -0.8187  0.8668
 3443TIP3    H234525   0.293   5.853   9.430  0.3715 -1.8244 -0.3024
 3444TIP3   OH234526   6.690   6.875   8.560 -0.2058  0.2087  0.1485
 3444TIP3    H134527   6.768   6.841   8.603  0.1586  0.5975 -0.2020
 3444TIP3    H234528   6.720   6.952   8.511 -0.2334 -1.1994 -2.2585
 3445TIP3   OH234529   4.207   4.836   9.463 -0.7231  0.1160  0.1638
 3445TIP3    H134530   4.120   4.803   9.444 -0.3014 -0.1526 -1.4662
 3445TIP3    H234531   4.216   4.914   9.408  0.3769 -0.3663 -0.3629
 3446TIP3   OH234532   0.662   5.217   8.174  0.3612 -0.2035  0.1279
 3446TIP3    H134533   0.568   5.238   8.167  0.1961 -1.2978 -1.2668
 3446TIP3    H234534   0.685   5.244   8.263 -1.2454  0.2083  0.4635
 3447TIP3   OH234535   6.953   1.236   9.449 -0.3430 -0.1518 -0.0852
 3447TIP3    H134536   6.999   1.185   9.516 -1.8372 -0.6308  0.6337
 3447TIP3    H234537   6.931   1.171   9.382 -1.7739 -0.3956  0.5766
 3448TIP3   OH234538   0.251   4.808   8.944 -0.4093 -0.3656 -0.0754
 3448TIP3    H134539   0.219   4.725   8.907 -0.3553  0.1261 -1.2645
 3448TIP3    H234540   0.174   4.845   8.988 -0.4137 -1.0738  0.5339
 3449TIP3   OH234541   6.952   2.442   7.514 -0.5932  0.6389  0.4980
 3449TIP3    H134542   7.037   2.404   7.493 -0.9640  0.3760 -0.6018
 3449TIP3    H234543   6.958   2.463   7.607  0.2892 -0.3814  0.7001
 3450TIP3   OH234544   3.118   6.060   7.823  0.2734 -0.0696 -0.0776
 3450TIP3    H134545   3.119   6.089   7.731  2.6285  0.6618  0.0926
 3450TIP3    H234546   3.074   5.975   7.821 -1.5289  0.8274 -1.5409
 3451TIP3   OH234547   0.472   5.061   6.982  0.0004  0.2042  0.6357
 3451TIP3    H134548   0.496   5.099   6.898  1.6158  0.3452  1.1190
 3451TIP3    H234549   0.431   4.978   6.960 -0.4030  0.6443 -0.3138
 3452TIP3   OH234550   2.948   6.055   7.210  0.5412 -0.1447  0.2706
 3452TIP3    H134551   2.941   5.960   7.220 -0.1308 -0.0701  0.5269
 3452TIP3    H234552   2.969   6.067   7.117  0.2361 -0.5224  0.1497
 3453TIP3   OH234553   4.261   3.275   8.194 -0.1528  0.1312  0.6624
 3453TIP3    H134554   4.316   3.295   8.270 -2.0638  0.4499  2.0674
 3453TIP3    H234555   4.193   3.342   8.196 -2.0257 -1.6630  0.5619
 3454TIP3   OH234556   5.414   2.116   6.563  0.0282 -0.1193 -0.5183
 3454TIP3    H134557   5.467   2.134   6.486 -1.5351 -1.5731 -2.0221
 3454TIP3    H234558   5.364   2.197   6.578 -1.6594 -0.6330 -2.7823
 3455TIP3   OH234559   1.460   4.724   8.280  0.0466 -0.4556  0.2370
 3455TIP3    H134560   1.442   4.664   8.352  0.9884  0.2620  1.1084
 3455TIP3    H234561   1.478   4.667   8.205 -0.3890 -1.2243  0.7007
 3456TIP3   OH234562   0.295   3.180   7.575 -0.0789 -0.3451 -0.2545
 3456TIP3    H134563   0.241   3.100   7.574 -0.7425  0.0939 -0.5524
 3456TIP3    H234564   0.260   3.232   7.503  1.7445 -0.6883 -1.4336
 3457TIP3   OH234565   0.567   3.285   9.143 -0.1826  0.0655  0.6775
 3457TIP3    H134566   0.627   3.264   9.072 -0.7161 -1.7120  0.7019
 3457TIP3    H234567   0.623   3.292   9.220  0.0648 -1.2746  0.6440
 3458TIP3   OH234568   1.888   3.427   9.181  0.1278  0.4002  0.3975
 3458TIP3    H134569   1.914   3.406   9.271 -3.4954  0.6421  1.6540
 3458TIP3    H234570   1.932   3.511   9.162  2.2161 -0.4394  1.2602
 3459TIP3   OH234571   1.794   4.540   9.698 -0.1063  0.5483 -0.2605
 3459TIP3    H134572   1.826   4.518   9.786  0.4010  0.1920 -0.5278
 3459TIP3    H234573   1.723   4.478   9.682  0.0047  0.4070 -0.2188
 3460TIP3   OH234574   3.237   5.814   8.276  0.3951 -0.7572 -0.4465
 3460TIP3    H134575   3.172   5.850   8.336 -0.1785 -1.1038 -0.8491
 3460TIP3    H234576   3.245   5.879   8.206  0.7705 -0.5394 -0.2100
 3461TIP3   OH234577   3.337   7.164   7.106  0.3060 -0.3144 -0.1190
 3461TIP3    H134578   3.312   7.170   7.014  3.4141  1.4138 -0.9801
 3461TIP3    H234579   3.384   7.080   7.113  2.3247  0.6948 -0.8281
 3462TIP3   OH234580   7.577   4.587   9.333 -0.4851  0.1508 -0.1114
 3462TIP3    H134581   7.504   4.585   9.396  0.3647  1.8284  1.0265
 3462TIP3    H234582   7.604   4.496   9.324 -0.9653 -0.2068  1.6223
 3463TIP3   OH234583   0.312   2.557   8.198 -0.0444  1.0650 -0.7695
 3463TIP3    H134584   0.309   2.565   8.294 -1.5871  1.9950 -0.8664
 3463TIP3    H234585   0.386   2.611   8.173 -0.1448  1.5069 -0.1527
 3464TIP3   OH234586   7.101   5.308   6.642  0.1571 -0.1634  0.0935
 3464TIP3    H134587   7.193   5.300   6.618 -0.0384  0.0433 -0.7906
 3464TIP3    H234588   7.063   5.223   6.620  0.6405 -1.2462  3.0232
 3465TIP3   OH234589   4.774   6.485   9.389  0.2790  0.2066 -0.2789
 3465TIP3    H134590   4.702   6.457   9.445  0.0967  0.7314 -0.2504
 3465TIP3    H234591   4.805   6.404   9.349  0.1320 -0.1186  0.2447
 3466TIP3   OH234592   7.029   0.199   8.882  0.1275  0.1028  0.7455
 3466TIP3    H134593   7.052   0.179   8.791 -0.8140  0.8076  0.3367
 3466TIP3    H234594   7.106   0.246   8.916 -0.1685  1.3532 -0.2305
 3467TIP3   OH234595   6.542   5.257   7.265 -0.2030 -0.9531  0.0294
 3467TIP3    H134596   6.469   5.266   7.327 -0.6495  0.2856 -0.6454
 3467TIP3    H234597   6.510   5.194   7.200 -0.5462 -0.6512 -0.0952
 3468TIP3   OH234598   5.407   7.386   9.188  0.3335  0.1306  0.5555
 3468TIP3    H134599   5.318   7.367   9.217  0.3961 -0.0276  0.6484
 3468TIP3    H234600   5.452   7.302   9.194  0.6481  0.3313  1.0913
 3469TIP3   OH234601   0.120   0.775   9.454  0.1932  0.0851  0.0739
 3469TIP3    H134602   0.155   0.687   9.468  0.0571 -0.1492 -1.0052
 3469TIP3    H234603   0.191   0.824   9.413  0.0402  0.2852  0.0444
 3470TIP3   OH234604   4.832   4.004   7.820 -0.3504 -0.4088  0.3920
 3470TIP3    H134605   4.861   3.949   7.748  0.2350  0.3031  0.0674
 3470TIP3    H234606   4.738   3.987   7.828 -0.9597  1.2475 -2.1303
 3471TIP3   OH234607   2.951   2.803   8.626 -0.5421 -0.2526 -0.3541
 3471TIP3    H134608   3.036   2.768   8.597  0.2956  0.0375  1.5807
 3471TIP3    H234609   2.906   2.727   8.663 -1.1706 -0.4149 -1.4237
 3472TIP3   OH234610   1.114   4.673   7.440 -0.0577  0.2940  0.0105
 3472TIP3    H134611   1.124   4.757   7.484 -0.6004  0.3510  0.0297
 3472TIP3    H234612   1.204   4.641   7.428  0.0975  0.2062  1.2924
 3473TIP3   OH234613   3.410   2.835   8.571 -0.8547  0.5348  0.1983
 3473TIP3    H134614   3.416   2.747   8.534  0.1460 -0.0165  1.6112
 3473TIP3    H234615   3.368   2.887   8.502  0.5006 -0.5573 -1.5380
 3474TIP3   OH234616   2.421   2.722   7.363 -0.3735  0.4163 -0.2948
 3474TIP3    H134617   2.347   2.666   7.390  1.3917 -2.1239 -0.3466
 3474TIP3    H234618   2.459   2.676   7.288  1.6050  1.3151  0.1083
 3475TIP3   OH234619   2.930   0.024   8.726 -0.3894  0.4627  0.4581
 3475TIP3    H134620   2.987   0.099   8.711 -0.5950  0.7029  0.8550
 3475TIP3    H234621   2.944   0.001   8.818 -0.9912  0.5765  0.5804
 3476TIP3   OH234622   1.174   7.486   7.083 -0.0202  0.3497 -0.1335
 3476TIP3    H134623   1.094   7.521   7.122  0.2049 -0.7802  1.4132
 3476TIP3    H234624   1.209   7.558   7.031 -1.7956  1.0134 -0.4811
 3477TIP3   OH234625   0.977   6.153   7.695  0.2089 -0.8019 -0.1948
 3477TIP3    H134626   0.963   6.167   7.601 -1.3398 -0.8638  0.0020
 3477TIP3    H234627   0.934   6.228   7.737 -1.4525 -2.1211  0.5584
 3478TIP3   OH234628   5.421   0.721   8.267 -0.6793  1.1770  0.1801
 3478TIP3    H134629   5.350   0.778   8.296 -1.5732  0.6767 -0.9196
 3478TIP3    H234630   5.490   0.732   8.333 -0.5552  3.9699 -0.2722
 3479TIP3   OH234631   2.372   5.060   9.014 -0.1795 -0.0157 -0.6522
 3479TIP3    H134632   2.427   5.133   8.986  2.2364 -1.8982 -1.1043
 3479TIP3    H234633   2.372   5.065   9.110  0.8358 -0.0128 -0.6449
 3480TIP3   OH234634   5.270   6.841   6.940 -0.3919  0.4126 -0.0474
 3480TIP3    H134635   5.232   6.826   6.854 -0.0832  0.3578 -0.1743
 3480TIP3    H234636   5.297   6.755   6.970 -2.8874 -0.0170  1.2547
 3481TIP3   OH234637   6.854   6.601   7.855 -0.0835  0.2448 -0.0382
 3481TIP3    H134638   6.858   6.585   7.760  1.2740  1.8287 -0.2982
 3481TIP3    H234639   6.847   6.514   7.893 -1.0406 -0.4060 -1.6022
 3482TIP3   OH234640   4.743   0.963   8.167 -0.0189  0.1899  0.2830
 3482TIP3    H134641   4.719   0.893   8.107  0.1371 -0.2003  0.6650
 3482TIP3    H234642   4.839   0.962   8.168  0.0576  1.6914 -1.1782
 3483TIP3   OH234643   6.133   4.018   7.670  0.0117  0.4515  0.2783
 3483TIP3    H134644   6.176   4.073   7.604  0.2435  1.5330  1.2924
 3483TIP3    H234645   6.136   4.070   7.750 -0.7530 -0.6052  1.0233
 3484TIP3   OH234646   2.193   2.911   8.644 -0.2065  0.3855  0.0899
 3484TIP3    H134647   2.169   2.919   8.552  1.2461 -0.4340 -0.3960
 3484TIP3    H234648   2.266   2.849   8.645 -1.2005 -0.8744  1.9578
 3485TIP3   OH234649   2.890   3.885   8.503  0.3496 -0.3284 -0.1447
 3485TIP3    H134650   2.882   3.977   8.527 -0.3049 -0.6518  0.9529
 3485TIP3    H234651   2.821   3.871   8.437 -0.3826 -0.3085  0.5976
 3486TIP3   OH234652   5.337   6.409   9.495 -0.2269  0.2303  0.0067
 3486TIP3    H134653   5.317   6.503   9.490 -0.3734  0.1581 -0.8735
 3486TIP3    H234654   5.267   6.373   9.550 -1.0935  0.4043 -0.9327
 3487TIP3   OH234655   7.062   5.598   8.943 -0.3248  0.6141  0.5682
 3487TIP3    H134656   7.066   5.612   8.849 -0.9434  0.1661  0.4675
 3487TIP3    H234657   7.029   5.509   8.953  0.2111  0.4764  1.2090
 3488TIP3   OH234658   6.645   6.248   7.593 -0.2600  0.4917  0.4815
 3488TIP3    H134659   6.619   6.296   7.672 -1.1754 -0.8991  1.0887
 3488TIP3    H234660   6.693   6.172   7.627 -0.4900 -0.0133 -0.2991
 3489TIP3   OH234661   4.372   1.518   8.954  0.1794  0.0820 -0.6508
 3489TIP3    H134662   4.294   1.465   8.972  0.3211 -0.7136 -2.2168
 3489TIP3    H234663   4.338   1.603   8.926 -0.0743  0.2746  0.1982
 3490TIP3   OH234664   3.643   2.863   7.649 -0.2296 -0.4865 -0.2516
 3490TIP3    H134665   3.653   2.955   7.671  0.4261 -0.4336 -0.7307
 3490TIP3    H234666   3.556   2.839   7.681  0.6687 -0.4658  2.4744
 3491TIP3   OH234667   3.192   6.992   8.491 -0.8875  0.3229 -0.1455
 3491TIP3    H134668   3.229   6.910   8.459 -0.6425  0.4314 -0.1425
 3491TIP3    H234669   3.098   6.986   8.470 -0.7710  0.3012 -0.6926
 3492TIP3   OH234670   5.485   5.973   9.507  0.1219 -0.1174 -0.1790
 3492TIP3    H134671   5.418   5.973   9.576 -0.1146 -1.1239 -0.3938
 3492TIP3    H234672   5.495   5.880   9.483  1.3902  0.0441 -0.3493
 3493TIP3   OH234673   0.629   4.381   9.498  0.2300 -0.2276 -0.3711
 3493TIP3    H134674   0.626   4.376   9.594 -4.0819  2.2925 -0.1399
 3493TIP3    H234675   0.564   4.319   9.468  0.1736  0.3611 -1.5481
 3494TIP3   OH234676   1.249   5.637   9.306 -0.1321  0.1654  0.4672
 3494TIP3    H134677   1.200   5.688   9.242 -0.2385 -0.1025  0.3358
 3494TIP3    H234678   1.187   5.571   9.337 -0.6307  1.3101  2.0646
 3495TIP3   OH234679   5.189   1.201   9.111 -0.0639  0.0818  0.6705
 3495TIP3    H134680   5.164   1.288   9.082  0.9767 -0.2248 -1.3172
 3495TIP3    H234681   5.115   1.145   9.086  0.6913 -0.1254 -1.2611
 3496TIP3   OH234682   3.641   6.508   7.820 -0.0256  0.3183  0.8379
 3496TIP3    H134683   3.687   6.459   7.751 -1.4318  1.2898 -0.9010
 3496TIP3    H234684   3.550   6.509   7.790 -0.5128  1.5721  2.2751
 3497TIP3   OH234685   5.081   0.320   7.577 -0.1517  0.2886  0.0601
 3497TIP3    H134686   5.108   0.340   7.666 -3.2466  1.9621  0.7821
 3497TIP3    H234687   5.084   0.404   7.531 -2.1043  0.2371 -0.2681
 3498TIP3   OH234688   2.823   1.193   9.310  0.1876 -0.3462  0.6230
 3498TIP3    H134689   2.776   1.136   9.249  0.6332 -0.0113 -0.0489
 3498TIP3    H234690   2.759   1.212   9.379 -0.6548  0.0403 -0.2391
 3499TIP3   OH234691   2.029   5.868   8.166 -0.6599 -0.0756 -0.6580
 3499TIP3    H134692   2.002   5.854   8.075 -1.1330  0.2558 -0.5756
 3499TIP3    H234693   1.999   5.956   8.187  1.1221  0.5795 -0.7592
 3500TIP3   OH234694   1.510   3.261   7.267  0.2965 -0.1579  0.8969
 3500TIP3    H134695   1.525   3.166   7.264  0.1380 -0.2022  1.5317
 3500TIP3    H234696   1.585   3.296   7.315  1.4393  0.2825 -1.0889
 3501TIP3   OH234697   1.181   6.235   7.922  0.2471  0.1305  0.3706
 3501TIP3    H134698   1.181   6.314   7.976  0.5665  1.0534 -0.9328
 3501TIP3    H234699   1.116   6.253   7.854  0.0223 -0.9060  0.2998
 3502TIP3   OH234700   0.078   5.615   8.822 -0.4226  0.3944  0.5477
 3502TIP3    H134701   0.052   5.586   8.909  0.2602  1.5658  1.1609
 3502TIP3    H234702   0.073   5.710   8.825  0.4026  0.4963 -0.4342
 3503TIP3   OH234703   3.882   2.312   7.433  0.0823  0.1995 -0.3249
 3503TIP3    H134704   3.881   2.219   7.409 -0.6734  0.2885 -0.6490
 3503TIP3    H234705   3.972   2.328   7.462  0.1430 -0.7057  0.0179
 3504TIP3   OH234706   3.300   1.110   8.638  0.2639  0.4487 -0.4831
 3504TIP3    H134707   3.213   1.110   8.598 -0.6825 -0.7812  1.4476
 3504TIP3    H234708   3.306   1.195   8.682 -1.3245 -0.6524  2.0359
 3505TIP3   OH234709   2.660   6.373   7.123  0.2784  0.1361 -0.1918
 3505TIP3    H134710   2.737   6.352   7.070  0.8679 -0.1092  0.7393
 3505TIP3    H234711   2.634   6.460   7.094  0.8443  0.1789 -0.5939
 3506TIP3   OH234712   3.933   6.049   6.922  0.2200  0.5437  0.2640
 3506TIP3    H134713   3.969   6.036   7.010  0.4182  0.6791  0.2054
 3506TIP3    H234714   4.009   6.043   6.864 -0.0260 -0.3290  0.0290
 3507TIP3   OH234715   5.254   6.483   7.964  0.1376 -0.1046  0.5376
 3507TIP3    H134716   5.331   6.508   8.015  0.4516  2.4432 -1.0102
 3507TIP3    H234717   5.180   6.508   8.020  0.4353 -0.2255  0.9965
 3508TIP3   OH234718   3.828   0.437   7.318 -0.1548 -0.1278 -0.0152
 3508TIP3    H134719   3.745   0.390   7.319 -0.4387  0.3692  0.1773
 3508TIP3    H234720   3.808   0.520   7.273  0.3194 -0.1621 -0.2899
 3509TIP3   OH234721   6.873   2.043   8.502 -0.2602  0.1923  0.6793
 3509TIP3    H134722   6.901   2.132   8.482 -1.8246  0.7934  1.0111
 3509TIP3    H234723   6.827   2.014   8.423 -0.1500 -0.1591  0.7415
 3510TIP3   OH234724   4.487   7.208   8.298  0.4283  1.2077 -0.0958
 3510TIP3    H134725   4.441   7.187   8.380  0.4066 -1.3999 -0.6668
 3510TIP3    H234726   4.579   7.190   8.316  0.5999  1.8810 -0.2827
 3511TIP3   OH234727   2.849   6.626   8.919  0.3043  0.1027 -0.1482
 3511TIP3    H134728   2.932   6.664   8.889 -0.5638  0.8970 -1.6532
 3511TIP3    H234729   2.817   6.576   8.844 -0.5230 -0.2894  0.4567
 3512TIP3   OH234730   3.056   4.447   9.341 -0.0898  0.2163  0.4586
 3512TIP3    H134731   2.965   4.475   9.339 -0.4808 -1.0441 -0.5775
 3512TIP3    H234732   3.052   4.352   9.355  1.1480  0.4379  2.6951
 3513TIP3   OH234733   5.437   5.454   9.290  0.1148  0.2458 -0.3380
 3513TIP3    H134734   5.357   5.436   9.241  0.1403 -1.6681  0.2286
 3513TIP3    H234735   5.469   5.367   9.316  1.7313  1.0335  0.4623
 3514TIP3   OH234736   2.222   7.506   9.370 -0.3113  0.6945 -0.3059
 3514TIP3    H134737   2.239   7.451   9.294 -1.1851  0.4690 -0.3531
 3514TIP3    H234738   2.237   7.596   9.339 -2.0803  0.7180 -1.1844
 3515TIP3   OH234739   3.729   0.073   8.723 -0.4742 -0.5637 -0.3789
 3515TIP3    H134740   3.753  -0.008   8.769  1.5851 -0.1168 -0.6069
 3515TIP3    H234741   3.732   0.049   8.630 -1.9669 -0.7445 -0.4127
 3516TIP3   OH234742   4.155   0.812   8.341  0.1431 -0.6724 -0.0948
 3516TIP3    H134743   4.192   0.863   8.269  0.4156 -1.3737 -0.4646
 3516TIP3    H234744   4.211   0.833   8.416  0.9823 -1.3115 -0.5225
 3517TIP3   OH234745   4.234   2.875   8.745 -0.2391  0.2093  0.0390
 3517TIP3    H134746   4.224   2.959   8.700 -0.5809 -1.8816 -4.3589
 3517TIP3    H234747   4.145   2.853   8.775 -1.0661 -0.2549 -2.4861
 3518TIP3   OH234748   4.860   1.029   7.533 -0.3254 -0.0905 -0.4231
 3518TIP3    H134749   4.936   1.079   7.504 -0.2633  1.6380  2.3863
 3518TIP3    H234750   4.812   1.089   7.590 -1.5638 -2.4905  1.2273
 3519TIP3   OH234751   3.642   1.866   8.708  0.5643 -0.2775  0.7762
 3519TIP3    H134752   3.582   1.792   8.708 -0.4104  0.4264 -1.1171
 3519TIP3    H234753   3.585   1.943   8.717  1.2527  0.3463  0.0136
 3520TIP3   OH234754   0.991   6.954   8.132 -0.3899  0.2065 -0.2951
 3520TIP3    H134755   1.004   6.902   8.053 -2.1239 -1.0978  0.2310
 3520TIP3    H234756   1.026   6.900   8.203 -1.7656 -0.0765  0.1976
 3521TIP3   OH234757   6.731   6.860   7.842 -0.6724  0.2804 -0.5974
 3521TIP3    H134758   6.759   6.769   7.849  1.0588  0.7348 -1.1236
 3521TIP3    H234759   6.761   6.901   7.924 -2.1215  0.2469 -0.0127
 3522TIP3   OH234760   5.116   5.438   9.506 -0.5536 -0.0927  0.2493
 3522TIP3    H134761   5.064   5.480   9.575 -1.6052 -1.0253  0.0566
 3522TIP3    H234762   5.053   5.420   9.436  0.5408  1.0764 -1.1060
 3523TIP3   OH234763   3.920   1.548   9.276  0.0239  0.3503 -0.0428
 3523TIP3    H134764   3.836   1.594   9.267  0.4517  0.9724 -1.1314
 3523TIP3    H234765   3.961   1.587   9.353 -1.3559 -1.1152  1.5335
 3524TIP3   OH234766   0.766   3.983   7.042 -0.1389 -0.3433  0.3394
 3524TIP3    H134767   0.784   4.020   6.956  1.7795 -1.0054  0.4084
 3524TIP3    H234768   0.804   4.046   7.103  0.4590 -0.9194  0.5801
 3525TIP3   OH234769   7.446   2.756   9.306  0.2167 -0.0548  0.0539
 3525TIP3    H134770   7.388   2.769   9.381  0.0725  0.0019 -0.0652
 3525TIP3    H234771   7.399   2.695   9.249 -1.1975  2.3126 -1.5247
 3526TIP3   OH234772   0.107   4.575   7.054 -0.2557  1.0044 -0.3618
 3526TIP3    H134773   0.159   4.561   6.975  0.3911  0.8001  0.0917
 3526TIP3    H234774   0.167   4.553   7.126 -1.4214 -0.7493  0.1371
 3527TIP3   OH234775   4.320   7.146   8.499  0.4859  0.1012 -0.0845
 3527TIP3    H134776   4.277   7.221   8.539  1.9034  0.6782  0.4293
 3527TIP3    H234777   4.353   7.095   8.573  0.4975 -0.4408 -0.4562
 3528TIP3   OH234778   5.262   7.233   8.932 -0.2120  0.3935  0.0757
 3528TIP3    H134779   5.314   7.153   8.945  0.2764  0.9889  2.1749
 3528TIP3    H234780   5.314   7.285   8.870 -0.4582 -0.8079 -1.1925
 3529TIP3   OH234781   4.391   1.195   9.106  0.3916 -0.1455 -0.2662
 3529TIP3    H134782   4.440   1.135   9.162  0.0427 -0.1282  0.0577
 3529TIP3    H234783   4.316   1.221   9.158 -0.2612 -0.5975 -0.9645
 3530TIP3   OH234784   7.118   6.590   7.004 -0.4008 -0.4007 -0.1006
 3530TIP3    H134785   7.074   6.666   6.967 -1.0153  1.0753  3.2877
 3530TIP3    H234786   7.209   6.600   6.978 -0.2460  2.1912  1.1393
 3531TIP3   OH234787   3.930   2.117   9.220 -0.0431 -0.3766 -0.1345
 3531TIP3    H134788   3.895   2.056   9.285 -1.3824 -0.0870 -0.5663
 3531TIP3    H234789   3.907   2.079   9.136 -4.1694  2.3322 -0.5206
 3532TIP3   OH234790   7.261   2.513   8.488  0.2521 -0.3194 -0.7027
 3532TIP3    H134791   7.210   2.484   8.564  0.7688 -1.0382 -0.6222
 3532TIP3    H234792   7.352   2.504   8.516  0.4797 -1.4993 -1.7254
 3533TIP3   OH234793   6.649   4.406   6.710  0.3970  0.3200  0.5363
 3533TIP3    H134794   6.692   4.331   6.670 -1.4453 -0.6432  0.2312
 3533TIP3    H234795   6.648   4.473   6.643 -2.0175 -1.0296 -0.9316
 3534TIP3   OH234796   5.538   4.175   9.207 -0.4971 -0.3198  0.0883
 3534TIP3    H134797   5.562   4.260   9.243 -0.6573 -0.4569  0.5256
 3534TIP3    H234798   5.613   4.150   9.153 -0.6386  0.2957 -0.3995
 3535TIP3   OH234799   1.601   0.934   9.333  0.4188  0.3808  0.0962
 3535TIP3    H134800   1.625   1.004   9.271 -1.1600  0.2996 -0.6669
 3535TIP3    H234801   1.615   0.973   9.419  1.5459  0.9048 -0.3032
 3536TIP3   OH234802   0.018   3.936   7.379 -0.2055  0.5320 -0.3147
 3536TIP3    H134803  -0.018   4.024   7.367  1.9765  1.3856 -1.0250
 3536TIP3    H234804  -0.040   3.879   7.329 -1.2698  1.6440 -0.3959
 3537TIP3   OH234805   0.566   4.908   7.787 -0.6845  0.1432 -0.2687
 3537TIP3    H134806   0.505   4.972   7.823  0.7643  1.8467 -0.7511
 3537TIP3    H234807   0.623   4.958   7.729  0.1865 -1.6797 -1.0679
 3538TIP3   OH234808   0.672   0.975   9.641  0.2822  0.3143  0.5358
 3538TIP3    H134809   0.646   1.035   9.571 -3.4391 -0.0025  1.4507
 3538TIP3    H234810   0.768   0.980   9.642  0.5136  1.0962 -3.8231
 3539TIP3   OH234811   6.406   3.228   7.517 -0.4018 -0.4382  0.0106
 3539TIP3    H134812   6.480   3.167   7.525  0.8997  0.9791 -0.6639
 3539TIP3    H234813   6.431   3.287   7.446 -1.9893  0.3806  0.0873
 3540TIP3   OH234814   6.984   2.715   7.223 -0.0176  0.3031 -0.1246
 3540TIP3    H134815   7.008   2.625   7.243  1.0208  0.8019  0.9471
 3540TIP3    H234816   6.973   2.716   7.128 -1.7594 -1.3461 -0.0036
 3541TIP3   OH234817   0.181   6.337   9.041 -0.6334  0.1336  0.1977
 3541TIP3    H134818   0.192   6.429   9.018  0.6429  0.1545  0.8013
 3541TIP3    H234819   0.188   6.335   9.136 -0.8364 -0.5668  0.2052
 3542TIP3   OH234820   6.684   2.244   9.101  0.6065  0.2810 -0.1567
 3542TIP3    H134821   6.666   2.331   9.065 -0.1499  0.9936  1.7603
 3542TIP3    H234822   6.637   2.184   9.044 -0.7643  1.3723 -0.2391
 3543TIP3   OH234823   1.945   4.707   6.910 -0.2472 -0.1603 -0.6130
 3543TIP3    H134824   1.967   4.750   6.828  0.6635  0.0277 -0.2842
 3543TIP3    H234825   1.957   4.774   6.977  1.7868 -1.0328 -0.0262
 3544TIP3   OH234826   5.454   1.211   9.497 -0.2178  0.1239  0.1804
 3544TIP3    H134827   5.429   1.235   9.586 -0.0278 -0.1939  0.3208
 3544TIP3    H234828   5.549   1.202   9.501 -0.0850  1.1256 -0.3011
 3545TIP3   OH234829   7.454   4.727   8.632  0.5333 -0.1128  0.0809
 3545TIP3    H134830   7.370   4.765   8.607  1.5736  0.0616 -3.8749
 3545TIP3    H234831   7.483   4.779   8.707 -1.9470  1.0934  0.3007
 3546TIP3   OH234832   0.842   4.580   7.892 -0.5826  0.1711 -0.1709
 3546TIP3    H134833   0.886   4.496   7.875 -0.8100 -0.0321  0.2297
 3546TIP3    H234834   0.777   4.560   7.959 -0.6281  0.6753 -0.0609
 3547TIP3   OH234835   2.720   5.991   7.546  0.1427  0.4859 -0.5652
 3547TIP3    H134836   2.716   6.082   7.517  0.7723  1.0234  0.9039
 3547TIP3    H234837   2.797   5.955   7.503 -1.8299 -0.3588 -3.6618
 3548TIP3   OH234838   1.167   4.894   7.612  0.0143  0.2133 -0.6883
 3548TIP3    H134839   1.084   4.873   7.655  0.1046  0.5816 -0.3290
 3548TIP3    H234840   1.216   4.944   7.677  1.7989 -2.5623  0.2827
 3549TIP3   OH234841   1.152   6.602   8.076  0.4787 -0.4585  0.1017
 3549TIP3    H134842   1.173   6.636   8.163  0.1045  0.6132 -0.2084
 3549TIP3    H234843   1.237   6.585   8.035  0.7018  0.8842 -0.0218
 3550TIP3   OH234844   2.613   1.673   8.436  0.0660  0.1586 -0.2060
 3550TIP3    H134845   2.708   1.670   8.447  0.2349 -1.2469 -1.6424
 3550TIP3    H234846   2.594   1.602   8.374 -1.5476  2.3407 -2.4212
 3551TIP3   OH234847   3.298   1.311   8.271 -0.7014  0.4308  0.0789
 3551TIP3    H134848   3.328   1.336   8.183 -0.8353  0.8231  0.1434
 3551TIP3    H234849   3.204   1.326   8.269 -0.6028  1.1845  0.5273
 3552TIP3   OH234850   6.684   4.682   7.841 -0.6162 -0.1803  0.4508
 3552TIP3    H134851   6.592   4.673   7.816 -0.4375  0.6272 -0.5531
 3552TIP3    H234852   6.726   4.724   7.765  0.4683 -0.0271  1.1123
 3553TIP3   OH234853   4.909   0.197   7.743  0.2682  0.2336  0.1710
 3553TIP3    H134854   4.985   0.163   7.789  1.4834  0.8403 -1.2696
 3553TIP3    H234855   4.944   0.226   7.658 -1.7398 -0.3179 -0.9036
 3554TIP3   OH234856   2.582   1.876   7.491  0.4205 -0.1010 -0.0752
 3554TIP3    H134857   2.612   1.954   7.445  0.2326 -0.8299 -1.4905
 3554TIP3    H234858   2.634   1.805   7.453 -0.0935 -0.7950  0.4979
 3555TIP3   OH234859   5.713   1.819   8.793 -0.2595  0.2231 -0.1672
 3555TIP3    H134860   5.693   1.863   8.711  0.4408 -0.1808 -0.5541
 3555TIP3    H234861   5.794   1.771   8.777 -0.5423 -0.5164  0.5074
 3556TIP3   OH234862   6.132   1.216   6.285 -0.1677  0.4561  0.2780
 3556TIP3    H134863   6.143   1.186   6.375 -0.5833  0.5233  0.3527
 3556TIP3    H234864   6.047   1.259   6.284 -0.3449  0.1021 -0.2411
 3557TIP3   OH234865   4.588   2.535   7.472  0.4316 -0.9707 -0.4436
 3557TIP3    H134866   4.626   2.508   7.555  0.9591  1.4827  0.2016
 3557TIP3    H234867   4.653   2.593   7.433 -0.3966 -0.9680 -1.9241
 3558TIP3   OH234868   0.459   3.346   7.905 -0.5828  0.1708 -0.3413
 3558TIP3    H134869   0.407   3.266   7.919  0.0802 -0.1445  0.4030
 3558TIP3    H234870   0.534   3.317   7.854  0.2627  0.0654  0.9165
 3559TIP3   OH234871   1.821   3.641   8.214  0.0019 -0.5113  0.3039
 3559TIP3    H134872   1.897   3.657   8.269 -1.0086 -1.2493  1.9828
 3559TIP3    H234873   1.759   3.596   8.271 -2.4201  1.6110 -0.4558
 3560TIP3   OH234874   2.901   3.193   8.505  0.1483 -0.7978 -0.1279
 3560TIP3    H134875   2.933   3.145   8.428  0.7397 -1.0703  0.2793
 3560TIP3    H234876   2.889   3.283   8.474  0.9058 -0.7864 -0.4003
 3561TIP3   OH234877   0.437   4.403   7.485 -0.5614 -0.3921  0.4537
 3561TIP3    H134878   0.427   4.497   7.468 -2.8154 -0.4277  1.1415
 3561TIP3    H234879   0.398   4.361   7.409 -1.2349 -0.6994  0.9509
 3562TIP3   OH234880   1.615   2.401   8.607 -1.0361 -0.1359 -0.1575
 3562TIP3    H134881   1.610   2.360   8.521 -1.8670 -0.0986 -0.1405
 3562TIP3    H234882   1.532   2.378   8.649 -2.1677  2.6305 -0.6333
 3563TIP3   OH234883   6.073   1.826   8.920  0.0889  0.0786  0.1054
 3563TIP3    H134884   6.149   1.803   8.973 -0.0036 -0.7895 -0.1233
 3563TIP3    H234885   6.095   1.912   8.883  1.3437 -0.5427 -0.6545
 3564TIP3   OH234886   3.500   0.672   7.675 -0.1596  0.0963  0.1073
 3564TIP3    H134887   3.474   0.756   7.638 -0.9827 -0.1915  0.0256
 3564TIP3    H234888   3.559   0.695   7.747 -0.6691  0.7620  0.3225
 3565TIP3   OH234889   2.966   5.889   7.470 -0.0540 -0.2563 -0.1595
 3565TIP3    H134890   3.029   5.816   7.467 -0.6690 -0.7603 -2.1462
 3565TIP3    H234891   3.018   5.966   7.448  0.1163 -0.4796 -0.5535
 3566TIP3   OH234892   3.197   0.676   7.370 -0.1084  0.1096 -0.3148
 3566TIP3    H134893   3.150   0.724   7.303 -1.0395 -0.5112 -0.1230
 3566TIP3    H234894   3.195   0.732   7.447  2.4284  1.5958 -1.2026
 3567TIP3   OH234895   2.525   2.151   8.770 -0.0501  0.3992 -0.1632
 3567TIP3    H134896   2.547   2.238   8.737  0.4024  0.1395 -0.5465
 3567TIP3    H234897   2.430   2.154   8.782 -0.0210  0.9845 -0.0638
 3568TIP3   OH234898   2.905   5.407   9.593 -0.0689 -0.3894  0.0102
 3568TIP3    H134899   2.875   5.421   9.503  1.0883 -0.1358 -0.3436
 3568TIP3    H234900   2.912   5.312   9.602 -0.0390 -0.4081 -0.2175
 3569TIP3   OH234901   1.588   2.571   7.773  0.6310  1.2504 -0.1332
 3569TIP3    H134902   1.581   2.476   7.771  2.0027  1.0853  1.0914
 3569TIP3    H234903   1.673   2.588   7.815 -0.5446  3.0078  1.7636
 3570TIP3   OH234904   3.621   0.071   8.264  0.2809 -0.0447 -0.1203
 3570TIP3    H134905   3.677   0.067   8.342 -0.2633  0.7178  0.3213
 3570TIP3    H234906   3.671   0.122   8.201  0.1944  0.4288  0.1890
 3571TIP3   OH234907   4.092   3.126   7.951 -0.0985  0.4792 -0.3672
 3571TIP3    H134908   4.042   3.184   8.008  1.6442  0.5686  1.1432
 3571TIP3    H234909   4.028   3.062   7.920 -0.9314 -0.3355  2.7028
 3572TIP3   OH234910   0.893   4.440   9.480 -0.7997 -0.1966  0.2622
 3572TIP3    H134911   0.895   4.499   9.404  1.9864 -0.6688 -0.1496
 3572TIP3    H234912   0.801   4.412   9.486 -1.3409  0.7483 -2.2275
 3573TIP3   OH234913   2.255   5.047   9.259 -0.1213  0.3128  0.2947
 3573TIP3    H134914   2.217   5.101   9.189  3.4951  0.3001 -1.9512
 3573TIP3    H234915   2.219   4.959   9.243 -1.8095  0.9202  0.5397
 3574TIP3   OH234916   7.242   4.749   6.639  0.4094 -0.2956 -0.6122
 3574TIP3    H134917   7.275   4.707   6.719  0.0547 -1.4037 -1.0232
 3574TIP3    H234918   7.206   4.832   6.668 -0.2657 -0.9502  0.4865
 3575TIP3   OH234919   5.419   7.115   7.483 -0.2385  0.2013  0.0236
 3575TIP3    H134920   5.507   7.141   7.507 -0.1554 -0.1790  0.1383
 3575TIP3    H234921   5.379   7.194   7.445 -0.2868  0.7374  1.1697
 3576TIP3   OH234922   1.967   4.987   8.358  0.3747 -0.6070 -0.0081
 3576TIP3    H134923   1.954   4.919   8.291 -1.1075 -0.2662 -0.0975
 3576TIP3    H234924   1.953   4.941   8.441  0.0538 -0.5621 -0.0372
 3577TIP3   OH234925   3.911   7.357   7.496  0.0042  0.8084 -0.3739
 3577TIP3    H134926   3.943   7.268   7.511 -0.6069  0.6690  0.1294
 3577TIP3    H234927   3.970   7.392   7.429  2.8933  1.4670  2.2753
 3578TIP3   OH234928   7.677   6.593   7.594 -0.7636  0.4667  0.4328
 3578TIP3    H134929   7.744   6.619   7.530 -0.3912 -0.3513  0.4801
 3578TIP3    H234930   7.726   6.559   7.668 -1.1081 -3.8496 -1.0203
 3579TIP3   OH234931   3.213   3.893   8.119  0.0547  0.1772  0.5516
 3579TIP3    H134932   3.139   3.859   8.168 -0.3407  0.6831  0.3123
 3579TIP3    H234933   3.213   3.844   8.037  0.2345 -0.1095  0.7220
 3580TIP3   OH234934   3.846   6.651   8.194  0.4170  0.1273  0.0339
 3580TIP3    H134935   3.903   6.577   8.216 -0.2779 -0.4927 -0.1974
 3580TIP3    H234936   3.826   6.692   8.278  0.2328 -0.3886  0.2459
 3581TIP3   OH234937   0.750   6.639   7.395 -0.0014  0.0676 -0.1441
 3581TIP3    H134938   0.798   6.691   7.331 -0.0572  0.7287  0.3412
 3581TIP3    H234939   0.814   6.577   7.429  0.3663  0.5641  0.0791
 3582TIP3   OH234940   3.949   6.121   8.376 -0.1583  0.2274 -0.4762
 3582TIP3    H134941   3.854   6.133   8.367 -0.1716 -0.7201 -1.9536
 3582TIP3    H234942   3.986   6.169   8.302  0.5061  0.4180 -0.0275
 3583TIP3   OH234943   0.398   3.954   8.519  0.1361 -0.1135 -0.5387
 3583TIP3    H134944   0.323   3.952   8.460  1.1403 -0.2284 -1.8460
 3583TIP3    H234945   0.471   3.984   8.465  0.8648  0.8821  0.9225
 3584TIP3   OH234946   5.044   2.855   8.320  0.0540 -0.0785 -0.7310
 3584TIP3    H134947   5.097   2.845   8.241  1.3275 -1.4706  0.2510
 3584TIP3    H234948   5.044   2.949   8.337 -0.1319  0.2266 -2.2941
 3585TIP3   OH234949   0.035   1.412   8.390  0.1683  0.3645 -0.3819
 3585TIP3    H134950  -0.046   1.389   8.436  0.3650 -1.6120 -0.9554
 3585TIP3    H234951   0.008   1.424   8.299  0.7238 -1.9348 -0.8995
 3586TIP3   OH234952   4.275   5.206   7.153 -0.6276  0.1613  0.8891
 3586TIP3    H134953   4.315   5.291   7.135 -0.4622 -0.2991 -1.2510
 3586TIP3    H234954   4.191   5.210   7.107 -0.8279 -0.6502  1.1754
 3587TIP3   OH234955   3.291   4.345   8.514 -0.3095 -0.5110 -0.2071
 3587TIP3    H134956   3.319   4.263   8.555  1.2117  0.1629  0.1639
 3587TIP3    H234957   3.342   4.349   8.433 -2.8069 -1.5100 -1.9426
 3588TIP3   OH234958   4.739   5.038   8.944 -0.2783  0.2622 -0.3190
 3588TIP3    H134959   4.680   4.966   8.968  0.6744 -1.0192 -1.6307
 3588TIP3    H234960   4.774   5.069   9.027 -2.8659  1.1789  0.5236
 3589TIP3   OH234961   6.552   5.475   9.422  0.6311 -0.0858 -0.1649
 3589TIP3    H134962   6.622   5.412   9.406  1.7425  0.6514  1.5088
 3589TIP3    H234963   6.596   5.550   9.461 -1.0861  0.4400  0.8563
 3590TIP3   OH234964   6.782   5.637   9.183 -0.5282 -0.3731  0.0610
 3590TIP3    H134965   6.860   5.634   9.128  0.4091  1.3075  1.1849
 3590TIP3    H234966   6.714   5.591   9.133  0.5244  0.2460 -2.0287
 3591TIP3   OH234967   0.489   3.465   9.394 -0.1317 -0.2892  0.4751
 3591TIP3    H134968   0.561   3.526   9.411 -1.8618  1.6147  1.3654
 3591TIP3    H234969   0.420   3.519   9.357 -1.6820 -1.7521  1.1282
 3592TIP3   OH234970   7.473   2.323   6.697  0.2512  0.2289  0.1070
 3592TIP3    H134971   7.426   2.270   6.761  0.8595 -1.4087 -0.7429
 3592TIP3    H234972   7.431   2.303   6.613 -0.0168  1.7291 -0.1441
 3593TIP3   OH234973   6.562   0.058   8.375  0.2905 -0.0116 -0.3153
 3593TIP3    H134974   6.478   0.017   8.396  0.9236 -0.7641  0.8325
 3593TIP3    H234975   6.543   0.151   8.372 -0.8316 -0.2450 -1.2709
 3594TIP3   OH234976   1.517   4.354   6.878  0.1904 -0.0718  0.3941
 3594TIP3    H134977   1.435   4.362   6.828  0.7513 -1.0565 -0.7447
 3594TIP3    H234978   1.570   4.429   6.850 -0.1503  0.3305  0.8149
 3595TIP3   OH234979   4.442   0.793   8.911  0.3433 -0.0915  0.9438
 3595TIP3    H134980   4.350   0.796   8.882  0.5032  0.9845  0.5056
 3595TIP3    H234981   4.437   0.769   9.004 -0.2154 -2.8765  0.2735
 3596TIP3   OH234982   4.873   5.994   8.710 -0.7203  0.5616  0.1522
 3596TIP3    H134983   4.875   5.985   8.805 -1.5639  1.6922  0.2984
 3596TIP3    H234984   4.781   5.985   8.686 -0.8622  2.5606 -0.2730
 3597TIP3   OH234985   6.038   6.945   7.662  0.1794  0.3390 -0.3070
 3597TIP3    H134986   6.109   7.005   7.685 -0.3376  0.8759 -0.0953
 3597TIP3    H234987   6.082   6.869   7.623  1.1422 -0.6650  2.4605
 3598TIP3   OH234988   0.121   5.539   7.706 -0.0575  0.9456 -0.2061
 3598TIP3    H134989   0.051   5.582   7.755 -0.9209  0.8122 -1.3027
 3598TIP3    H234990   0.103   5.560   7.614  0.2090 -0.7273 -0.6733
 3599TIP3   OH234991   2.805   7.135   7.653 -0.6571  0.0417  0.3894
 3599TIP3    H134992   2.788   7.089   7.735  0.6966 -0.2663  0.5150
 3599TIP3    H234993   2.725   7.185   7.637 -1.4031 -0.8196  1.2691
 3600TIP3   OH234994   1.327   2.643   7.792  0.4793  0.1430 -0.1552
 3600TIP3    H134995   1.419   2.621   7.774  0.4749  0.3094 -0.3815
 3600TIP3    H234996   1.279   2.609   7.716  0.0949 -1.7413  0.8626
 3601TIP3   OH234997   2.951   3.527   8.742 -0.3489 -0.1017  0.0740
 3601TIP3    H134998   2.860   3.505   8.760 -0.3222  0.0181  0.3675
 3601TIP3    H234999   2.969   3.488   8.656 -1.3162  1.6870 -1.0226
 3602TIP3   OH235000   6.547   5.215   8.446  0.2644 -0.0195 -0.0399
 3602TIP3    H135001   6.453   5.197   8.449  0.4770 -1.2671 -0.3155
 3602TIP3    H235002   6.576   5.204   8.537 -0.0280  1.4892  0.2612
 3603TIP3   OH235003   3.318   6.204   8.290 -0.0055 -0.2281 -0.3624
 3603TIP3    H135004   3.244   6.205   8.351  0.6509 -0.9905  0.4752
 3603TIP3    H235005   3.278   6.199   8.203 -1.0057  2.0130 -0.1201
 3604TIP3   OH235006   6.865   2.003   7.937  0.8144  0.1445  0.2930
 3604TIP3    H135007   6.786   1.985   7.887 -0.0104  0.8965  1.2819
 3604TIP3    H235008   6.880   1.923   7.988  0.9928 -0.1882 -0.2731
 3605TIP3   OH235009   2.659   3.154   9.107 -0.6634 -0.3763  0.4118
 3605TIP3    H135010   2.614   3.155   9.191 -1.2477 -1.9903  0.1530
 3605TIP3    H235011   2.613   3.088   9.056  2.1174 -2.3074  0.2127
 3606TIP3   OH235012   0.995   1.401   6.826  0.2285  0.2860  0.5396
 3606TIP3    H135013   0.910   1.429   6.860  0.6125  1.5102  0.5371
 3606TIP3    H235014   1.011   1.459   6.752  0.3269 -1.0343 -0.5119
 3607TIP3   OH235015   6.468   2.295   8.939 -0.1357  0.5882 -0.0991
 3607TIP3    H135016   6.387   2.338   8.911 -0.6717 -1.0584 -1.2343
 3607TIP3    H235017   6.438   2.217   8.985  0.8207  0.4126  0.2417
 3608TIP3   OH235018   3.406   1.033   9.236  0.1683 -0.3897  0.4934
 3608TIP3    H135019   3.363   0.978   9.171  1.5858 -0.2328 -0.6372
 3608TIP3    H235020   3.433   1.111   9.187  0.8701 -0.0656  1.3584
 3609TIP3   OH235021   3.309   4.652   8.242 -0.1809  0.0912 -0.3111
 3609TIP3    H135022   3.344   4.590   8.179  1.7977  0.4244  0.3809
 3609TIP3    H235023   3.259   4.598   8.303  2.1427 -1.0406  0.7377
 3610TIP3   OH235024   4.765   7.659   9.034 -0.2905  0.5137 -0.0115
 3610TIP3    H135025   4.752   7.627   8.944 -0.9612 -0.4193  0.3980
 3610TIP3    H235026   4.855   7.692   9.035  0.4915 -1.4640 -0.4572
 3611TIP3   OH235027   5.681   6.431   8.805  0.0628  0.8978  0.9531
 3611TIP3    H135028   5.634   6.513   8.792  1.0229  1.5390  1.4201
 3611TIP3    H235029   5.765   6.457   8.844  1.3795 -0.0528 -1.0189
 3612TIP3   OH235030   5.131   0.132   8.615 -0.7012 -0.3767  0.1525
 3612TIP3    H135031   5.128   0.045   8.655 -2.0136 -0.6368 -0.4591
 3612TIP3    H235032   5.122   0.193   8.688 -1.1700 -0.7984  0.4513
 3613TIP3   OH235033   5.994   1.726   7.854 -0.0090  0.0297  0.5332
 3613TIP3    H135034   6.089   1.740   7.857  0.1619 -0.4657 -1.3794
 3613TIP3    H235035   5.978   1.656   7.917  0.9280 -0.0786  0.6665
 3614TIP3   OH235036   2.759   1.518   7.584  0.0715  0.0390 -0.2756
 3614TIP3    H135037   2.841   1.489   7.625  0.8292  1.2552 -0.8517
 3614TIP3    H235038   2.783   1.600   7.540 -1.4685  0.4062 -0.4645
 3615TIP3   OH235039   0.356   7.395   8.938  0.0019  0.3756 -0.0051
 3615TIP3    H135040   0.445   7.365   8.919 -0.1029 -0.4634  0.7556
 3615TIP3    H235041   0.359   7.425   9.029 -0.8248 -1.1298  0.5662
 3616TIP3   OH235042   4.593   7.334   9.667 -0.6010  0.2314  0.4469
 3616TIP3    H135043   4.594   7.415   9.718  0.2590 -0.2808  1.2768
 3616TIP3    H235044   4.519   7.344   9.607 -1.0905  1.2190  1.1945
 3617TIP3   OH235045   4.816   7.609   7.026 -0.4337  0.7376 -0.2262
 3617TIP3    H135046   4.821   7.516   7.006 -0.9558  0.3081  1.4859
 3617TIP3    H235047   4.723   7.630   7.018 -0.4046  0.9641  0.0410
 3618TIP3   OH235048   6.652   3.239   8.152 -0.0048 -0.5493 -0.0466
 3618TIP3    H135049   6.624   3.292   8.227 -0.3696  0.2807 -0.7602
 3618TIP3    H235050   6.722   3.291   8.112 -0.2817 -0.6709 -0.6824
 3619TIP3   OH235051   7.550   0.427   7.822  0.2648 -0.1800 -0.0598
 3619TIP3    H135052   7.475   0.384   7.864 -1.0476  0.2436 -1.8577
 3619TIP3    H235053   7.564   0.507   7.873  0.1133 -0.7120  0.8397
 3620TIP3   OH235054   6.988   7.311   7.837  0.6816 -0.2871  0.0811
 3620TIP3    H135055   6.958   7.333   7.926  2.9180  1.0545  0.5755
 3620TIP3    H235056   7.009   7.395   7.797 -0.4261 -0.8603 -1.8362
 3621TIP3   OH235057   3.894   1.135   9.518 -0.3565 -0.2664  0.0359
 3621TIP3    H135058   3.818   1.081   9.535 -0.1030 -0.2990  1.0906
 3621TIP3    H235059   3.875   1.177   9.434 -1.2625 -0.7295  0.0005
 3622TIP3   OH235060   2.220   6.724   8.754 -0.3579 -0.4740  0.2669
 3622TIP3    H135061   2.174   6.735   8.671  0.8852  0.7384 -0.2981
 3622TIP3    H235062   2.200   6.803   8.803  2.2357  0.8524 -0.6030
 3623TIP3   OH235063   7.330   7.368   8.049  0.6904 -0.3204 -0.1645
 3623TIP3    H135064   7.292   7.289   8.010 -0.2717 -0.8482  1.7619
 3623TIP3    H235065   7.416   7.376   8.006  0.1113 -1.4271 -1.6188
 3624TIP3   OH235066   4.945   2.812   8.027 -0.0742 -0.5534  0.0174
 3624TIP3    H135067   4.988   2.889   7.990  0.0323 -1.3292 -1.5743
 3624TIP3    H235068   4.855   2.817   7.995 -0.1689 -0.8655  0.2280
 3625TIP3   OH235069   5.486   5.623   7.090 -0.0882 -0.0055 -0.6269
 3625TIP3    H135070   5.396   5.591   7.094  0.0927 -0.4318  0.6877
 3625TIP3    H235071   5.537   5.547   7.060 -0.0411 -0.0924 -0.3361
 3626TIP3   OH235072   4.742   6.615   7.443  0.1546  0.4967 -0.1877
 3626TIP3    H135073   4.665   6.563   7.423 -1.6968  2.5968  0.9666
 3626TIP3    H235074   4.722   6.702   7.408  1.5328  1.3641  1.0442
 3627TIP3   OH235075   1.218   0.636   8.216  0.1784  0.1739  0.2854
 3627TIP3    H135076   1.228   0.612   8.124 -1.0502 -0.1776  0.2388
 3627TIP3    H235077   1.129   0.670   8.223  0.3870  0.5536  1.2755
 3628TIP3   OH235078   3.242   5.994   8.056  0.6915 -0.0414  0.3951
 3628TIP3    H135079   3.328   5.957   8.034  0.9719  0.2587  0.9626
 3628TIP3    H235080   3.203   6.015   7.972  0.9762 -0.6172  0.1081
 3629TIP3   OH235081   6.554   0.576   8.897 -0.1733 -0.0026  0.7667
 3629TIP3    H135082   6.505   0.525   8.962  1.0568  0.9174  2.4790
 3629TIP3    H235083   6.643   0.543   8.902 -0.0583  0.0592 -0.5197
 3630TIP3   OH235084   1.301   1.708   9.218  0.8051  0.1432  0.1401
 3630TIP3    H135085   1.383   1.751   9.241  0.1845  0.3694  2.1677
 3630TIP3    H235086   1.314   1.617   9.243  0.6848  0.0175 -0.2438
 3631TIP3   OH235087   5.352   5.559   9.601 -0.0010 -0.2280  0.0449
 3631TIP3    H135088   5.291   5.505   9.550 -0.6705  0.7621 -0.2461
 3631TIP3    H235089   5.389   5.619   9.536  0.7970 -0.3822  0.3475
 3632TIP3   OH235090   0.548   0.044   8.508  0.4081 -0.0639 -0.5726
 3632TIP3    H135091   0.548  -0.008   8.588  0.0055 -0.6850 -0.9651
 3632TIP3    H235092   0.476   0.008   8.456  0.1310  0.8760 -0.8622
 3633TIP3   OH235093   1.849   3.204   6.836 -0.1803  0.1022 -0.3123
 3633TIP3    H135094   1.857   3.266   6.763  0.1970 -1.2857 -1.4945
 3633TIP3    H235095   1.918   3.139   6.819 -0.9369 -0.9563  0.5722
 3634TIP3   OH235096   6.721   3.058   8.501 -0.7870  0.0415  0.0773
 3634TIP3    H135097   6.780   3.129   8.526 -0.1561  0.1496 -1.5893
 3634TIP3    H235098   6.637   3.082   8.540 -0.1606  0.7788  1.0203
 3635TIP3   OH235099   1.401   2.181   7.356  0.1671 -0.3845 -0.3212
 3635TIP3    H135100   1.412   2.112   7.290 -1.8111 -2.3964  1.2893
 3635TIP3    H235101   1.333   2.238   7.320  1.2037  0.3013 -1.2757
 3636TIP3   OH235102   1.797   4.436   8.291 -0.0339 -0.1728 -0.1666
 3636TIP3    H135103   1.853   4.401   8.361  1.9686  2.1945 -0.4543
 3636TIP3    H235104   1.780   4.527   8.317 -0.9442  0.1448 -1.7720
 3637TIP3   OH235105   2.785   4.797   7.557  0.1451  0.3675 -0.3980
 3637TIP3    H135106   2.763   4.885   7.527 -1.6515 -0.5145 -1.8309
 3637TIP3    H235107   2.796   4.746   7.477  1.3226 -0.7130  0.4080
 3638TIP3   OH235108   1.191   5.094   9.184  0.1013  0.0681 -0.1290
 3638TIP3    H135109   1.235   5.046   9.113 -0.0733 -0.5756  0.1882
 3638TIP3    H235110   1.198   5.186   9.159 -1.1511 -0.2087 -1.6831
 3639TIP3   OH235111   1.130   4.995   8.224  0.1912 -0.1162  0.1213
 3639TIP3    H135112   1.058   5.005   8.162 -0.1059 -1.2617  0.2598
 3639TIP3    H235113   1.139   4.900   8.236  0.4421  0.0683  1.5901
 3640TIP3   OH235114   2.168   3.034   8.153  0.8134 -0.1409  0.3744
 3640TIP3    H135115   2.160   3.130   8.154  1.1756 -0.0984 -0.3364
 3640TIP3    H235116   2.231   3.016   8.083  1.2324 -0.8685  0.9244
 3641TIP3   OH235117   4.512   0.951   6.894  0.2274  0.4439 -0.1716
 3641TIP3    H135118   4.568   0.997   6.832  0.7620  1.1875  0.8212
 3641TIP3    H235119   4.520   0.859   6.871  0.6416  0.6856 -1.0075
 3642TIP3   OH235120   2.932   4.265   7.843  0.1319  0.1957  0.7647
 3642TIP3    H135121   2.907   4.356   7.826 -0.0127  0.0815  0.3557
 3642TIP3    H235122   2.879   4.239   7.918  1.4704  1.0074  2.0553
 3643TIP3   OH235123   3.814   5.713   9.367  0.0283  0.0235 -0.1006
 3643TIP3    H135124   3.776   5.727   9.280  1.1159  0.6158 -0.5018
 3643TIP3    H235125   3.739   5.713   9.426 -0.7688 -0.7936 -1.0712
 3644TIP3   OH235126   4.174   3.689   8.480  0.1303  0.2424  0.4182
 3644TIP3    H135127   4.147   3.680   8.571  0.4207 -0.6221  0.4255
 3644TIP3    H235128   4.265   3.658   8.479 -0.1336 -0.5335 -0.3153
 3645TIP3   OH235129   7.322   0.013   8.775  0.3646 -0.1065  0.7384
 3645TIP3    H135130   7.261   0.079   8.743  2.2337  1.3428 -0.0140
 3645TIP3    H235131   7.358  -0.027   8.695  2.0928  0.7228  1.0527
 3646TIP3   OH235132   1.669   0.040   9.347 -0.1902  0.2326 -0.0253
 3646TIP3    H135133   1.644   0.048   9.439 -0.4819  2.1102 -0.2100
 3646TIP3    H235134   1.751  -0.009   9.348 -1.1689 -1.4933  1.0425
 3647TIP3   OH235135   0.166   5.393   9.614 -0.0920  0.3655 -0.0821
 3647TIP3    H135136   0.229   5.455   9.577  1.2090 -0.4843  0.6491
 3647TIP3    H235137   0.143   5.430   9.699  0.9078 -0.2632  0.4823
 3648TIP3   OH235138   4.028   3.723   7.280  0.1045  0.0127 -0.3002
 3648TIP3    H135139   4.096   3.679   7.331 -0.7614 -0.4777  0.4452
 3648TIP3    H235140   3.995   3.655   7.221  0.0493  0.1676 -0.4476
 3649TIP3   OH235141   3.989   0.500   8.883 -0.0621  0.0930 -0.3460
 3649TIP3    H135142   3.930   0.429   8.856 -1.4272  0.8631  0.5005
 3649TIP3    H235143   3.977   0.507   8.978  1.1508  0.5126 -0.1987
 3650TIP3   OH235144   7.555   3.163   7.769  0.0667  0.0099 -0.3674
 3650TIP3    H135145   7.468   3.157   7.810 -0.1699 -1.3675 -1.0340
 3650TIP3    H235146   7.544   3.123   7.683  0.2574  3.8082 -2.3988
 3651TIP3   OH235147   6.810   2.344   7.289  0.0476 -0.0321 -0.0591
 3651TIP3    H135148   6.836   2.364   7.379  0.2409 -1.7379  0.2936
 3651TIP3    H235149   6.873   2.392   7.235  0.3660  0.4524  0.7148
 3652TIP3   OH235150   6.043   3.376   7.325 -0.6590 -0.4589  0.6650
 3652TIP3    H135151   6.017   3.467   7.308  2.1219  0.5133  1.1055
 3652TIP3    H235152   6.015   3.359   7.415  0.3824  0.6602  1.2398
 3653TIP3   OH235153   0.370   4.690   7.800  0.2855 -0.0530  0.0096
 3653TIP3    H135154   0.446   4.748   7.797 -1.5521  2.5152  0.2470
 3653TIP3    H235155   0.382   4.639   7.880  0.9652  1.5011  0.9434
 3654TIP3   OH235156   4.982   3.476   7.715 -0.1518 -0.1042  0.2496
 3654TIP3    H135157   4.966   3.517   7.630  0.2385 -1.1213 -0.3265
 3654TIP3    H235158   4.928   3.397   7.714 -0.4455  0.0754  1.1115
 3655TIP3   OH235159   1.846   5.891   7.965  0.5398  0.3225 -0.2255
 3655TIP3    H135160   1.889   5.844   7.894  1.0891 -0.6198  0.6998
 3655TIP3    H235161   1.759   5.850   7.972  0.9984 -0.5727  0.5453
 3656TIP3   OH235162   1.499   1.865   9.521 -0.2075  0.3091 -0.1948
 3656TIP3    H135163   1.480   1.908   9.438 -0.4111 -1.3587 -1.0481
 3656TIP3    H235164   1.414   1.853   9.562 -0.1862  0.4165 -0.1193
 3657TIP3   OH235165   7.675   4.930   9.257 -0.0618  0.1432 -0.3655
 3657TIP3    H135166   7.740   4.867   9.288 -0.8872 -1.3666 -1.5817
 3657TIP3    H235167   7.650   4.979   9.336  0.8082 -0.8663  0.5755
 3658TIP3   OH235168   5.214   6.667   8.754  0.1679  0.1228  0.6775
 3658TIP3    H135169   5.183   6.700   8.839 -3.6038 -0.8423 -0.1374
 3658TIP3    H235170   5.175   6.727   8.690  1.3394 -0.2993 -0.4671
 3659TIP3   OH235171   0.513   4.420   8.635  0.4991 -0.7012 -0.1108
 3659TIP3    H135172   0.503   4.478   8.710  2.4098 -1.3013  0.6611
 3659TIP3    H235173   0.538   4.336   8.672  1.9349 -0.8962 -1.4126
 3660TIP3   OH235174   4.209   5.435   9.101  0.2017  0.7213  0.2374
 3660TIP3    H135175   4.157   5.375   9.154 -0.9996  1.3164 -0.2160
 3660TIP3    H235176   4.276   5.469   9.160  1.1293 -1.2858  0.4136
 3661TIP3   OH235177   4.017   5.951   9.322  0.4523  0.0900  1.0239
 3661TIP3    H135178   4.087   5.921   9.263 -0.1185  0.6997  0.0022
 3661TIP3    H235179   3.959   5.875   9.330  0.5460 -0.0093  0.7962
 3662TIP3   OH235180   6.050   0.054   8.072  0.1091  0.3552 -0.4273
 3662TIP3    H135181   6.002   0.134   8.050  0.3021  0.6413  0.1697
 3662TIP3    H235182   6.061   0.059   8.167 -1.1756 -1.1070 -0.1662
 3663TIP3   OH235183   3.345   1.893   7.758  0.0924  0.3511 -0.1263
 3663TIP3    H135184   3.255   1.925   7.760  0.3785  1.1777 -0.0078
 3663TIP3    H235185   3.399   1.972   7.759  0.8742 -0.1319  2.5864
 3664TIP3   OH235186   2.770   4.985   8.928  0.2705  0.2755  0.1330
 3664TIP3    H135187   2.699   4.999   8.991  0.1430  1.4054 -0.2403
 3664TIP3    H235188   2.741   4.910   8.876 -0.0069 -0.1356  0.8732
 3665TIP3   OH235189   3.222   4.635   7.140  0.1991 -0.5980 -1.0173
 3665TIP3    H135190   3.195   4.597   7.223  0.9313 -2.8056 -1.7278
 3665TIP3    H235191   3.199   4.728   7.148  1.1303 -0.5031  2.0173
 3666TIP3   OH235192   7.138   7.630   9.049 -0.6599 -0.0264 -0.0551
 3666TIP3    H135193   7.198   7.570   9.094 -0.6244 -0.0880 -0.1827
 3666TIP3    H235194   7.130   7.593   8.961  0.2254  0.7479 -0.4849
 3667TIP3   OH235195   1.986   1.352   9.160  0.4251  0.0027  0.1684
 3667TIP3    H135196   1.981   1.401   9.241  0.9753 -0.5252  0.5333
 3667TIP3    H235197   2.065   1.298   9.169 -0.0973 -0.8661 -0.2510
 3668TIP3   OH235198   5.273   5.103   8.889  0.2228  0.7560  0.5376
 3668TIP3    H135199   5.289   5.195   8.866 -2.0214  1.2101  0.6249
 3668TIP3    H235200   5.246   5.062   8.807 -1.1993  0.7891  0.9640
 3669TIP3   OH235201   4.669   5.267   7.081  0.5495 -0.4655  0.6143
 3669TIP3    H135202   4.756   5.236   7.053 -0.0780 -2.3297  0.5961
 3669TIP3    H235203   4.621   5.187   7.101 -1.7047  0.4068 -0.9182
 3670TIP3   OH235204   1.429   1.459   6.796  0.0193 -0.0226  0.1778
 3670TIP3    H135205   1.443   1.369   6.825  0.7314 -0.9769 -2.8020
 3670TIP3    H235206   1.507   1.480   6.744 -0.5987  1.9387 -0.0351
 3671TIP3   OH235207   6.838   2.609   8.241  0.2635  0.3475 -0.0359
 3671TIP3    H135208   6.838   2.674   8.312  0.0790 -0.7661  1.0302
 3671TIP3    H235209   6.919   2.559   8.254 -0.3299 -0.6089  0.1276
 3672TIP3   OH235210   4.432   2.870   7.959  0.1746 -0.9019 -0.2187
 3672TIP3    H135211   4.361   2.920   8.001  0.5328 -1.4260  1.0564
 3672TIP3    H235212   4.390   2.826   7.885 -0.4628  0.1104 -0.4696
 3673TIP3   OH235213   0.829   5.620   8.348  0.2676 -0.3851  0.5620
 3673TIP3    H135214   0.801   5.616   8.256 -0.8405  0.4052  0.8378
 3673TIP3    H235215   0.807   5.709   8.375 -1.7075 -1.2975  2.2688
 3674TIP3   OH235216   3.262   6.733   6.626  0.6678  0.4916  0.1413
 3674TIP3    H135217   3.349   6.700   6.644 -0.1165 -1.0821  1.2794
 3674TIP3    H235218   3.275   6.825   6.602  2.6000  0.2945  0.3154
 3675TIP3   OH235219   7.138   2.977   8.532  0.2617 -0.1860  0.4665
 3675TIP3    H135220   7.120   2.985   8.438 -3.0227  0.8627  1.0719
 3675TIP3    H235221   7.102   2.891   8.556  0.7241 -0.2729  0.8644
 3676TIP3   OH235222   0.217   1.636   6.850  0.2896 -0.1006  0.1546
 3676TIP3    H135223   0.145   1.610   6.792 -0.9341 -0.1018  1.6129
 3676TIP3    H235224   0.250   1.553   6.886  0.1808 -0.0229  0.4386
 3677TIP3   OH235225   0.022   5.922   9.405 -0.2537  0.0941 -0.0845
 3677TIP3    H135226  -0.055   5.893   9.455 -0.0702 -0.4842 -0.1285
 3677TIP3    H235227  -0.010   5.996   9.353 -1.6462 -1.9847 -2.4703
 3678TIP3   OH235228   6.152   5.937   6.973 -0.0290  0.0430 -0.0001
 3678TIP3    H135229   6.202   5.879   6.914  0.8014  0.0145  0.7203
 3678TIP3    H235230   6.218   5.981   7.025 -0.6966  1.1550 -0.0717
 3679TIP3   OH235231   3.885   5.142   9.527  0.2044  0.5378 -0.4823
 3679TIP3    H135232   3.829   5.071   9.558 -0.6964  0.7623 -1.5486
 3679TIP3    H235233   3.974   5.115   9.552 -0.0485 -1.2636 -1.4161
 3680TIP3   OH235234   3.481   1.662   8.657  0.2733  0.1245 -0.2299
 3680TIP3    H135235   3.407   1.660   8.597  0.4350  0.1255 -0.4302
 3680TIP3    H235236   3.505   1.571   8.669 -0.0211  0.0949  0.1626
 3681TIP3   OH235237   5.040   3.022   7.836  0.2524  0.1479  0.1790
 3681TIP3    H135238   5.122   2.972   7.835  0.3471  0.2720  0.9388
 3681TIP3    H235239   5.068   3.113   7.846 -0.0038  0.0446  2.3384
 3682TIP3   OH235240   2.279   3.933   8.846 -0.0099  0.5573  0.1141
 3682TIP3    H135241   2.265   3.963   8.756  0.2002  1.0506  0.2462
 3682TIP3    H235242   2.354   3.874   8.841 -0.1842  0.3504 -0.0811
 3683TIP3   OH235243   4.678   4.648   8.685 -0.3006  0.4053 -0.0821
 3683TIP3    H135244   4.765   4.612   8.667 -0.2740 -0.2487  1.2729
 3683TIP3    H235245   4.619   4.574   8.670 -0.5484  0.6097 -0.1237
 3684TIP3   OH235246   7.004   4.512   8.106 -0.2128 -0.0170  0.3229
 3684TIP3    H135247   6.918   4.478   8.081 -0.4644 -0.0084  1.1196
 3684TIP3    H235248   6.991   4.607   8.109 -0.3283 -0.0439  0.9323
 3685TIP3   OH235249   4.969   3.259   8.073  0.0856 -0.2467 -0.5059
 3685TIP3    H135250   5.020   3.231   8.149 -0.5421  1.3742  0.5620
 3685TIP3    H235251   5.025   3.238   7.998 -0.2492 -4.0342  0.1280
 3686TIP3   OH235252   7.610   2.803   7.727  0.2720  0.1945  0.0248
 3686TIP3    H135253   7.539   2.739   7.721  0.1522  0.1338  1.5234
 3686TIP3    H235254   7.605   2.853   7.646 -1.4736  0.1664  0.0715
 3687TIP3   OH235255   2.231   1.042   8.945 -0.0532  0.0354 -0.6811
 3687TIP3    H135256   2.268   1.095   8.874  3.0149 -1.0324 -0.0587
 3687TIP3    H235257   2.161   0.992   8.904 -0.1419  1.3866 -2.2995
 3688TIP3   OH235258   4.949   1.451   8.676 -0.0794  0.3509 -0.6242
 3688TIP3    H135259   4.972   1.485   8.589  1.4516  0.6428 -0.1255
 3688TIP3    H235260   5.032   1.425   8.715 -0.8924 -1.1835  0.2033
 3689TIP3   OH235261   7.036   2.451   7.140  0.2202  0.0572 -0.1062
 3689TIP3    H135262   7.130   2.460   7.128  0.1257  1.0577 -0.2112
 3689TIP3    H235263   6.999   2.470   7.053 -0.1728  1.6991  0.3887
 3690TIP3   OH235264   5.193   4.162   9.330  0.3065  0.2298 -0.0611
 3690TIP3    H135265   5.121   4.102   9.312 -0.2313  0.7223  0.3948
 3690TIP3    H235266   5.272   4.107   9.329 -0.1177 -0.3772 -0.1976
 3691TIP3   OH235267   1.866   6.215   8.657 -0.1301 -0.2592 -0.5983
 3691TIP3    H135268   1.813   6.137   8.637 -0.4444 -0.0987 -0.4017
 3691TIP3    H235269   1.949   6.179   8.689  0.2133 -0.5178 -1.7271
 3692TIP3   OH235270   2.160   6.972   8.915  0.2016  0.4930 -0.6761
 3692TIP3    H135271   2.117   6.994   8.998  0.4127 -0.9910 -0.1472
 3692TIP3    H235272   2.223   7.042   8.901  1.0794  0.0966  1.0954
 3693TIP3   OH235273   0.612   0.767   8.033 -0.4823  0.6400  0.3673
 3693TIP3    H135274   0.619   0.846   8.087 -0.8550  0.3312  0.8720
 3693TIP3    H235275   0.666   0.786   7.956  0.8092  0.7342  1.2621
 3694TIP3   OH235276   0.536   3.627   7.535 -0.0470  0.0164  0.1205
 3694TIP3    H135277   0.618   3.580   7.523  0.2257 -0.0964  1.9984
 3694TIP3    H235278   0.478   3.593   7.468  1.8736  1.2344 -2.3110
 3695TIP3   OH235279   3.654   4.507   7.954  0.2411  0.1308  0.0387
 3695TIP3    H135280   3.690   4.429   7.995 -2.0308 -1.7890 -1.3612
 3695TIP3    H235281   3.727   4.569   7.953  2.6239 -2.4743 -0.1386
 3696TIP3   OH235282   4.309   7.207   7.305  0.1287  0.3867 -0.1769
 3696TIP3    H135283   4.239   7.262   7.269  0.8612  0.1729 -2.0291
 3696TIP3    H235284   4.387   7.262   7.304  0.5000 -0.1312 -0.4095
 3697TIP3   OH235285   3.489   7.466   8.952  0.6880 -0.2909  0.0154
 3697TIP3    H135286   3.558   7.433   8.895  1.5231 -0.8447  1.3001
 3697TIP3    H235287   3.514   7.557   8.970 -0.3804  0.3945 -1.6490
 3698TIP3   OH235288   2.631   6.687   7.884 -0.4091  0.4490  0.1553
 3698TIP3    H135289   2.706   6.717   7.935 -0.5746  0.6869  0.2607
 3698TIP3    H235290   2.588   6.623   7.941  0.3786 -0.5850 -0.3726
 3699TIP3   OH235291   5.985   0.970   8.511 -0.6020  0.4103  0.3592
 3699TIP3    H135292   5.976   1.053   8.557 -0.7183 -1.0810  3.2738
 3699TIP3    H235293   6.076   0.944   8.525 -0.7175 -0.2174  0.0179
 3700TIP3   OH235294   1.274   4.106   8.502 -0.2646 -0.3572 -0.0773
 3700TIP3    H135295   1.335   4.107   8.428 -0.7783 -0.2792 -0.5050
 3700TIP3    H235296   1.219   4.183   8.488  0.4215  0.3701  1.0547
 3701TIP3   OH235297   6.784   4.184   6.629 -0.2904 -0.3182 -0.2257
 3701TIP3    H135298   6.833   4.112   6.670 -2.2704 -1.3916  0.3524
 3701TIP3    H235299   6.774   4.158   6.538 -1.7753 -1.2752  0.1722
 3702TIP3   OH235300   7.451   5.727   9.335 -0.3722 -0.0257  0.0972
 3702TIP3    H135301   7.515   5.660   9.359 -0.7523  0.1953  1.7961
 3702TIP3    H235302   7.399   5.687   9.266  0.8291 -0.6375 -0.4899
 3703TIP3   OH235303   7.201   2.948   6.887 -0.3569  0.3175  0.3650
 3703TIP3    H135304   7.147   2.963   6.809  0.9755  0.6001 -0.5390
 3703TIP3    H235305   7.220   3.035   6.920  0.1956  0.2652  0.2004
 3704TIP3   OH235306   1.791   1.545   8.599  0.0638 -0.0696  0.0343
 3704TIP3    H135307   1.768   1.453   8.615  0.1172  0.1536  1.5115
 3704TIP3    H235308   1.869   1.560   8.652  0.4578  0.6583 -0.7285
 3705TIP3   OH235309   6.168   4.945   6.534 -0.5448  0.0246 -0.0229
 3705TIP3    H135310   6.104   4.923   6.601 -1.5796 -0.6525 -1.1723
 3705TIP3    H235311   6.122   4.929   6.451  1.0513 -0.3014 -0.8926
 3706TIP3   OH235312   1.264   5.400   7.489  0.1218  0.0499  0.0449
 3706TIP3    H135313   1.185   5.454   7.481 -0.1027 -0.1633  0.7413
 3706TIP3    H235314   1.263   5.371   7.580  0.5250 -0.7000 -0.1894
 3707TIP3   OH235315   4.617   3.728   9.194 -0.2657 -0.1610 -0.9734
 3707TIP3    H135316   4.569   3.699   9.116 -0.8922  2.0941 -1.5112
 3707TIP3    H235317   4.591   3.667   9.262  0.9016 -2.6929 -2.6555
 3708TIP3   OH235318   1.730   7.338   9.448 -0.2536 -0.0064 -0.0975
 3708TIP3    H135319   1.780   7.263   9.481 -2.3916 -1.5695 -0.2625
 3708TIP3    H235320   1.774   7.362   9.367 -0.7541 -2.5340 -1.2195
 3709TIP3   OH235321   4.956   5.731   8.738 -0.2675  0.1175 -0.0273
 3709TIP3    H135322   4.935   5.821   8.713 -1.2984 -0.1924 -0.3361
 3709TIP3    H235323   4.910   5.677   8.673  0.3249 -0.6293  0.1627
 3710TIP3   OH235324   7.288   5.822   7.476  0.0008 -0.3504  0.6228
 3710TIP3    H135325   7.213   5.870   7.509  0.9356  1.3072  0.4427
 3710TIP3    H235326   7.272   5.811   7.382 -0.0768 -0.1321  0.6125
 3711TIP3   OH235327   5.652   1.615   7.892 -0.1826  0.5185  0.1411
 3711TIP3    H135328   5.564   1.584   7.870 -0.4350  0.5047  1.1038
 3711TIP3    H235329   5.648   1.630   7.987  1.4824 -1.5704  0.6182
 3712TIP3   OH235330   7.089   1.823   6.906  0.1836  1.0565  0.1131
 3712TIP3    H135331   7.110   1.733   6.881 -2.8769 -0.3537  2.0300
 3712TIP3    H235332   7.055   1.863   6.826 -0.9452 -0.4080 -0.1770
 3713TIP3   OH235333   3.226   0.664   8.861  0.5200  0.1869  0.8514
 3713TIP3    H135334   3.244   0.722   8.786 -0.7454 -1.1761 -0.5769
 3713TIP3    H235335   3.154   0.608   8.831 -0.5132  0.0426  3.3655
 3714TIP3   OH235336   0.226   1.138   8.876 -0.0538 -0.1799 -0.3760
 3714TIP3    H135337   0.180   1.218   8.904  0.2815  0.0534 -0.4887
 3714TIP3    H235338   0.233   1.147   8.781  1.0164  0.2121 -0.2683
 3715TIP3   OH235339   0.395   3.063   7.918  0.1441  0.4345  0.2165
 3715TIP3    H135340   0.455   2.991   7.898  1.6478  2.2643 -2.6600
 3715TIP3    H235341   0.311   3.035   7.883  0.7560  0.1024 -1.0583
 3716TIP3   OH235342   7.218   6.288   8.866  0.8210 -0.1177 -0.3130
 3716TIP3    H135343   7.276   6.343   8.813  1.0147 -0.1899 -0.1742
 3716TIP3    H235344   7.149   6.261   8.805  0.8036  0.1606 -0.4186
 3717TIP3   OH235345   6.317   2.431   8.567 -0.5355 -0.0075 -0.1159
 3717TIP3    H135346   6.407   2.458   8.547 -0.3813 -0.2196  0.2842
 3717TIP3    H235347   6.264   2.508   8.546 -0.2667  0.0915 -0.4260
 3718TIP3   OH235348   7.003   2.755   6.923  0.0960 -0.0821 -0.0644
 3718TIP3    H135349   7.062   2.830   6.926  1.3282 -1.0350  0.5943
 3718TIP3    H235350   7.027   2.710   6.841  1.4739 -1.3530  0.9814
 3719TIP3   OH235351   1.160   2.621   8.245  0.2629 -0.5902 -0.3225
 3719TIP3    H135352   1.158   2.679   8.321 -0.0672 -0.5944 -0.3260
 3719TIP3    H235353   1.117   2.671   8.176  0.2485 -0.7202 -0.4078
 3720TIP3   OH235354   5.179   6.856   8.537  0.1384  0.3604  0.4102
 3720TIP3    H135355   5.112   6.818   8.480  0.5207 -0.7980  0.6964
 3720TIP3    H235356   5.226   6.918   8.481  1.1234 -1.4308 -0.8698
 3721TIP3   OH235357   6.166   4.960   8.503  0.1207  0.0100  0.2154
 3721TIP3    H135358   6.130   4.971   8.592  1.5652 -1.4495  1.0226
 3721TIP3    H235359   6.170   5.049   8.469  1.3690  0.8649  2.3783
 3722TIP3   OH235360   6.194   5.405   7.873 -0.0842  0.4670 -0.2070
 3722TIP3    H135361   6.219   5.456   7.950  0.2472  0.3139 -0.2136
 3722TIP3    H235362   6.202   5.467   7.800  0.0753  0.4741 -0.1829
 3723TIP3   OH235363   2.209   2.478   8.187 -0.0380  0.5211 -0.3316
 3723TIP3    H135364   2.267   2.446   8.117 -0.6577 -1.2856 -0.0837
 3723TIP3    H235365   2.134   2.515   8.141  0.7223  1.7235 -0.6366
 3724TIP3   OH235366   0.844   7.027   9.355 -0.0672  0.3438  0.2762
 3724TIP3    H135367   0.872   7.056   9.269 -1.2271 -0.3509 -0.3590
 3724TIP3    H235368   0.850   6.931   9.351 -2.5115  0.1397  0.0672
 3725TIP3   OH235369   1.564   0.055   9.671 -0.0656 -0.2044 -0.0077
 3725TIP3    H135370   1.564  -0.032   9.631  0.1223  0.5612 -1.7683
 3725TIP3    H235371   1.480   0.059   9.719 -1.1394 -0.5531 -1.7688
 3726TIP3   OH235372   4.538   4.193   8.413  0.0009  0.1939 -0.2263
 3726TIP3    H135373   4.498   4.106   8.404  0.6849  0.0461 -2.5442
 3726TIP3    H235374   4.594   4.187   8.490 -0.9500 -1.0100  0.3916
 3727TIP3   OH235375   5.502   2.083   9.111 -0.4960 -0.1543  0.5846
 3727TIP3    H135376   5.572   2.048   9.057  0.9522  2.7317  0.3825
 3727TIP3    H235377   5.516   2.043   9.197  0.9912 -0.1775  0.3602
 3728TIP3   OH235378   1.332   2.321   9.159 -0.3603  1.0060  0.2908
 3728TIP3    H135379   1.269   2.271   9.210  0.1986 -0.2785 -0.2184
 3728TIP3    H235380   1.402   2.258   9.140  0.2092  1.9003 -0.6686
 3729TIP3   OH235381   4.128   5.337   7.369 -0.1880  0.9287 -0.7961
 3729TIP3    H135382   4.164   5.277   7.304 -1.7556 -1.2511  0.2095
 3729TIP3    H235383   4.202   5.391   7.397  1.6992 -1.6145 -0.6180
 3730TIP3   OH235384   1.446   4.541   8.495  0.0801  0.0473 -0.0591
 3730TIP3    H135385   1.438   4.468   8.433  0.8174 -1.9139  2.0098
 3730TIP3    H235386   1.535   4.533   8.530  0.5360  2.5679 -0.4115
 3731TIP3   OH235387   0.046   2.422   6.733 -0.1566  0.7877 -0.1282
 3731TIP3    H135388  -0.032   2.379   6.698  1.0873 -0.7416 -1.1294
 3731TIP3    H235389   0.012   2.482   6.800 -2.0635 -1.0673  0.6653
 3732TIP3   OH235390   1.813   5.429   7.624  0.1088 -0.4130 -0.0288
 3732TIP3    H135391   1.855   5.344   7.609 -0.1296 -0.5547  0.0956
 3732TIP3    H235392   1.740   5.431   7.562 -0.5726 -0.7843  0.7459
 3733TIP3   OH235393   2.407   7.402   8.757 -0.5084 -0.2887 -0.1891
 3733TIP3    H135394   2.320   7.364   8.766 -0.3929 -0.0526  2.7201
 3733TIP3    H235395   2.454   7.341   8.700 -1.8869 -1.6443  0.0631
 3734TIP3   OH235396   4.332   0.854   9.366  0.7158  0.1524  0.0424
 3734TIP3    H135397   4.383   0.796   9.422  2.3103  1.7478  0.3519
 3734TIP3    H235398   4.330   0.811   9.281 -1.5154 -2.1816  1.1505
 3735TIP3   OH235399   1.527   1.023   8.879  0.2582 -0.1882 -0.0955
 3735TIP3    H135400   1.601   0.999   8.824 -0.5058 -0.4656 -1.0487
 3735TIP3    H235401   1.492   0.939   8.911  0.2435 -0.0740  0.1902
 3736TIP3   OH235402   4.977   3.993   8.580 -0.2101  0.0597  0.1049
 3736TIP3    H135403   4.951   3.906   8.550 -0.3824 -0.0443  0.5583
 3736TIP3    H235404   4.938   4.053   8.517 -1.7090 -0.0796  0.8719
 3737TIP3   OH235405   4.124   2.167   7.886  0.1901 -0.3272  0.7016
 3737TIP3    H135406   4.117   2.138   7.977 -0.6754  0.6638  0.9718
 3737TIP3    H235407   4.108   2.261   7.889  1.0381 -0.1165 -0.3782
 3738TIP3   OH235408   5.019   4.373   8.842 -0.2990 -0.4110 -0.1386
 3738TIP3    H135409   5.004   4.467   8.847  0.5262 -0.2373 -0.7193
 3738TIP3    H235410   5.046   4.348   8.931 -2.1130 -0.4129  0.4459
 3739TIP3   OH235411   6.910   4.958   7.313  0.3116  0.3112 -0.5351
 3739TIP3    H135412   6.901   5.042   7.359  1.7128 -0.1974  0.7347
 3739TIP3    H235413   6.820   4.936   7.287 -0.0205  2.5614 -1.6349
 3740TIP3   OH235414   6.834   0.988   7.544 -0.0510  0.2183  0.5826
 3740TIP3    H135415   6.826   1.061   7.606  1.2501  1.3542 -0.5176
 3740TIP3    H235416   6.926   0.961   7.551  0.3231  0.8349 -1.3033
 3741TIP3   OH235417   3.142   6.328   8.054 -0.6190  0.3155  0.0735
 3741TIP3    H135418   3.219   6.297   8.007 -0.0096 -0.5268  1.5643
 3741TIP3    H235419   3.168   6.414   8.088 -0.7203  0.4885 -0.2732
 3742TIP3   OH235420   3.232   7.052   6.878  0.6066  0.1492 -0.7558
 3742TIP3    H135421   3.306   7.108   6.855  0.2445  1.8501  1.7976
 3742TIP3    H235422   3.158   7.088   6.829  0.9851 -0.0883 -1.5152
 3743TIP3   OH235423   4.814   1.833   8.752 -0.3042 -0.4474  0.0122
 3743TIP3    H135424   4.891   1.804   8.702  0.3607  0.6818  0.3332
 3743TIP3    H235425   4.797   1.921   8.719 -0.5285 -0.1131  1.0029
 3744TIP3   OH235426   5.948   6.280   6.644 -1.0005 -0.0088 -0.1296
 3744TIP3    H135427   5.882   6.348   6.656 -0.4427  0.8345 -1.5832
 3744TIP3    H235428   6.016   6.321   6.590 -0.2814 -1.4797 -0.4028
 3745TIP3   OH235429   4.106   7.154   7.831 -0.2683  0.0847  0.7206
 3745TIP3    H135430   4.080   7.126   7.743 -3.3895  0.9054  1.2610
 3745TIP3    H235431   4.077   7.245   7.837  0.1898  0.1490  2.4773
 3746TIP3   OH235432   1.171   0.256   8.382  0.2352 -0.1917 -0.7270
 3746TIP3    H135433   1.218   0.334   8.410 -0.8965  0.6338 -1.0425
 3746TIP3    H235434   1.185   0.252   8.288  0.5894 -0.5806 -0.6595
 3747TIP3   OH235435   4.588   4.351   8.919  0.6930 -0.3042  0.0749
 3747TIP3    H135436   4.633   4.403   8.986  2.4117  0.7061 -1.7378
 3747TIP3    H235437   4.600   4.260   8.948  0.9098  0.1089  1.3817
 3748TIP3   OH235438   5.925   0.194   6.763  0.7770  0.2753  0.0960
 3748TIP3    H135439   5.953   0.104   6.746 -0.4366  0.1080 -1.1879
 3748TIP3    H235440   5.995   0.248   6.728  1.3917 -0.1562  0.6368
 3749TIP3   OH235441   6.060   4.554   8.227  0.0769 -0.3040 -0.3831
 3749TIP3    H135442   6.123   4.603   8.280  0.7098  0.7914 -2.0719
 3749TIP3    H235443   5.976   4.565   8.272  0.3823  1.5740 -0.2282
 3750TIP3   OH235444   3.810   5.899   9.129 -0.2345 -0.0433  0.5532
 3750TIP3    H135445   3.763   5.917   9.210  0.0249  2.0021  0.2986
 3750TIP3    H235446   3.865   5.976   9.115  0.6208 -0.8678 -0.9571
 3751TIP3   OH235447   0.017   1.685   9.426  0.0238 -0.3237  0.1328
 3751TIP3    H135448  -0.065   1.719   9.388  1.1814 -0.6071 -2.8870
 3751TIP3    H235449   0.086   1.736   9.384  1.4978 -1.4124  1.1270
 3752TIP3   OH235450   1.117   0.021   7.735 -0.0372 -0.5231 -0.2011
 3752TIP3    H135451   1.183   0.062   7.790 -3.0305 -0.0756  3.5346
 3752TIP3    H235452   1.112   0.078   7.657  2.3093  0.6873  0.4324
 3753TIP3   OH235453   2.441   3.256   9.286 -0.2792 -0.2560  0.0073
 3753TIP3    H135454   2.441   3.328   9.223 -0.4479 -0.4388 -0.2040
 3753TIP3    H235455   2.371   3.198   9.256 -1.0675  0.1700  0.9566
 3754TIP3   OH235456   3.143   4.956   7.705 -0.1696  0.1236  0.0227
 3754TIP3    H135457   3.200   4.947   7.782  1.4685 -0.6533 -1.2007
 3754TIP3    H235458   3.085   5.029   7.726  0.1219 -0.1638  2.0357
 3755TIP3   OH235459   7.304   5.070   9.138 -0.2506  0.2025  0.1129
 3755TIP3    H135460   7.334   5.122   9.064  1.9189  0.2451  0.9564
 3755TIP3    H235461   7.331   4.981   9.117  2.0388  0.4736  1.5816
 3756TIP3   OH235462   0.948   2.596   8.602 -0.6623 -0.0559 -0.2100
 3756TIP3    H135463   0.931   2.611   8.695  2.6611 -0.6412  0.6294
 3756TIP3    H235464   0.950   2.683   8.564 -1.4680  0.2296  0.3705
 3757TIP3   OH235465   2.880   7.243   9.530  0.0562 -0.2231 -0.2393
 3757TIP3    H135466   2.814   7.235   9.598  0.2825  2.2419  0.3347
 3757TIP3    H235467   2.960   7.210   9.570 -0.2857 -0.9581 -0.1368
 3758TIP3   OH235468   0.354   2.250   7.782 -0.2098  0.0743 -0.1423
 3758TIP3    H135469   0.373   2.313   7.713 -0.0115 -0.7039 -0.8214
 3758TIP3    H235470   0.258   2.249   7.787 -0.2291  0.0908 -0.4560
 3759TIP3   OH235471   5.329   2.308   8.962  0.0117  0.6891  0.2226
 3759TIP3    H135472   5.334   2.392   9.009  0.9042  0.6755  0.1741
 3759TIP3    H235473   5.406   2.260   8.992  0.1284  0.3386 -0.6191
 3760TIP3   OH235474   0.442   3.780   9.016  0.7797 -0.6670 -0.2836
 3760TIP3    H135475   0.516   3.822   9.060  0.1507  0.6076 -0.3940
 3760TIP3    H235476   0.380   3.851   9.000 -1.0508 -1.8961  0.9166
 3761TIP3   OH235477   1.678   6.206   7.536 -0.1200  0.0812  0.2723
 3761TIP3    H135478   1.755   6.188   7.589 -1.4631 -0.7275  2.0456
 3761TIP3    H235479   1.614   6.242   7.597 -1.3981  0.0787 -1.0089
 3762TIP3   OH235480   2.742   1.806   9.049  0.3913 -0.4126  0.1141
 3762TIP3    H135481   2.728   1.857   9.128  3.1399  1.4440 -0.4286
 3762TIP3    H235482   2.660   1.812   9.001 -0.2899  1.1376  1.3864
 3763TIP3   OH235483   6.690   1.128   7.246 -0.1619 -0.2073  0.4529
 3763TIP3    H135484   6.671   1.034   7.238  0.7391 -0.4947  1.3540
 3763TIP3    H235485   6.701   1.141   7.340 -0.5842  0.8782  0.3609
 3764TIP3   OH235486   7.105   6.043   8.161 -0.1752 -0.3992  0.3697
 3764TIP3    H135487   7.137   6.082   8.079 -0.0082 -2.1150 -0.4130
 3764TIP3    H235488   7.124   6.110   8.227  1.7739  0.1289 -0.6292
 3765TIP3   OH235489   1.127   4.530   8.137 -0.0539  0.4106 -0.0416
 3765TIP3    H135490   1.146   4.624   8.137  1.4507  0.1652 -1.5949
 3765TIP3    H235491   1.041   4.523   8.095  0.3008  1.0531 -0.9143
 3766TIP3   OH235492   3.819   2.574   7.117  0.8480 -0.6888 -0.2898
 3766TIP3    H135493   3.787   2.490   7.083 -1.2100  0.5270 -1.5321
 3766TIP3    H235494   3.825   2.630   7.040  0.1681  0.9110  0.7813
 3767TIP3   OH235495   6.569   1.275   8.501 -0.1200  0.4484  0.1424
 3767TIP3    H135496   6.622   1.354   8.501 -0.8071  0.9336  1.1695
 3767TIP3    H235497   6.481   1.305   8.522 -0.7476 -0.3800 -1.1921
 3768TIP3   OH235498   7.478   0.358   8.871  0.4393 -0.4672  0.2358
 3768TIP3    H135499   7.474   0.293   8.941 -2.7942  0.2982  0.8986
 3768TIP3    H235500   7.559   0.406   8.888  2.3532 -3.4781  0.3800
 3769TIP3   OH235501   4.579   4.170   7.483  0.1138 -0.0342 -0.2373
 3769TIP3    H135502   4.528   4.098   7.518  0.9226 -0.7373 -0.4775
 3769TIP3    H235503   4.633   4.199   7.556  0.6360 -0.4484 -0.4525
 3770TIP3   OH235504   0.248   7.181   7.978 -0.3630  0.5497 -0.1110
 3770TIP3    H135505   0.272   7.273   7.960  0.5646  0.2405 -0.5400
 3770TIP3    H235506   0.176   7.163   7.917 -0.3463  0.9050 -0.2400
 3771TIP3   OH235507   1.190   2.028   8.192  0.0416  0.0869  0.0082
 3771TIP3    H135508   1.186   2.036   8.287 -1.2423 -1.0935  0.0887
 3771TIP3    H235509   1.199   2.118   8.160 -3.5666  0.9901  1.1164
 3772TIP3   OH235510   2.360   4.152   8.397  0.1109 -0.5423  0.2814
 3772TIP3    H135511   2.300   4.217   8.361 -2.5566 -2.2432  1.3866
 3772TIP3    H235512   2.434   4.204   8.429 -0.9593  1.7190 -0.6503
 3773TIP3   OH235513   2.905   4.050   8.888 -0.1158 -0.1549 -0.2254
 3773TIP3    H135514   2.948   3.966   8.901  2.8046  1.1175 -0.7723
 3773TIP3    H235515   2.913   4.066   8.794  0.0668  1.0518 -0.0153
 3774TIP3   OH235516   6.068   3.332   8.366  0.4276 -0.1997  0.1199
 3774TIP3    H135517   6.123   3.410   8.369 -1.0908  0.9650 -0.7729
 3774TIP3    H235518   6.025   3.337   8.280 -1.2307 -0.9235  0.8639
 3775TIP3   OH235519   0.143   1.077   6.886 -0.4703 -0.3361 -0.0161
 3775TIP3    H135520   0.146   1.171   6.901  0.2931  0.1174 -2.5321
 3775TIP3    H235521   0.050   1.056   6.877 -0.6257  0.2032  0.3067
 3776TIP3   OH235522   1.315   1.144   8.655 -0.2308  0.4195 -0.0077
 3776TIP3    H135523   1.332   1.079   8.723 -0.4424  1.2408  0.8709
 3776TIP3    H235524   1.395   1.146   8.602 -0.9788 -1.9987 -1.3487
 3777TIP3   OH235525   4.847   5.612   8.518 -0.1986  0.4747  1.0469
 3777TIP3    H135526   4.894   5.542   8.471 -0.7970  0.1299  0.9524
 3777TIP3    H235527   4.853   5.688   8.460  1.3199  0.8046  1.5896
 3778TIP3   OH235528   7.581   7.012   8.175  0.1757  0.4890  0.1929
 3778TIP3    H135529   7.665   7.045   8.206  0.9232 -2.6334  1.9366
 3778TIP3    H235530   7.595   6.993   8.083  2.0870 -1.7131  0.8601
 3779TIP3   OH235531   3.794   0.332   8.755  0.0093 -0.2309 -0.0410
 3779TIP3    H135532   3.786   0.368   8.667  2.2882 -0.4310 -0.4090
 3779TIP3    H235533   3.768   0.240   8.746  1.6088 -0.6358 -0.8790
 3780TIP3   OH235534   6.186   4.693   8.431  0.4785  0.0908 -0.2914
 3780TIP3    H135535   6.104   4.670   8.473  1.3411 -1.6767  0.5375
 3780TIP3    H235536   6.194   4.787   8.444 -0.9281  0.1300  0.4767
 3781TIP3   OH235537   3.128   4.390   7.573 -0.3683  0.0652  0.0457
 3781TIP3    H135538   3.100   4.348   7.492 -0.8780 -0.8698  0.6850
 3781TIP3    H235539   3.219   4.415   7.557 -0.5568  0.1758 -0.9172
 3782TIP3   OH235540   2.099   1.090   7.023 -0.4554 -0.4480  0.0230
 3782TIP3    H135541   2.175   1.103   6.965  0.3144 -1.0404  0.8704
 3782TIP3    H235542   2.030   1.144   6.984  0.4050  0.1241 -0.7638
 3783TIP3   OH235543   4.348   3.162   6.953 -0.2902 -0.0480 -0.4043
 3783TIP3    H135544   4.423   3.222   6.946 -0.1596 -0.2096 -0.3865
 3783TIP3    H235545   4.380   3.091   7.008 -1.2597  1.1523  1.8514
 3784TIP3   OH235546   0.500   0.097   7.977 -0.4265 -0.1605  0.2869
 3784TIP3    H135547   0.558   0.022   7.986  0.1763  0.2201 -0.3109
 3784TIP3    H235548   0.558   0.169   7.951 -0.8879  0.6613  1.4360
 3785TIP3   OH235549   4.115   4.895   8.614 -0.1827 -0.6717 -0.4600
 3785TIP3    H135550   4.127   4.815   8.664  2.0814  0.1537  0.4754
 3785TIP3    H235551   4.159   4.878   8.531  0.1774 -0.4810 -0.3141
 3786TIP3   OH235552   3.473   3.314   7.965 -0.0536  0.1581  0.0042
 3786TIP3    H135553   3.510   3.361   7.890  0.6371 -1.6468 -0.8573
 3786TIP3    H235554   3.379   3.333   7.961  0.0148  0.3255 -1.1572
 3787TIP3   OH235555   1.532   1.511   8.418 -0.2058  0.1433  0.0464
 3787TIP3    H135556   1.529   1.504   8.323  0.0754  0.0810  0.0431
 3787TIP3    H235557   1.620   1.542   8.438 -0.4911  0.8489  0.2461
 3788TIP3   OH235558   5.945   7.043   8.864  0.2215  0.0425 -0.1054
 3788TIP3    H135559   5.933   7.002   8.950 -0.3681 -0.4858 -0.4266
 3788TIP3    H235560   5.964   7.134   8.883 -2.5184  0.5614  0.5519
 3789TIP3   OH235561   5.414   0.498   8.074  0.4263 -0.1316 -0.2878
 3789TIP3    H135562   5.403   0.528   7.984 -0.2899  0.1188 -0.1233
 3789TIP3    H235563   5.427   0.578   8.125 -0.7495 -0.1279  0.0446
 3790TIP3   OH235564   7.666   0.975   9.173 -0.7294  0.3599  0.7719
 3790TIP3    H135565   7.760   0.960   9.178 -1.1806 -2.8803  1.8794
 3790TIP3    H235566   7.645   1.021   9.255 -0.3835 -1.0618  1.6862
 3791TIP3   OH235567   4.540   7.003   6.838  0.2074 -0.1099 -0.3174
 3791TIP3    H135568   4.488   7.012   6.918 -1.4095 -1.6222 -1.1266
 3791TIP3    H235569   4.630   6.989   6.869  0.3080  2.9406  1.1200
 3792TIP3   OH235570   5.595   0.374   8.491 -0.4378 -0.1660  0.1646
 3792TIP3    H135571   5.630   0.401   8.406 -0.4442  1.2111  0.5840
 3792TIP3    H235572   5.641   0.292   8.510 -0.9107 -0.8565 -1.4462
 3793TIP3   OH235573   3.319   4.651   8.596  0.1804 -0.3761  0.6435
 3793TIP3    H135574   3.282   4.639   8.683 -1.3493 -2.1851 -0.1684
 3793TIP3    H235575   3.334   4.562   8.564 -0.0793  0.1967 -1.2314
 3794TIP3   OH235576   7.362   5.402   7.783  0.2054 -0.4666  0.8048
 3794TIP3    H135577   7.378   5.369   7.694  0.4582  0.2272  0.5811
 3794TIP3    H235578   7.307   5.480   7.770  1.3190  0.3980  1.1454
 3795TIP3   OH235579   5.150   5.748   9.682 -0.4566 -0.0151 -0.0819
 3795TIP3    H135580   5.189   5.691   9.616  0.2690 -0.8451  1.0362
 3795TIP3    H235581   5.214   5.751   9.752 -1.3692  0.5592  0.7481
 3796TIP3   OH235582   2.333   3.395   7.594  0.1736 -0.3262  0.3431
 3796TIP3    H135583   2.417   3.369   7.631  0.0678  0.0937  0.8777
 3796TIP3    H235584   2.316   3.330   7.526  1.5803  0.3468 -0.7074
 3797TIP3   OH235585   3.382   0.490   9.500  0.3819 -0.3911  0.1537
 3797TIP3    H135586   3.383   0.540   9.418  0.7952 -3.0261 -1.5558
 3797TIP3    H235587   3.446   0.535   9.556 -1.3442  2.6521 -0.0947
 3798TIP3   OH235588   2.858   5.034   8.433  0.2472 -0.0008 -0.4161
 3798TIP3    H135589   2.767   5.017   8.457 -0.1071  0.2935 -1.4747
 3798TIP3    H235590   2.853   5.063   8.342  1.8252 -4.7265 -2.2985
 3799TIP3   OH235591   1.160   1.247   9.514 -0.5417 -0.1385  0.0685
 3799TIP3    H135592   1.103   1.307   9.563 -0.5038 -2.0178  2.5699
 3799TIP3    H235593   1.102   1.208   9.449 -1.2920  0.3961  0.4004
 3800TIP3   OH235594   6.179   0.866   8.206 -0.2024 -0.4165 -0.7614
 3800TIP3    H135595   6.257   0.920   8.196 -0.5315  0.0407 -0.8786
 3800TIP3    H235596   6.182   0.836   8.297 -0.1633  0.0238 -0.6166
 3801TIP3   OH235597   6.849   6.953   8.094  0.6015  0.2326 -0.1649
 3801TIP3    H135598   6.789   7.012   8.140  3.1501  1.8982  1.2936
 3801TIP3    H235599   6.936   6.986   8.115  2.2583 -3.9145  0.5199
 3802TIP3   OH235600   3.268   1.478   7.709  0.2639 -0.4627  0.5951
 3802TIP3    H135601   3.304   1.394   7.681  0.9604  0.3534 -1.1074
 3802TIP3    H235602   3.333   1.514   7.769  0.1681 -0.9326  0.9879
 3803TIP3   OH235603   0.925   6.985   8.844 -0.0337  0.3713  0.4605
 3803TIP3    H135604   0.854   7.002   8.781  0.0310 -4.0505 -1.0894
 3803TIP3    H235605   1.005   7.006   8.797 -0.0852  1.2424  0.7226
 3804TIP3   OH235606   7.523   4.160   7.320  0.2517  0.3145  0.1080
 3804TIP3    H135607   7.518   4.188   7.229  2.9188 -0.0075 -0.2179
 3804TIP3    H235608   7.518   4.241   7.371  0.1223  0.6330 -0.4036
 3805TIP3   OH235609   4.849   2.156   7.633  0.6459  0.1291 -0.4766
 3805TIP3    H135610   4.901   2.236   7.636  1.4825 -0.4273  0.0060
 3805TIP3    H235611   4.790   2.163   7.708  0.6118  0.3662 -0.5258
 3806TIP3   OH235612   6.893   7.358   8.094  0.0507 -0.2668  0.0228
 3806TIP3    H135613   6.800   7.376   8.091  0.1698  0.6381  0.9436
 3806TIP3    H235614   6.912   7.347   8.188  0.7478 -1.0997 -0.2014
 3807TIP3   OH235615   6.004   1.199   7.320  0.0813 -0.7721 -0.2165
 3807TIP3    H135616   6.081   1.173   7.371 -0.4862 -1.0754  0.5110
 3807TIP3    H235617   5.938   1.134   7.343 -1.5242  1.4388  1.9633
 3808TIP3   OH235618   4.067   3.937   8.733  0.0394 -0.2770 -0.1737
 3808TIP3    H135619   4.093   3.975   8.649 -1.4441  0.1736 -0.4561
 3808TIP3    H235620   4.150   3.907   8.772  0.8593  0.3005 -1.3866
 3809TIP3   OH235621   1.416   3.385   7.844 -0.0066  0.1414  0.0115
 3809TIP3    H135622   1.422   3.289   7.852 -0.9632  0.1340  0.9167
 3809TIP3    H235623   1.440   3.403   7.753  0.1861 -0.9645 -0.1716
 3810TIP3   OH235624   1.613   3.702   7.151  0.0284  0.6321  0.0378
 3810TIP3    H135625   1.632   3.750   7.232  0.0006  1.9329 -0.6974
 3810TIP3    H235626   1.693   3.710   7.099 -0.2811  0.6239 -0.4445
 3811TIP3   OH235627   5.783   5.401   9.242  0.0030 -0.1042  0.5905
 3811TIP3    H135628   5.735   5.453   9.178 -0.6440 -0.9051  0.4169
 3811TIP3    H235629   5.875   5.416   9.221 -0.2042 -0.2579 -0.4463
 3812TIP3   OH235630   0.441   4.018   8.065 -0.0113 -0.1659  0.2722
 3812TIP3    H135631   0.516   3.968   8.034  1.3746  1.1032  1.3935
 3812TIP3    H235632   0.377   3.952   8.092  1.6422 -1.3526  1.4875
 3813TIP3   OH235633   3.383   4.486   8.055  0.4191  0.0033  0.1592
 3813TIP3    H135634   3.467   4.446   8.030 -0.0744 -1.3648  0.5768
 3813TIP3    H235635   3.318   4.420   8.033 -0.4903  0.7701  0.4895
 3814TIP3   OH235636   5.977   2.345   7.219 -0.2464 -0.2685  0.1125
 3814TIP3    H135637   5.990   2.284   7.146  0.4654  1.1695 -1.0275
 3814TIP3    H235638   5.892   2.385   7.202 -0.2229 -0.1625  0.2495
 3815TIP3   OH235639   1.698   6.900   9.030  0.1201 -0.1753 -0.0710
 3815TIP3    H135640   1.668   6.825   8.980  1.2380 -1.1159  0.6347
 3815TIP3    H235641   1.776   6.870   9.076  0.9734  1.5905 -0.2540
 3816TIP3   OH235642   2.366   4.115   9.688 -0.4170  0.0541  0.1094
 3816TIP3    H135643   2.302   4.132   9.619  0.7673 -1.0770 -1.3182
 3816TIP3    H235644   2.356   4.021   9.707  0.8106 -0.1432 -0.1539
 3817TIP3   OH235645   7.369   3.238   8.315 -0.5278 -0.1975  1.0399
 3817TIP3    H135646   7.348   3.145   8.312 -0.1492 -0.2757  0.7697
 3817TIP3    H235647   7.459   3.242   8.344 -1.0775  0.1662  2.8104
 3818TIP3   OH235648   6.275   0.437   6.375 -0.1661 -0.5988 -0.4129
 3818TIP3    H135649   6.222   0.461   6.451 -0.8402 -0.3628 -0.9444
 3818TIP3    H235650   6.281   0.518   6.324 -0.5523 -0.9956 -1.0993
 3819TIP3   OH235651   1.632   0.548   7.700  0.1693  0.8857 -0.1740
 3819TIP3    H135652   1.573   0.581   7.632  1.0732  1.8385 -0.5157
 3819TIP3    H235653   1.658   0.461   7.668 -0.2525  0.8782 -0.5109
 3820TIP3   OH235654   5.713   3.422   7.330  0.2398  0.6488  0.0044
 3820TIP3    H135655   5.655   3.392   7.400  0.8487 -1.4818 -0.3251
 3820TIP3    H235656   5.725   3.345   7.275  2.6625  1.2827 -0.4426
 3821TIP3   OH235657   6.330   4.706   7.916 -0.8216  0.1552  0.1810
 3821TIP3    H135658   6.369   4.667   7.837  3.8592 -1.3657  2.8718
 3821TIP3    H235659   6.261   4.645   7.942 -1.5233 -0.0108 -1.8723
 3822TIP3   OH235660   4.136   4.220   7.050  0.4415  0.2122  0.1693
 3822TIP3    H135661   4.094   4.138   7.023  0.8840 -0.2717  0.9177
 3822TIP3    H235662   4.203   4.236   6.984  1.2336 -0.7340  0.7269
 3823TIP3   OH235663   3.103   6.138   7.547  0.5144 -0.5231 -0.3040
 3823TIP3    H135664   3.180   6.195   7.548  0.5123 -0.5076 -0.7657
 3823TIP3    H235665   3.029   6.198   7.535  0.4226 -0.5306  0.2156
 3824TIP3   OH235666   1.570   0.394   7.931  0.4482  0.0737 -0.4333
 3824TIP3    H135667   1.618   0.401   7.849  0.5788 -2.7430 -0.6828
 3824TIP3    H235668   1.633   0.358   7.993 -0.2167  0.2549  0.3730
 3825TIP3   OH235669   6.599   2.186   7.552 -0.2614  0.4051  0.0471
 3825TIP3    H135670   6.510   2.216   7.537 -0.0002  2.2702  1.6758
 3825TIP3    H235671   6.632   2.243   7.622  2.9224  1.2849 -1.9320
 3826TIP3   OH235672   0.208   2.251   9.136 -0.5834  0.0613 -0.1539
 3826TIP3    H135673   0.168   2.189   9.196  0.1879  0.7537  1.1402
 3826TIP3    H235674   0.282   2.204   9.097 -1.1337 -0.4154 -0.6271
 3827TIP3   OH235675   4.911   5.848   7.230 -0.0385 -0.6535 -0.0927
 3827TIP3    H135676   4.853   5.856   7.306  1.0113 -0.2140  0.6886
 3827TIP3    H235677   4.875   5.908   7.165  0.0860  0.3587  0.7492
 3828TIP3   OH235678   6.515   3.990   7.545  0.2634 -0.0927  0.0032
 3828TIP3    H135679   6.574   3.919   7.520 -0.9366 -1.0390 -0.2598
 3828TIP3    H235680   6.542   4.013   7.634  0.3889 -1.1995  0.2705
 3829TIP3   OH235681   3.544   6.498   9.300  0.5723 -0.2704 -0.0295
 3829TIP3    H135682   3.463   6.549   9.296  0.0002 -1.1266  0.2600
 3829TIP3    H235683   3.515   6.409   9.318  1.5179 -0.7914 -0.9806
 3830TIP3   OH235684   4.008   0.713   9.375  0.0376  0.0710 -0.3319
 3830TIP3    H135685   3.944   0.645   9.395 -0.9716  0.8290 -0.8978
 3830TIP3    H235686   4.083   0.693   9.432 -0.5003 -1.1055 -0.0061
 3831TIP3   OH235687   5.797   7.106   7.690  0.4135 -0.0183  0.5624
 3831TIP3    H135688   5.876   7.055   7.671  0.9218  1.3580 -1.3845
 3831TIP3    H235689   5.826   7.174   7.751  0.7039  0.3072  0.0772
 3832TIP3   OH235690   4.667   3.412   7.640 -0.3978  0.5546  0.3400
 3832TIP3    H135691   4.754   3.379   7.616 -0.7657 -1.1955  1.2627
 3832TIP3    H235692   4.661   3.497   7.596 -0.1491 -1.3306 -3.8687
 3833TIP3   OH235693   2.517   7.481   7.156  0.0352 -0.7803  0.3397
 3833TIP3    H135694   2.513   7.390   7.185 -2.0029 -1.2664 -1.2614
 3833TIP3    H235695   2.426   7.504   7.137  0.5416  1.5267  0.4355
 3834TIP3   OH235696   4.644   1.199   8.246  0.1489  0.4979  0.2067
 3834TIP3    H135697   4.714   1.239   8.297 -0.0791 -0.4090  1.2641
 3834TIP3    H235698   4.682   1.118   8.213 -0.9834 -1.1089  2.5792
 3835TIP3   OH235699   7.032   2.736   7.740  0.2025 -0.4413 -0.1512
 3835TIP3    H135700   7.073   2.744   7.826 -0.8770  0.4013  0.3002
 3835TIP3    H235701   7.004   2.825   7.718 -0.5028 -0.8311 -0.8746
 3836TIP3   OH235702   1.919   6.975   8.176 -0.3657  0.4204 -0.0851
 3836TIP3    H135703   1.980   6.977   8.102 -1.2169 -0.5224 -0.8516
 3836TIP3    H235704   1.871   7.058   8.170  0.0376  0.6529 -0.1629
 3837TIP3   OH235705   6.947   5.570   7.413  0.1122 -0.0140  0.2791
 3837TIP3    H135706   6.861   5.529   7.412 -0.1710  0.4219  2.1629
 3837TIP3    H235707   6.972   5.575   7.321 -1.8418 -0.1994 -0.3187
 3838TIP3   OH235708   3.193   4.250   8.031  0.3426  0.2004  0.0718
 3838TIP3    H135709   3.255   4.197   8.081  1.0464 -0.2360 -1.2019
 3838TIP3    H235710   3.109   4.205   8.040  0.4145  0.2287  0.9808
 3839TIP3   OH235711   5.729   3.711   7.387  0.5710 -0.2097 -0.0466
 3839TIP3    H135712   5.660   3.763   7.345 -0.3695 -1.6630 -0.3908
 3839TIP3    H235713   5.713   3.621   7.356  2.6221 -0.6017 -0.1212
 3840TIP3   OH235714   7.327   1.797   9.279  0.0264  0.0588 -0.1480
 3840TIP3    H135715   7.276   1.874   9.251 -0.7204 -0.9618 -1.7518
 3840TIP3    H235716   7.266   1.746   9.333 -0.3775 -0.6873 -1.2757
 3841TIP3   OH235717   3.270   6.288   8.561 -0.5324  0.9752 -0.4295
 3841TIP3    H135718   3.296   6.380   8.570 -0.1573  0.8825 -0.5296
 3841TIP3    H235719   3.261   6.257   8.651  3.9046 -0.1498 -0.1584
 3842TIP3   OH235720   6.744   4.876   8.759  0.0914 -0.0420 -0.1359
 3842TIP3    H135721   6.809   4.885   8.689 -0.1348 -0.8107 -0.4579
 3842TIP3    H235722   6.739   4.963   8.799  0.8787  0.1785 -0.4940
 3843TIP3   OH235723   2.671   5.915   8.883  0.3972 -0.3336  0.1313
 3843TIP3    H135724   2.698   5.897   8.793  0.1687 -1.0659  0.2041
 3843TIP3    H235725   2.590   5.964   8.875  0.4691 -0.2463 -0.0615
 3844TIP3   OH235726   4.179   2.741   9.085 -0.4504  0.5707 -0.2583
 3844TIP3    H135727   4.174   2.715   9.177  3.1668  2.6973  0.7541
 3844TIP3    H235728   4.236   2.675   9.045 -1.4019  0.0763 -0.8251
 3845TIP3   OH235729   6.938   3.738   9.343  0.7175  0.1051 -0.2649
 3845TIP3    H135730   7.024   3.695   9.340  0.0288 -1.4104  0.7524
 3845TIP3    H235731   6.876   3.670   9.319 -0.1722  1.4595 -2.0454
 3846TIP3   OH235732   1.756   1.321   8.990 -0.3670 -0.3683 -0.0621
 3846TIP3    H135733   1.710   1.405   8.990  1.0631  0.4601 -0.5939
 3846TIP3    H235734   1.822   1.330   9.060 -0.0856 -0.9695 -0.2413
 3847TIP3   OH235735   7.291   6.044   8.520  0.3618 -0.5230  0.1239
 3847TIP3    H135736   7.382   6.024   8.543  0.8859  1.8984  0.4186
 3847TIP3    H235737   7.289   6.140   8.512 -2.0796 -0.5552 -0.2893
 3848TIP3   OH235738   5.592   7.128   8.088 -0.1199  0.3710 -0.1409
 3848TIP3    H135739   5.657   7.187   8.126  0.6239  0.4720 -1.4955
 3848TIP3    H235740   5.558   7.176   8.012 -0.0789 -0.6129 -0.7952
 3849TIP3   OH235741   2.457   4.111   7.448  0.3350 -0.2502  0.2781
 3849TIP3    H135742   2.455   4.087   7.355  0.3198 -0.1321  0.2470
 3849TIP3    H235743   2.366   4.108   7.476  0.2624  0.3486  0.1217
 3850TIP3   OH235744   5.176   6.420   8.621 -0.6887 -0.0792 -0.0095
 3850TIP3    H135745   5.150   6.421   8.529 -1.9183 -0.5037  0.3138
 3850TIP3    H235746   5.149   6.505   8.655 -0.1107  0.1305 -0.0687
 3851TIP3   OH235747   3.202   6.879   7.394 -0.4505  0.4578 -0.1498
 3851TIP3    H135748   3.135   6.929   7.348  0.0134  0.3821 -0.9386
 3851TIP3    H235749   3.154   6.809   7.438 -1.1557  1.7765  1.2755
 3852TIP3   OH235750   6.432   1.689   8.621  0.3128 -0.0001  0.3588
 3852TIP3    H135751   6.366   1.745   8.580 -0.4490 -1.1102  0.0240
 3852TIP3    H235752   6.384   1.609   8.645  1.0842 -0.0376  1.9556
 3853TIP3   OH235753   3.094   1.157   7.766 -0.4520  0.2444 -0.3978
 3853TIP3    H135754   3.185   1.170   7.739 -0.7768  0.4421 -1.4042
 3853TIP3    H235755   3.099   1.090   7.835  0.4639  0.3522 -0.3481
 3854TIP3   OH235756   4.530   3.940   8.299  0.2102  0.2103  0.0547
 3854TIP3    H135757   4.538   3.960   8.206 -0.8754 -0.1203 -0.1185
 3854TIP3    H235758   4.485   3.856   8.302  0.7076 -0.0334  0.8691
 3855TIP3   OH235759   6.445   3.968   8.309 -0.6974  0.3642  0.3815
 3855TIP3    H135760   6.444   3.875   8.286 -2.8949  0.6300 -0.9194
 3855TIP3    H235761   6.537   3.991   8.311 -0.1094 -1.7782  0.4467
 3856TIP3   OH235762   4.052   5.548   8.472 -0.1115 -0.3487 -0.0898
 3856TIP3    H135763   4.085   5.635   8.492 -0.6788 -0.2823  0.6405
 3856TIP3    H235764   4.129   5.491   8.474  0.1343 -0.0084  0.3612
 3857TIP3   OH235765   6.641   5.046   6.818  0.1714  0.3218 -0.3577
 3857TIP3    H135766   6.734   5.033   6.802  0.0081 -1.7815  0.0358
 3857TIP3    H235767   6.598   4.994   6.749 -0.7472  1.9406 -1.0524
 3858TIP3   OH235768   5.071   3.287   8.573  0.0582  0.0148 -0.1338
 3858TIP3    H135769   5.072   3.374   8.532  0.2775  0.7158  1.3081
 3858TIP3    H235770   4.999   3.292   8.635  0.8516 -0.4160  0.8286
 3859TIP3   OH235771   0.593   1.043   8.062 -0.4577  0.1395 -0.0989
 3859TIP3    H135772   0.630   1.121   8.102 -1.1523 -0.9098  2.8764
 3859TIP3    H235773   0.499   1.050   8.081 -0.6241 -1.0475 -0.4442
 3860TIP3   OH235774   5.883   5.800   7.157 -0.0042 -0.2707  0.3488
 3860TIP3    H135775   5.954   5.833   7.212 -0.2818  0.5176  0.2490
 3860TIP3    H235776   5.906   5.828   7.069  0.3536 -1.3873  0.0700
 3861TIP3   OH235777   4.483   6.451   7.396  0.1758  0.0049  0.1923
 3861TIP3    H135778   4.523   6.368   7.369 -0.4665 -0.5581  0.9022
 3861TIP3    H235779   4.458   6.493   7.314 -0.4958 -1.0260 -0.1543
 3862TIP3   OH235780   2.495   6.437   8.947  0.3856 -0.3957 -1.0732
 3862TIP3    H135781   2.542   6.353   8.941  1.7796  0.3660 -1.2817
 3862TIP3    H235782   2.407   6.413   8.974  0.9536 -1.8902 -0.4194
 3863TIP3   OH235783   5.994   3.654   7.363  0.1449  0.5707  0.1453
 3863TIP3    H135784   6.045   3.712   7.419 -1.8826  1.7594  0.8918
 3863TIP3    H235785   5.903   3.675   7.384 -0.6818 -0.4054 -2.1575
 3864TIP3   OH235786   4.664   6.992   7.589  0.3715  0.3149 -0.0682
 3864TIP3    H135787   4.734   7.033   7.537 -0.5125  0.4045 -1.2231
 3864TIP3    H235788   4.595   7.059   7.593 -0.5461 -0.5476 -0.8403
 3865TIP3   OH235789   6.273   6.282   8.473  0.0152 -0.0181  0.2952
 3865TIP3    H135790   6.269   6.349   8.405  0.9027  0.1969  0.4448
 3865TIP3    H235791   6.256   6.200   8.427 -2.2825  0.3862  0.3001
 3866TIP3   OH235792   0.767   1.895   8.544  0.3635  0.5972  0.1941
 3866TIP3    H135793   0.765   1.869   8.636 -0.7844  0.1888  0.0752
 3866TIP3    H235794   0.805   1.983   8.544 -0.1866  0.8464  1.1289
 3867TIP3   OH235795   7.642   2.572   7.361  0.4580  0.1700  0.2049
 3867TIP3    H135796   7.625   2.515   7.436 -1.0139  0.6955  0.3045
 3867TIP3    H235797   7.625   2.517   7.285 -1.2153  0.5138  0.3024
 3868TIP3   OH235798   0.221   6.629   8.935 -0.3278 -0.0544  0.7427
 3868TIP3    H135799   0.292   6.597   8.880 -2.2684 -1.3218 -1.1683
 3868TIP3    H235800   0.246   6.719   8.956  1.4597 -0.2222 -0.4913
 3869TIP3   OH235801   4.859   5.923   8.988 -0.6666 -0.0725  0.3156
 3869TIP3    H135802   4.892   5.834   8.977 -0.4487 -0.1224  1.2703
 3869TIP3    H235803   4.765   5.912   9.004 -0.6988 -0.1125  0.0915
 3870TIP3   OH235804   5.885   3.940   7.223 -0.2867  0.9162 -0.4073
 3870TIP3    H135805   5.883   3.902   7.311  2.0309  1.5865  0.0007
 3870TIP3    H235806   5.797   3.974   7.210 -0.7566  0.6037  1.5516
 3871TIP3   OH235807   7.046   5.045   9.544  0.6255  0.7605  0.1842
 3871TIP3    H135808   7.125   5.090   9.514 -0.0039  1.7064 -0.0719
 3871TIP3    H235809   7.020   4.990   9.470 -0.2876  2.2463 -0.6417
 3872TIP3   OH235810   6.248   5.417   8.277 -0.1093 -0.4050 -0.1740
 3872TIP3    H135811   6.171   5.385   8.230  0.3086  0.5331 -1.5495
 3872TIP3    H235812   6.281   5.489   8.224  1.5386 -0.5692  0.5539
 3873TIP3   OH235813   0.095   0.829   7.563 -0.1899 -0.1982 -0.3278
 3873TIP3    H135814   0.080   0.863   7.651 -0.7417  1.5677 -1.0535
 3873TIP3    H235815   0.076   0.903   7.506  0.7228 -1.1322 -1.9073
 3874TIP3   OH235816   5.251   5.742   8.808  0.1268  0.4160  0.0901
 3874TIP3    H135817   5.277   5.783   8.725  1.6040 -0.6835 -0.0275
 3874TIP3    H235818   5.158   5.724   8.797  0.2720  0.3676 -1.2992
 3875TIP3   OH235819   6.126   1.054   7.990 -0.1670  0.4092  0.1805
 3875TIP3    H135820   6.116   1.003   7.910 -0.8924  0.0863  0.4680
 3875TIP3    H235821   6.105   0.993   8.061  1.2841  0.4453  0.6879
 3876TIP3   OH235822   2.806   6.507   8.345  0.3514 -0.2417  0.2906
 3876TIP3    H135823   2.854   6.441   8.396  0.5630 -1.7372 -1.7089
 3876TIP3    H235824   2.874   6.560   8.304  0.2137  0.2237  0.6694
 3877TIP3   OH235825   7.590   6.600   9.029 -0.5720 -0.4491 -0.1087
 3877TIP3    H135826   7.521   6.659   8.997 -0.1018  0.6576  0.8648
 3877TIP3    H235827   7.664   6.617   8.971 -0.3443  0.1306  0.3511
 3878TIP3   OH235828   4.253   1.043   8.527  0.0840  0.2574 -0.0137
 3878TIP3    H135829   4.278   0.957   8.561  1.2218  0.7141  0.3350
 3878TIP3    H235830   4.180   1.070   8.583  0.1551 -0.1925  0.3077
 3879TIP3   OH235831   3.068   1.069   8.269  0.4340  0.1237 -0.0030
 3879TIP3    H135832   3.076   0.973   8.264  2.3983  0.2965 -1.0315
 3879TIP3    H235833   3.051   1.086   8.362 -3.9301 -1.3770 -0.2819
 3880TIP3   OH235834   4.171   5.216   9.625  0.1011 -0.7429  0.6651
 3880TIP3    H135835   4.129   5.298   9.653  0.1795 -0.7024  0.6645
 3880TIP3    H235836   4.242   5.244   9.567 -0.1562 -0.8310  0.2988
 3881TIP3   OH235837   0.654   1.154   9.438 -0.0544 -0.1706 -0.0408
 3881TIP3    H135838   0.597   1.230   9.447 -0.0520 -0.0430 -1.0206
 3881TIP3    H235839   0.696   1.165   9.353  2.5212  0.4559  1.2065
 3882TIP3   OH235840   1.610   5.875   8.314  0.6294  0.0772 -0.5597
 3882TIP3    H135841   1.574   5.853   8.399 -2.3736 -1.4545 -2.0864
 3882TIP3    H235842   1.605   5.971   8.309 -1.0754  0.0602  0.2287
 3883TIP3   OH235843   1.050   7.233   8.977  0.2326 -0.1690  0.0732
 3883TIP3    H135844   1.144   7.247   8.971  0.4198 -1.2045  0.3861
 3883TIP3    H235845   1.040   7.159   9.036 -0.7484 -0.5263 -0.5118
 3884TIP3   OH235846   3.989   1.311   8.700 -0.4215 -0.2959 -0.5257
 3884TIP3    H135847   3.953   1.379   8.757 -0.3049  0.7369 -1.6327
 3884TIP3    H235848   4.078   1.340   8.682 -0.6857 -0.1985 -1.7950
 3885TIP3   OH235849   3.990   4.294   8.309  0.0279  0.0427 -0.1243
 3885TIP3    H135850   3.917   4.339   8.267  0.1971  2.2239  1.7443
 3885TIP3    H235851   3.951   4.250   8.384  0.4479  0.1388  0.1534
 3886TIP3   OH235852   6.643   4.266   8.195 -0.1295 -0.5426 -0.0382
 3886TIP3    H135853   6.692   4.191   8.161 -0.5620 -0.7753 -0.1498
 3886TIP3    H235854   6.673   4.340   8.142  0.1723 -0.6635 -0.0409
 3887TIP3   OH235855   6.221   2.734   8.366 -0.0118 -0.2718  0.1586
 3887TIP3    H135856   6.299   2.743   8.420 -0.4038 -0.5338  0.7711
 3887TIP3    H235857   6.149   2.730   8.428 -0.7681  2.2686 -0.4397
 3888TIP3   OH235858   1.543   3.317   8.722  0.3341  0.6455 -0.5381
 3888TIP3    H135859   1.529   3.283   8.811  2.2980 -1.6079 -1.0005
 3888TIP3    H235860   1.588   3.401   8.736  1.8705 -0.3113  0.6408
 3889TIP3   OH235861   7.439   3.745   7.867  0.1142  0.2356  0.0089
 3889TIP3    H135862   7.447   3.753   7.772 -1.5432  2.8230 -0.0262
 3889TIP3    H235863   7.429   3.651   7.883 -0.1783 -0.2116 -2.4334
 3890TIP3   OH235864   3.038   0.751   6.874  0.0793 -0.6967  0.2730
 3890TIP3    H135865   2.973   0.783   6.936 -0.8565 -2.0568  0.0333
 3890TIP3    H235866   3.122   0.784   6.907 -0.3975 -1.3481  2.2116
 3891TIP3   OH235867   7.411   4.285   8.637  0.7544  0.1108 -0.3838
 3891TIP3    H135868   7.434   4.192   8.630 -0.9810 -0.5178  1.3919
 3891TIP3    H235869   7.471   4.320   8.703 -1.7069 -1.0147  2.6522
 3892TIP3   OH235870   1.842   4.096   9.162 -1.1010 -0.5617  0.2355
 3892TIP3    H135871   1.834   4.142   9.245  0.8621 -0.6681  0.5283
 3892TIP3    H235872   1.796   4.152   9.099  0.1200  1.1624  0.8148
 3893TIP3   OH235873   4.756   2.789   7.739 -0.0540 -0.0140  0.2094
 3893TIP3    H135874   4.758   2.866   7.795 -2.3111  0.3354 -0.1084
 3893TIP3    H235875   4.666   2.784   7.708  0.2954 -2.1942 -0.6175
 3894TIP3   OH235876   6.308   1.874   7.051 -0.0459  0.2922  0.0666
 3894TIP3    H135877   6.321   1.932   6.976 -0.6216  1.6016  0.9421
 3894TIP3    H235878   6.215   1.881   7.071 -0.4310 -2.0793 -0.6891
 3895TIP3   OH235879   6.861   5.181   8.221  0.2728 -0.4745 -0.5889
 3895TIP3    H135880   6.900   5.253   8.270  1.6051 -0.0804 -2.1479
 3895TIP3    H235881   6.768   5.203   8.216  0.1846 -0.2884  1.2899
 3896TIP3   OH235882   7.423   1.707   7.553  0.3214 -0.2036 -0.1700
 3896TIP3    H135883   7.353   1.767   7.527  0.6329 -0.0907 -0.7681
 3896TIP3    H235884   7.493   1.763   7.585  0.4087 -0.2760 -0.2332
 3897TIP3   OH235885   0.796   7.216   8.147 -0.0675 -0.5391 -0.2096
 3897TIP3    H135886   0.829   7.134   8.111  2.1655  0.6243 -0.9787
 3897TIP3    H235887   0.805   7.280   8.076 -1.5960  0.4502  0.4220
 3898TIP3   OH235888   3.305   1.552   9.068 -0.4988  0.0780 -0.0763
 3898TIP3    H135889   3.227   1.497   9.071  1.2748 -2.6246  0.3995
 3898TIP3    H235890   3.373   1.495   9.033  1.5660  1.9006  0.7174
 3899TIP3   OH235891   5.754   0.035   8.866 -0.4146  0.1021 -0.0078
 3899TIP3    H135892   5.760   0.050   8.960  2.7441  0.5810 -0.1717
 3899TIP3    H235893   5.809  -0.042   8.850 -0.7831  0.1012 -1.4616
 3900TIP3   OH235894   4.068   5.836   8.401 -0.1021 -0.1680 -0.0458
 3900TIP3    H135895   4.161   5.858   8.409 -0.0584 -0.0619 -0.7942
 3900TIP3    H235896   4.027   5.917   8.370  0.3537 -1.4379 -4.8026
 3901TIP3   OH235897   1.186   2.507   8.694 -0.5631 -0.1693  0.1511
 3901TIP3    H135898   1.216   2.484   8.606  0.3082  1.5565 -0.0503
 3901TIP3    H235899   1.106   2.557   8.679 -0.8456 -0.5447  0.3974
 3902TIP3   OH235900   0.794   6.295   8.401  0.1838 -0.7691 -0.4136
 3902TIP3    H135901   0.839   6.233   8.343  2.9398  1.4379 -0.9079
 3902TIP3    H235902   0.798   6.256   8.487  1.1700 -1.6221 -0.8312
 3903TIP3   OH235903   7.505   7.066   9.320 -0.5089 -0.2757 -0.8908
 3903TIP3    H135904   7.447   6.995   9.346 -0.7208 -0.6285 -2.2494
 3903TIP3    H235905   7.506   7.062   9.225  0.4896  0.7422 -0.9394
 3904TIP3   OH235906   4.995   7.569   7.278 -0.7107 -1.0221 -0.0894
 3904TIP3    H135907   5.059   7.561   7.206 -0.2551 -0.4790  0.2470
 3904TIP3    H235908   4.914   7.595   7.234 -0.1094  0.6132 -0.2912
 3905TIP3   OH235909   3.726   7.131   8.231  0.3413  0.3306  0.3576
 3905TIP3    H135910   3.687   7.055   8.187 -1.0346  0.7444  0.8011
 3905TIP3    H235911   3.816   7.105   8.248  0.0731 -0.9637 -0.0583
 3906TIP3   OH235912   4.125   6.969   9.419  0.2901 -0.1362 -0.4246
 3906TIP3    H135913   4.128   6.876   9.395 -3.0363 -0.4624 -0.0722
 3906TIP3    H235914   4.033   6.985   9.440  1.1062  2.7939  1.4890
 3907TIP3   OH235915   6.180   1.969   8.220  0.1842 -0.1098  0.4933
 3907TIP3    H135916   6.091   2.004   8.212  0.1941  0.2468  1.7011
 3907TIP3    H235917   6.235   2.047   8.229  0.7366 -0.2907 -1.0494
 3908TIP3   OH235918   6.137   3.100   9.119 -0.6065  0.0595 -0.7951
 3908TIP3    H135919   6.133   3.107   9.214  0.8225 -1.1423 -0.6102
 3908TIP3    H235920   6.161   3.187   9.089  1.5703 -0.1424  0.1773
 3909TIP3   OH235921   4.836   6.400   8.194 -0.6958 -0.2032 -0.3724
 3909TIP3    H135922   4.829   6.342   8.119 -0.0305 -1.7018  0.6635
 3909TIP3    H235923   4.784   6.358   8.262 -0.9925  0.9330  0.1301
 3910TIP3   OH235924   1.427   7.225   9.095 -0.2397  0.0894  0.0423
 3910TIP3    H135925   1.426   7.208   9.001 -0.7819  0.2736  0.0129
 3910TIP3    H235926   1.398   7.142   9.134  0.7334 -0.2373  0.0912
 3911TIP3   OH235927   5.360   3.592   8.290 -0.0204 -0.6563 -0.2301
 3911TIP3    H135928   5.307   3.662   8.327  1.4770  0.4079  0.0032
 3911TIP3    H235929   5.355   3.605   8.196  1.9942  1.1871 -0.1503
 3912TIP3   OH235930   4.664   1.496   8.856  0.0580 -0.2881 -0.6138
 3912TIP3    H135931   4.704   1.550   8.788 -0.4973 -1.3312 -1.8050
 3912TIP3    H235932   4.709   1.522   8.937  1.4834  0.2301 -1.5343
 3913TIP3   OH235933   6.886   4.999   7.687 -0.3548  1.0040  0.1953
 3913TIP3    H135934   6.911   4.991   7.779 -0.2400 -1.7050  0.0080
 3913TIP3    H235935   6.967   5.024   7.641  0.3982 -0.7691  0.4788
 3914TIP3   OH235936   0.756   6.559   8.442 -0.5131  0.1184 -0.3810
 3914TIP3    H135937   0.773   6.470   8.411  2.0940  0.8107 -1.1710
 3914TIP3    H235938   0.829   6.580   8.500 -1.2022  1.6619 -0.0024
 3915TIP3   OH235939   1.951   3.343   8.455  0.4494 -0.0154 -0.1520
 3915TIP3    H135940   1.939   3.310   8.366 -0.9500  1.3419 -0.5156
 3915TIP3    H235941   1.935   3.267   8.511 -0.6109 -0.4682 -1.0164
 3916TIP3   OH235942   4.995   2.578   8.159 -0.2737 -0.3337  0.3081
 3916TIP3    H135943   4.974   2.597   8.250 -0.6835 -1.6444  0.4984
 3916TIP3    H235944   4.951   2.648   8.110  0.0247  0.4297  1.1090
 3917TIP3   OH235945   2.805   5.919   6.693 -0.1426 -0.0540 -0.1917
 3917TIP3    H135946   2.792   5.963   6.776 -2.5418  0.8326 -0.9650
 3917TIP3    H235947   2.803   5.989   6.628 -0.0027 -0.8911 -1.1266
 3918TIP3   OH235948   0.640   0.739   9.496  0.0735  0.4559  0.0675
 3918TIP3    H135949   0.589   0.797   9.439 -0.8932  0.5431  0.9797
 3918TIP3    H235950   0.676   0.797   9.563 -0.7402  0.0634  0.8771
 3919TIP3   OH235951   7.466   2.955   9.133  0.5424 -0.1555 -0.2364
 3919TIP3    H135952   7.466   2.892   9.205 -0.0372 -0.4685 -0.5051
 3919TIP3    H235953   7.519   2.914   9.065 -1.5199 -1.3161 -1.2199
 3920TIP3   OH235954   4.422   3.268   7.554 -0.3385 -0.1957 -0.1990
 3920TIP3    H135955   4.406   3.214   7.632 -1.4621  0.4975  0.0697
 3920TIP3    H235956   4.466   3.346   7.587  1.2839 -0.9126 -0.5900
 3921TIP3   OH235957   7.357   4.782   9.137  0.4062 -0.3478 -0.4375
 3921TIP3    H135958   7.452   4.776   9.136  0.4014 -0.3861 -0.6738
 3921TIP3    H235959   7.335   4.808   9.227  0.7488  1.3611 -0.8107
 3922TIP3   OH235960   5.236   5.475   7.107 -0.4666  0.0746 -0.0809
 3922TIP3    H135961   5.168   5.421   7.147  1.1284 -0.3610  2.2083
 3922TIP3    H235962   5.203   5.565   7.116 -0.7275 -0.1249  1.0318
 3923TIP3   OH235963   5.089   0.433   8.409  0.4009 -0.2909  0.3094
 3923TIP3    H135964   5.183   0.443   8.426  0.3990 -1.8375  1.4048
 3923TIP3    H235965   5.052   0.404   8.492 -1.1164  0.5501 -0.0338
 3924TIP3   OH235966   1.055   5.422   9.298 -0.3963 -0.4741 -1.1040
 3924TIP3    H135967   1.010   5.342   9.327  1.1960 -1.1468 -0.3629
 3924TIP3    H235968   1.107   5.394   9.222  1.0374 -0.4367 -0.1649
 3925TIP3   OH235969   4.410   7.038   7.112  0.1506  0.0621  1.1118
 3925TIP3    H135970   4.364   7.065   7.191 -1.1087 -1.3817  0.9193
 3925TIP3    H235971   4.423   6.944   7.123 -1.0703 -0.3870 -0.8640
 3926TIP3   OH235972   6.671   2.074   8.159 -0.2554  0.7869 -0.3130
 3926TIP3    H135973   6.689   1.999   8.215 -0.1473  0.6580 -0.5174
 3926TIP3    H235974   6.692   2.043   8.070 -0.1122  1.0862 -0.3863
 3927TIP3   OH235975   3.982   3.256   7.544 -0.0829 -0.2123  0.3588
 3927TIP3    H135976   4.003   3.163   7.555 -2.4207 -0.7792  0.5281
 3927TIP3    H235977   4.049   3.301   7.595  2.9048 -1.5676 -2.0995
 3928TIP3   OH235978   4.398   6.233   8.537  0.4124  0.0165 -0.3604
 3928TIP3    H135979   4.312   6.192   8.533 -0.2198  1.3027 -0.6580
 3928TIP3    H235980   4.449   6.190   8.468  0.3693 -1.4810  0.5050
 3929TIP3   OH235981   0.276   1.652   9.189  0.1980 -0.2468  0.1937
 3929TIP3    H135982   0.325   1.725   9.153  1.2296 -1.6358 -1.3192
 3929TIP3    H235983   0.184   1.678   9.179  0.5316  0.6571 -0.6788
 3930TIP3   OH235984   6.131   4.641   7.486 -0.2819  0.0146 -0.1803
 3930TIP3    H135985   6.103   4.702   7.554 -1.0957  0.4646 -0.9039
 3930TIP3    H235986   6.171   4.568   7.534  1.1191  1.2863  0.6991
 3931TIP3   OH235987   0.898   4.290   7.860 -0.1167  0.5691  0.1633
 3931TIP3    H135988   0.834   4.219   7.861  0.0729  0.3867 -0.5423
 3931TIP3    H235989   0.900   4.320   7.769  0.3002  1.0255  0.3184
 3932TIP3   OH235990   4.097   0.570   8.238 -0.0584  0.8335  0.3298
 3932TIP3    H135991   4.127   0.653   8.277  0.8494  0.7061 -0.0543
 3932TIP3    H235992   4.096   0.508   8.311  1.0565  0.7427  0.2920
 3933TIP3   OH235993   0.244   5.783   9.593  0.4330 -0.0099 -0.1403
 3933TIP3    H135994   0.238   5.877   9.613  1.0754 -0.1737  0.8927
 3933TIP3    H235995   0.160   5.747   9.620  0.4273  0.1615  0.0752
 3934TIP3   OH235996   6.219   6.187   7.969 -0.1025 -0.3569 -0.6511
 3934TIP3    H135997   6.158   6.216   7.901 -0.8802 -3.0816 -1.2421
 3934TIP3    H235998   6.209   6.091   7.971  0.4686 -0.4750  2.7674
 3935TIP3   OH235999   6.570   6.136   8.953  0.3119 -0.4402  0.3301
 3935TIP3    H136000   6.567   6.216   8.900 -0.7155 -1.0785 -0.6092
 3935TIP3    H236001   6.524   6.070   8.901  2.7442 -2.2004  0.1908
 3936TIP3   OH236002   4.153   5.724   7.246 -0.1035  0.4459  0.3069
 3936TIP3    H136003   4.225   5.773   7.205  0.5395  0.2058  1.1238
 3936TIP3    H236004   4.182   5.711   7.336 -1.2416  0.4540  0.6782
 3937TIP3   OH236005   1.826   3.028   9.264  0.0979 -0.1409  0.3496
 3937TIP3    H136006   1.800   3.084   9.337  1.1125  2.0821 -0.8912
 3937TIP3    H236007   1.903   2.981   9.296 -1.2981 -1.5933  1.7163
 3938TIP3   OH236008   3.933   2.643   7.391  0.4791 -0.7080  0.0910
 3938TIP3    H136009   3.902   2.698   7.320  1.1709 -0.7707 -0.2627
 3938TIP3    H236010   3.878   2.564   7.387 -1.5088  0.5182  1.5022
 3939TIP3   OH236011   4.652   4.992   9.690 -0.1031 -0.2575  0.1860
 3939TIP3    H136012   4.590   4.969   9.621 -0.2702  0.6996 -0.0061
 3939TIP3    H236013   4.598   5.013   9.766 -0.0558  0.9140 -0.0854
 3940TIP3   OH236014   1.765   6.749   8.056 -0.7473  0.5453 -0.2662
 3940TIP3    H136015   1.804   6.832   8.082  0.2364  1.4110 -3.9332
 3940TIP3    H236016   1.840   6.692   8.039 -1.2878  0.0833 -1.1542
 3941TIP3   OH236017   6.857   4.122   8.533 -0.2615 -0.1342 -0.2955
 3941TIP3    H136018   6.929   4.134   8.471 -1.3346  2.0200 -1.2283
 3941TIP3    H236019   6.896   4.073   8.605  1.5622 -0.9068 -1.7088
 3942TIP3   OH236020   4.632   4.440   8.010  0.1284 -0.7767 -0.2316
 3942TIP3    H136021   4.715   4.395   8.017  0.2229 -0.5262  0.3074
 3942TIP3    H236022   4.586   4.421   8.092  0.2347  0.2137  0.0753
 3943TIP3   OH236023   3.998   0.887   9.169 -0.6707  0.5655 -0.0637
 3943TIP3    H136024   4.024   0.966   9.217  0.4797 -0.3465  0.8734
 3943TIP3    H236025   4.023   0.815   9.226 -0.2951 -0.5364 -1.5468
 3944TIP3   OH236026   3.166   7.616   7.930  0.0582  0.5195 -0.1469
 3944TIP3    H136027   3.210   7.679   7.873 -0.7581  1.0226 -0.2361
 3944TIP3    H236028   3.217   7.616   8.010  2.7637 -2.0532 -1.6542
 3945TIP3   OH236029   3.476   5.763   9.071  0.5924  0.1612  0.7004
 3945TIP3    H136030   3.412   5.822   9.032  1.6643  0.3813 -0.8113
 3945TIP3    H236031   3.433   5.677   9.068  0.2543  0.3461 -0.0362
 3946TIP3   OH236032   7.545   6.755   9.479  0.4071  0.1091 -0.4222
 3946TIP3    H136033   7.576   6.814   9.548 -0.8269  1.3343 -0.8577
 3946TIP3    H236034   7.606   6.682   9.481  0.1910 -0.1135  2.2544
 3947TIP3   OH236035   2.546   4.411   9.170  0.2670  0.5212 -0.3847
 3947TIP3    H136036   2.509   4.390   9.255 -2.2640 -1.0675 -1.7250
 3947TIP3    H236037   2.609   4.340   9.153  3.3401  2.6023  1.4071
 3948TIP3   OH236038   1.209   2.991   8.891  0.3054 -0.5894  0.4059
 3948TIP3    H136039   1.304   2.993   8.903  0.2913 -0.4883  0.4977
 3948TIP3    H236040   1.181   2.915   8.943  0.0889  0.6050  2.1341
 3949TIP3   OH236041   4.214   5.971   8.825  0.5961 -0.0376  0.0053
 3949TIP3    H136042   4.188   5.893   8.776  1.3829 -0.3603  0.0887
 3949TIP3    H236043   4.141   6.032   8.813  0.2249 -0.5735 -0.5314
 3950TIP3   OH236044   5.659   5.425   8.475  0.3590  0.8743 -0.3831
 3950TIP3    H136045   5.671   5.349   8.532  1.6372 -0.2890 -2.0885
 3950TIP3    H236046   5.574   5.461   8.500 -0.7122 -1.6776 -0.1260
 3951TIP3   OH236047   1.503   1.791   7.296 -0.3143  0.3256 -0.6095
 3951TIP3    H136048   1.594   1.768   7.280  0.0545  1.0918  0.2734
 3951TIP3    H236049   1.483   1.858   7.231  0.0150  0.7464 -0.2821
 3952TIP3   OH236050   0.716   3.560   8.404 -0.0495  0.0094  0.6749
 3952TIP3    H136051   0.791   3.610   8.437  1.0322 -1.2025  0.1154
 3952TIP3    H236052   0.644   3.584   8.463  0.5357  1.8411  0.7175
 3953TIP3   OH236053   0.484   5.831   9.131  0.5717 -0.3263 -0.0724
 3953TIP3    H136054   0.407   5.851   9.184  0.4702  0.9097 -0.6570
 3953TIP3    H236055   0.551   5.807   9.195 -0.4208 -1.9167  0.4066
 3954TIP3   OH236056   4.494   2.820   7.647  0.3678  0.3142  0.1720
 3954TIP3    H136057   4.455   2.774   7.573  0.3364 -0.8933  0.9178
 3954TIP3    H236058   4.432   2.891   7.667 -0.5602 -0.4902  0.2181
 3955TIP3   OH236059   2.058   3.404   7.640 -0.7970  0.5096 -0.2097
 3955TIP3    H136060   2.154   3.412   7.645 -0.9042  1.1379  1.0027
 3955TIP3    H236061   2.044   3.340   7.569  0.5592 -0.6018  0.4636
 3956TIP3   OH236062   0.557   2.434   6.569 -0.0876  0.0061  0.1689
 3956TIP3    H136063   0.508   2.463   6.492  0.0529  2.3049  0.8742
 3956TIP3    H236064   0.490   2.419   6.635 -0.0520  0.2760  0.2672
 3957TIP3   OH236065   0.247   6.015   6.543  0.2125 -0.1413  0.1454
 3957TIP3    H136066   0.189   5.990   6.615 -0.4675  1.3840  0.1502
 3957TIP3    H236067   0.188   6.051   6.476  1.0436  0.3907 -0.3192
 3958TIP3   OH236068   0.230   2.698   6.985  0.2040  0.1215  0.0516
 3958TIP3    H136069   0.268   2.624   7.033  0.1611 -0.6216 -1.0234
 3958TIP3    H236070   0.137   2.679   6.983  0.0584  0.7419  0.6541
 3959TIP3   OH236071   0.944   0.175   7.070 -0.2052  0.4899 -0.2523
 3959TIP3    H136072   0.872   0.120   7.101 -1.0380  1.0490 -1.1182
 3959TIP3    H236073   0.904   0.230   7.002  0.3105  2.8822  1.2621
 3960TIP3   OH236074   0.126   7.464   7.659  0.4225  0.0750  0.4844
 3960TIP3    H136075   0.212   7.473   7.616  0.7476 -0.2174  1.0663
 3960TIP3    H236076   0.145   7.475   7.752 -0.5570  2.7984  0.4699
 3961TIP3   OH236077   3.920   1.498   6.793 -0.0794  0.1344  0.1731
 3961TIP3    H136078   3.937   1.534   6.880  1.0722 -0.0196  0.0235
 3961TIP3    H236079   3.826   1.480   6.793 -0.4919  1.9796  0.6916
 3962TIP3   OH236080   7.465   0.930   8.990  0.5074 -0.2929  0.5670
 3962TIP3    H136081   7.510   0.884   8.918  0.2650 -1.2683  1.0157
 3962TIP3    H236082   7.533   0.941   9.056  0.7705  0.7505  0.1328
 3963TIP3   OH236083   5.557   5.389   9.015 -0.5853  0.0346  0.2240
 3963TIP3    H136084   5.549   5.445   9.092 -1.6684  0.4655 -0.1820
 3963TIP3    H236085   5.483   5.414   8.959  1.0159  0.8056 -1.6694
 3964TIP3   OH236086   2.114   4.820   7.921 -0.3116  0.1965 -0.0880
 3964TIP3    H136087   2.167   4.877   7.978 -1.4205  0.6180  0.5537
 3964TIP3    H236088   2.105   4.870   7.840  0.2238  0.1435 -0.1862
 3965TIP3   OH236089   1.423   0.252   7.169  0.5435 -0.2001  0.0203
 3965TIP3    H136090   1.442   0.302   7.090  0.2081 -0.2258 -0.0766
 3965TIP3    H236091   1.502   0.201   7.185  0.4712 -0.4759 -0.5070
 3966TIP3   OH236092   4.027   1.107   7.393  0.2836 -0.6771 -0.0204
 3966TIP3    H136093   3.960   1.039   7.380 -0.0724 -0.1985 -0.7262
 3966TIP3    H236094   4.010   1.171   7.325  0.5311  0.2068  0.7319
 3967TIP3   OH236095   2.738   2.795   9.211 -0.2508  0.0361 -0.3864
 3967TIP3    H136096   2.806   2.848   9.251 -1.1617  0.4568  0.6560
 3967TIP3    H236097   2.748   2.809   9.117  0.2360  1.1658 -0.1801
 3968TIP3   OH236098   0.033   2.382   8.111  0.0683  0.5271  0.4644
 3968TIP3    H136099   0.057   2.465   8.152 -1.1647  1.1364  0.0121
 3968TIP3    H236100   0.064   2.390   8.021 -2.4521  1.6879 -0.3813
 3969TIP3   OH236101   6.593   2.987   7.239 -0.5129 -0.5356  0.3615
 3969TIP3    H136102   6.608   3.077   7.267  0.2653 -1.0629  1.7377
 3969TIP3    H236103   6.624   2.984   7.148  1.3015  0.1376  0.9192
 3970TIP3   OH236104   4.459   5.237   7.469  0.0117 -0.1672  0.0018
 3970TIP3    H136105   4.440   5.307   7.531  1.3640 -1.1786  1.6292
 3970TIP3    H236106   4.487   5.283   7.389 -0.1981  1.1479  0.6520
 3971TIP3   OH236107   2.088   3.264   8.888  0.1346 -0.1441 -0.3898
 3971TIP3    H136108   2.134   3.196   8.936 -1.4538 -0.9531  0.0468
 3971TIP3    H236109   2.085   3.232   8.797  0.1140 -0.2692 -0.3455
 3972TIP3   OH236110   2.800   1.525   7.933  0.0422  0.0531  0.1068
 3972TIP3    H136111   2.790   1.438   7.895 -0.7068  0.0612  0.2783
 3972TIP3    H236112   2.745   1.581   7.878 -0.0758  0.2848  0.4643
 3973TIP3   OH236113   2.919   6.561   9.481 -0.9976 -0.6241  0.4011
 3973TIP3    H136114   2.861   6.543   9.406 -2.0483 -0.2321  1.1001
 3973TIP3    H236115   2.955   6.475   9.504  0.4419 -0.5676 -1.3971
 3974TIP3   OH236116   4.853   5.785   8.299  0.2123 -0.0004 -0.3711
 3974TIP3    H136117   4.810   5.818   8.220  2.4802 -0.8253 -2.0615
 3974TIP3    H236118   4.946   5.799   8.283  0.7883 -0.8403  1.8873
 3975TIP3   OH236119   3.315   2.286   8.498 -0.0136 -0.6366  0.3794
 3975TIP3    H136120   3.371   2.354   8.461  0.0187 -1.4256 -1.1195
 3975TIP3    H236121   3.285   2.236   8.422  0.0135 -2.3308  1.4264
 3976TIP3   OH236122   0.643   5.596   8.856  0.1387  0.1471 -0.9222
 3976TIP3    H136123   0.574   5.532   8.872 -0.4300  0.8040 -0.7111
 3976TIP3    H236124   0.724   5.546   8.861 -0.1285 -0.1655  1.5771
 3977TIP3   OH236125   0.290   3.501   7.711 -0.4542 -0.4121  0.1042
 3977TIP3    H136126   0.223   3.435   7.725 -0.8592  0.1446  0.8351
 3977TIP3    H236127   0.348   3.493   7.787 -0.9186  0.5473  0.5774
 3978TIP3   OH236128   5.818   1.141   7.687 -0.1724 -0.2979 -0.1793
 3978TIP3    H136129   5.857   1.191   7.759  2.3327 -1.9733 -0.2439
 3978TIP3    H236130   5.728   1.125   7.715 -0.3153  2.0356  0.9473
 3979TIP3   OH236131   6.305   4.542   8.641 -0.2268 -0.0967 -0.4074
 3979TIP3    H136132   6.257   4.575   8.565 -0.6680  0.1383 -0.0314
 3979TIP3    H236133   6.357   4.616   8.671 -1.4769  0.4034  0.6449
 3980TIP3   OH236134   0.352   2.092   8.930 -0.1768 -0.3696 -0.1119
 3980TIP3    H136135   0.444   2.101   8.953 -0.6882  2.2123  1.2755
 3980TIP3    H236136   0.336   2.159   8.864 -1.0521 -0.8395 -0.4003
 3981TIP3   OH236137   1.135   4.438   9.624  0.3255  0.3368 -0.2947
 3981TIP3    H136138   1.133   4.349   9.659  1.0902  0.8044  0.9927
 3981TIP3    H236139   1.053   4.447   9.576 -0.2378 -0.7099  0.4381
 3982TIP3   OH236140   5.163   1.277   6.858  0.0648 -0.4205  0.0196
 3982TIP3    H136141   5.166   1.371   6.877  1.0028 -0.1872 -1.2310
 3982TIP3    H236142   5.250   1.245   6.880 -0.4509 -1.1651  1.1048
 3983TIP3   OH236143   4.940   4.174   8.339 -0.2133 -0.2077 -0.0750
 3983TIP3    H136144   4.893   4.158   8.257  1.8977 -1.0762 -1.2106
 3983TIP3    H236145   5.032   4.169   8.314  0.5110 -1.1850  2.5028
 3984TIP3   OH236146   4.154   5.076   7.521  0.0461 -0.5261  0.5089
 3984TIP3    H136147   4.157   5.171   7.507 -0.4956 -0.6512 -0.5733
 3984TIP3    H236148   4.214   5.040   7.455 -0.0818 -0.9654  0.6300
 3985TIP3   OH236149   5.136   7.547   7.506  0.3322  0.5773  0.4264
 3985TIP3    H136150   5.170   7.634   7.530  1.2231  0.4092 -0.1486
 3985TIP3    H236151   5.108   7.557   7.415  0.2534  0.3177  0.4215
 3986TIP3   OH236152   4.272   2.434   8.083 -0.4388  0.0523 -0.3983
 3986TIP3    H136153   4.291   2.517   8.126  0.2618 -0.9432  1.3474
 3986TIP3    H236154   4.181   2.441   8.055 -1.0725  0.6604  1.6454
 3987TIP3   OH236155   7.297   1.297   8.632 -0.4506 -0.1449 -0.1280
 3987TIP3    H136156   7.352   1.323   8.558 -1.8575 -1.1332 -1.5726
 3987TIP3    H236157   7.210   1.284   8.594 -1.0778 -1.2748  1.5923
 3988TIP3   OH236158   3.431   2.290   7.315  0.3221  0.0937  0.4665
 3988TIP3    H136159   3.495   2.300   7.385  0.3949 -2.6760  0.9259
 3988TIP3    H236160   3.479   2.244   7.246 -0.5230  0.1731 -0.1906
 3989TIP3   OH236161   1.101   6.076   9.242  0.0039  0.6173  0.1429
 3989TIP3    H136162   1.163   6.114   9.304  0.5288  2.4913 -1.4403
 3989TIP3    H236163   1.015   6.101   9.276  0.2651  1.1814  0.4022
 3990TIP3   OH236164   1.265   4.525   8.947  0.5042 -0.0899  0.3187
 3990TIP3    H136165   1.254   4.437   8.913  0.3277 -0.1869  0.6209
 3990TIP3    H236166   1.176   4.554   8.967  0.4914  0.4232 -0.4318
 3991TIP3   OH236167   5.192   1.378   8.790 -0.2963 -0.1280 -0.4393
 3991TIP3    H136168   5.263   1.435   8.760  0.2233 -0.3901  0.2505
 3991TIP3    H236169   5.214   1.292   8.756 -0.6746 -0.0698 -0.8356
 3992TIP3   OH236170   4.137   0.294   9.062 -0.3142 -0.6409  0.0107
 3992TIP3    H136171   4.087   0.374   9.045 -1.2630 -1.3112 -0.4411
 3992TIP3    H236172   4.084   0.246   9.127 -0.2913 -1.3786 -0.5012
 3993TIP3   OH236173   4.869   2.088   7.087  0.4680 -0.1860 -0.2856
 3993TIP3    H136174   4.886   1.994   7.082  1.3079 -0.0500 -0.0749
 3993TIP3    H236175   4.944   2.128   7.044  0.2407  0.4061 -0.1318
 3994TIP3   OH236176   3.471   0.261   8.426 -0.1427  0.4612 -0.0164
 3994TIP3    H136177   3.511   0.345   8.402 -0.0173  0.2862 -0.4384
 3994TIP3    H236178   3.508   0.199   8.363 -2.9989  0.7326 -2.1646
 3995TIP3   OH236179   5.252   0.117   7.452 -0.4104  1.0419 -0.1057
 3995TIP3    H136180   5.188   0.181   7.482 -1.0743  0.8130 -0.9896
 3995TIP3    H236181   5.242   0.116   7.357 -1.0385 -0.9957 -0.0674
 3996TIP3   OH236182   2.907   7.485   7.907  0.6054 -0.2652  0.3916
 3996TIP3    H136183   2.980   7.541   7.882  1.1436 -0.9837  0.3242
 3996TIP3    H236184   2.830   7.528   7.869  1.1168 -0.0391 -0.4266
 3997TIP3   OH236185   0.143   2.406   8.928  0.0146 -0.3457 -0.0342
 3997TIP3    H136186   0.064   2.357   8.906  0.2424 -0.5361 -0.4368
 3997TIP3    H236187   0.168   2.374   9.015 -0.3100 -0.3291  0.0688
 3998TIP3   OH236188   4.319   2.289   8.308  0.4324 -0.3164  0.0019
 3998TIP3    H136189   4.331   2.338   8.227 -0.8503 -0.1605 -0.1125
 3998TIP3    H236190   4.233   2.316   8.340  1.2681  0.2816  1.8871
 3999TIP3   OH236191   4.760   4.902   8.675  0.4349 -0.1776 -0.1457
 3999TIP3    H136192   4.708   4.822   8.676  0.0866  0.0040 -1.3608
 3999TIP3    H236193   4.730   4.953   8.750  0.0045 -0.7774  0.0903
 4000TIP3   OH236194   3.013   1.462   7.651  0.7057 -0.6320 -0.1642
 4000TIP3    H136195   2.997   1.397   7.720 -1.2393  2.2711  2.3874
 4000TIP3    H236196   3.105   1.485   7.662  0.5782 -0.6584  1.0703
 4001TIP3   OH236197   3.906   5.258   7.788 -0.3123  0.5438  0.3011
 4001TIP3    H136198   3.890   5.308   7.868  0.6689 -0.8882  1.4309
 4001TIP3    H236199   4.002   5.251   7.782 -0.3992 -0.2116 -0.4682
 4002TIP3   OH236200   7.403   5.970   9.449  0.1231 -0.5925 -0.2267
 4002TIP3    H136201   7.313   5.994   9.426  0.0184 -0.6458  0.1252
 4002TIP3    H236202   7.414   5.883   9.410  0.5676  0.0816 -1.6560
 4003TIP3   OH236203   1.263   1.802   7.463  0.0708  0.6246 -0.3215
 4003TIP3    H136204   1.333   1.783   7.401  1.3579 -1.7375  1.6932
 4003TIP3    H236205   1.291   1.883   7.506  0.4184  0.8932 -1.0276
 4004TIP3   OH236206   4.156   2.724   7.555 -0.1920  0.1883  0.1213
 4004TIP3    H136207   4.084   2.691   7.501 -0.3276  0.1811  0.3068
 4004TIP3    H236208   4.234   2.714   7.500 -0.4095  0.6756 -0.2770
 4005TIP3   OH236209   1.177   0.219   8.109 -0.0423  0.1756 -0.3694
 4005TIP3    H136210   1.097   0.239   8.061  0.1010 -0.3683 -0.8392
 4005TIP3    H236211   1.241   0.196   8.041 -0.7796 -4.1588  0.1400
 4006TIP3   OH236212   4.645   6.300   8.935  0.3657  0.0365  0.4638
 4006TIP3    H136213   4.576   6.235   8.932 -0.4715  0.9269 -1.3789
 4006TIP3    H236214   4.615   6.365   8.999  0.0051 -0.1106  0.4420
 4007TIP3   OH236215   0.259   0.559   7.327 -0.1494  0.4963 -0.3780
 4007TIP3    H136216   0.330   0.505   7.293  1.1165  1.3339  0.8064
 4007TIP3    H236217   0.205   0.499   7.378  0.8224  0.1782  0.3072
 4008TIP3   OH236218   7.373   0.046   8.124  0.3003 -0.4855 -0.0721
 4008TIP3    H136219   7.455   0.072   8.166  0.4704 -0.7972 -0.2096
 4008TIP3    H236220   7.350  -0.038   8.165  2.0452 -2.3637 -2.6779
 4009TIP3   OH236221   5.777   4.616   7.444  0.4586  0.7656 -0.0689
 4009TIP3    H136222   5.790   4.694   7.389  0.6130  1.2168  0.5929
 4009TIP3    H236223   5.764   4.651   7.532 -1.9302  0.1792 -0.1299
 4010TIP3   OH236224   1.938   0.906   8.094 -0.1853 -0.3176  0.6904
 4010TIP3    H136225   1.971   0.957   8.020 -1.4769 -0.9204 -0.3337
 4010TIP3    H236226   1.844   0.920   8.094 -0.2039 -0.1378  2.4051
 4011TIP3   OH236227   6.437   6.239   7.025  0.5158 -0.1571 -0.0263
 4011TIP3    H136228   6.455   6.326   7.061  1.8920 -0.0047 -1.0100
 4011TIP3    H236229   6.347   6.245   6.993  0.6129  0.9352 -0.1298
 4012TIP3   OH236230   3.402   1.540   7.418  0.0734  0.5731  0.1176
 4012TIP3    H136231   3.417   1.506   7.506 -1.3652 -0.2911  0.0567
 4012TIP3    H236232   3.442   1.475   7.360  1.2726  1.2831  0.1093
 4013TIP3   OH236233   6.256   4.579   9.704 -0.2772  0.0350  0.1884
 4013TIP3    H136234   6.222   4.495   9.735 -1.8202  0.4127 -0.3633
 4013TIP3    H236235   6.273   4.566   9.611 -1.7159  0.6419 -0.1889
 4014TIP3   OH236236   5.499   0.198   9.733 -0.3723  0.0099 -0.0270
 4014TIP3    H136237   5.535   0.152   9.809 -1.4576 -0.9280 -0.0621
 4014TIP3    H236238   5.532   0.288   9.742 -2.2817  0.5581  2.8483
 4015TIP3   OH236239   3.245   4.173   9.368  0.1762  0.5279  0.1461
 4015TIP3    H136240   3.254   4.170   9.464  0.6010 -1.8196  0.0909
 4015TIP3    H236241   3.229   4.082   9.343 -0.1136  1.1296 -2.0201
 4016TIP3   OH236242   3.016   4.622   8.765  0.1442 -0.0348  0.0880
 4016TIP3    H136243   3.094   4.567   8.773 -0.0893 -0.1958  1.5117
 4016TIP3    H236244   2.986   4.607   8.675  0.9067 -1.1047 -0.0176
 4017TIP3   OH236245   0.137   5.251   8.023 -0.6274 -0.3756 -0.1062
 4017TIP3    H136246   0.142   5.247   8.119 -1.2226 -0.2655 -0.0642
 4017TIP3    H236247   0.067   5.315   8.006 -0.2303 -0.0672 -0.6185
 4018TIP3   OH236248   1.580   6.168   8.315  0.7543  0.2831 -0.0721
 4018TIP3    H136249   1.584   6.224   8.392  0.5823  1.1427 -0.6634
 4018TIP3    H236250   1.587   6.229   8.241 -0.5617 -0.3503 -0.7640
 4019TIP3   OH236251   3.918   2.160   6.867 -0.3080 -0.1876 -0.0796
 4019TIP3    H136252   4.008   2.148   6.898 -0.7925 -2.0272  0.7967
 4019TIP3    H236253   3.897   2.078   6.822 -1.2367  0.5978 -1.1506
 4020TIP3   OH236254   2.968   3.984   7.559 -0.3856  0.5118  0.6247
 4020TIP3    H136255   2.911   3.952   7.629 -0.0680 -0.0184  0.6457
 4020TIP3    H236256   2.916   3.973   7.479  0.2099 -1.3815  0.4528
 4021TIP3   OH236257   4.247   2.309   8.818  0.6529 -0.1713 -0.6631
 4021TIP3    H136258   4.183   2.267   8.876  0.9135  1.1001  0.6041
 4021TIP3    H236259   4.286   2.236   8.769 -0.1183 -1.2100  0.2143
 4022TIP3   OH236260   4.054   1.166   9.055  0.4816 -0.6554  0.1458
 4022TIP3    H136261   4.125   1.111   9.019  1.4999  0.7194 -0.0234
 4022TIP3    H236262   3.988   1.168   8.986  0.8591 -0.8846 -0.2294
 4023TIP3   OH236263   4.538   1.785   8.651 -0.6010 -0.0847 -0.4605
 4023TIP3    H136264   4.545   1.840   8.573  0.9468 -2.1926 -1.9263
 4023TIP3    H236265   4.608   1.815   8.708 -1.3229  1.0338 -0.1315
 4024TIP3   OH236266   4.327   1.812   9.130 -0.0394 -0.2687 -0.1846
 4024TIP3    H136267   4.241   1.792   9.094  0.4698 -1.3420 -0.8510
 4024TIP3    H236268   4.358   1.729   9.167  0.8625  0.0103 -0.2951
 4025TIP3   OH236269   3.422   1.156   7.079 -0.7502 -0.1015 -0.7288
 4025TIP3    H136270   3.403   1.098   7.153 -1.6280 -0.2234 -1.0429
 4025TIP3    H236271   3.374   1.118   7.005  0.6629 -0.3710 -1.5412
 4026TIP3   OH236272   1.436   7.480   8.148 -0.1105 -0.6507  0.7086
 4026TIP3    H136273   1.393   7.566   8.156  1.6696  0.2068  1.7542
 4026TIP3    H236274   1.376   7.419   8.189 -0.9453  0.2808  0.9087
 4027TIP3   OH236275   7.562   7.536   9.302  0.1739  0.4316  0.0125
 4027TIP3    H136276   7.493   7.486   9.345  0.5156 -0.7037 -0.7056
 4027TIP3    H236277   7.633   7.474   9.290  0.9336  1.3134 -0.1789
 4028TIP3   OH236278   2.293   4.351   9.072  0.1853  0.0443  0.0848
 4028TIP3    H136279   2.283   4.299   8.992 -0.3505 -0.0194  0.1913
 4028TIP3    H236280   2.377   4.396   9.060 -0.6735  1.4069 -1.3276
 4029TIP3   OH236281   5.034   5.277   7.612 -0.0708 -0.1106  0.5832
 4029TIP3    H136282   4.964   5.284   7.547 -1.0538 -1.4928  1.4328
 4029TIP3    H236283   5.111   5.313   7.568 -1.2280  1.1568 -0.4881
 4030TIP3   OH236284   5.248   1.936   8.849  0.1106 -0.3510  0.3106
 4030TIP3    H136285   5.210   2.009   8.898  1.1061  2.8908 -3.2483
 4030TIP3    H236286   5.175   1.901   8.797  0.1289 -0.1707  0.1618
 4031TIP3   OH236287   6.967   4.968   8.595 -0.2971 -0.7744  0.5668
 4031TIP3    H136288   6.922   5.045   8.631 -0.4997 -0.7078  0.1704
 4031TIP3    H236289   7.002   4.997   8.512  0.8358 -0.7102  1.0513
 4032TIP3   OH236290   4.476   4.019   8.795 -0.6964  0.1058  0.2487
 4032TIP3    H136291   4.503   3.965   8.720 -0.6310 -0.1455  0.4538
 4032TIP3    H236292   4.489   4.109   8.765 -1.4798  0.0288 -0.3571
 4033TIP3   OH236293   4.888   1.612   9.024  0.2277  0.0377 -0.0729
 4033TIP3    H136294   4.883   1.683   8.960 -1.3326 -0.9523 -1.1184
 4033TIP3    H236295   4.954   1.641   9.087  2.0756  0.9070 -2.2845
 4034TIP3   OH236296   3.896   3.518   8.951 -0.0365 -0.0856 -0.2027
 4034TIP3    H136297   3.863   3.437   8.989 -1.4300  0.4193 -0.2834
 4034TIP3    H236298   3.988   3.499   8.930  0.4685 -0.7365  2.3433
 4035TIP3   OH236299   4.777   3.395   8.367  0.1926  0.3105 -0.7641
 4035TIP3    H136300   4.867   3.424   8.353  0.2245  0.4476 -0.2921
 4035TIP3    H236301   4.784   3.300   8.377  0.2506  0.2900 -0.9907
 4036TIP3   OH236302   2.943   2.164   7.289  0.2519 -0.1604  0.0545
 4036TIP3    H136303   2.960   2.158   7.383  0.1808  1.2688  0.1887
 4036TIP3    H236304   3.029   2.149   7.249  0.7125  1.2054  0.4621
 4037TIP3   OH236305   6.214   1.029   7.416 -0.2407  0.4208 -1.0747
 4037TIP3    H136306   6.284   1.068   7.364  0.5227 -0.7414 -0.9624
 4037TIP3    H236307   6.257   0.956   7.462 -1.2660  0.4176 -0.0940
 4038TIP3   OH236308   3.156   2.008   9.216 -0.3331 -0.5648  0.2768
 4038TIP3    H136309   3.098   2.050   9.153  1.3359  0.4257 -0.6845
 4038TIP3    H236310   3.109   2.012   9.299 -1.6730  0.0759 -0.4902
 4039TIP3   OH236311   0.318   2.474   7.124 -0.2074 -0.6704  0.2496
 4039TIP3    H136312   0.308   2.390   7.079  1.1444 -0.7569  0.0530
 4039TIP3    H236313   0.399   2.464   7.174  0.5601  0.8924 -0.6343
 4040TIP3   OH236314   2.382   6.854   7.969 -0.5233  0.8316 -0.3446
 4040TIP3    H136315   2.312   6.824   7.911  0.0246  0.1974 -0.6976
 4040TIP3    H236316   2.390   6.785   8.035  0.4591  0.3808 -0.9146
 4041TIP3   OH236317   1.106   6.458   7.661  0.4729  0.2051 -0.5047
 4041TIP3    H136318   1.018   6.453   7.624  0.6492  0.3670 -0.9573
 4041TIP3    H236319   1.153   6.384   7.623  1.1813  1.3913 -2.0622
 4042TIP3   OH236320   1.059   0.466   7.480 -0.4062 -0.5352 -0.5493
 4042TIP3    H136321   1.074   0.530   7.410 -0.2805  0.2816  0.2037
 4042TIP3    H236322   1.104   0.387   7.451  2.2431  0.6887 -0.0681
 4043TIP3   OH236323   2.107   6.945   7.659  0.9499 -0.3943  0.5272
 4043TIP3    H136324   2.190   6.993   7.652  0.7476 -0.1289 -0.1645
 4043TIP3    H236325   2.040   7.011   7.641  0.5691 -0.5534  1.3150
 4044TIP3   OH236326   6.909   0.345   8.223  0.1170 -0.1529 -0.7922
 4044TIP3    H136327   6.950   0.279   8.166  1.2546  1.1724 -1.5727
 4044TIP3    H236328   6.912   0.426   8.172 -2.2066  0.3281 -0.2642
 4045TIP3   OH236329   0.185   7.261   8.800  0.0309  0.0169  0.8003
 4045TIP3    H136330   0.253   7.296   8.857  1.3837 -1.9661  0.5046
 4045TIP3    H236331   0.155   7.181   8.844 -0.0025 -0.7110 -0.4878
 4046TIP3   OH236332   3.701   2.103   9.557 -0.2568  0.5622  0.9206
 4046TIP3    H136333   3.749   2.146   9.628  0.4440  0.3406  0.5902
 4046TIP3    H236334   3.669   2.175   9.502 -0.6484  0.7271  1.3590
 4047TIP3   OH236335   0.478   5.068   9.105 -0.4559  0.4590 -0.4989
 4047TIP3    H136336   0.448   5.074   9.014 -2.2160 -1.8181 -0.1441
 4047TIP3    H236337   0.482   4.974   9.122  1.8814  0.7890  1.1815
 4048TIP3   OH236338   0.991   7.565   7.278 -0.3549  0.4588 -0.2468
 4048TIP3    H136339   0.920   7.615   7.238 -1.2871  0.6770  1.5563
 4048TIP3    H236340   0.975   7.571   7.372  0.4126 -1.9115  0.1164
 4049TIP3   OH236341   1.038   7.259   7.095 -0.2453  0.1610 -0.4992
 4049TIP3    H136342   1.078   7.189   7.147 -0.3401  0.7821  0.4291
 4049TIP3    H236343   1.096   7.334   7.106 -0.1533  0.2505 -1.4757
 4050TIP3   OH236344   5.782   0.283   9.269  0.6028  0.2792  0.2622
 4050TIP3    H136345   5.856   0.251   9.320  0.7771  1.8348  1.0384
 4050TIP3    H236346   5.821   0.337   9.201  0.2059  1.1176  0.6820
 4051TIP3   OH236347   7.178   3.675   7.583  0.4954  0.0853  0.1880
 4051TIP3    H136348   7.116   3.671   7.656  0.4690  0.2003  0.1717
 4051TIP3    H236349   7.130   3.637   7.509  1.3385 -2.3983  0.7983
 4052TIP3   OH236350   0.378   5.564   7.488  0.3095  0.0140 -0.4635
 4052TIP3    H136351   0.325   5.603   7.557  0.6489  0.7872 -0.6211
 4052TIP3    H236352   0.368   5.624   7.413 -0.2115 -0.9095 -1.1485
 4053TIP3   OH236353   2.494   5.181   8.565  0.2368 -0.3274  0.0511
 4053TIP3    H136354   2.562   5.218   8.621 -0.6279 -0.3690  1.1627
 4053TIP3    H236355   2.512   5.217   8.478  0.0467  1.9119  0.8700
 4054TIP3   OH236356   2.574   4.783   9.170 -0.5174  0.5993 -0.2945
 4054TIP3    H136357   2.622   4.703   9.193 -0.2648  0.6110 -0.7668
 4054TIP3    H236358   2.516   4.755   9.099  0.6757  1.1725 -1.5369
 4055TIP3   OH236359   3.190   3.445   8.591  0.0634  0.3163 -0.5573
 4055TIP3    H136360   3.284   3.453   8.607 -0.2319 -0.9684  2.4863
 4055TIP3    H236361   3.169   3.355   8.615 -1.9908  0.5859 -1.1210
 4056TIP3   OH236362   7.662   5.524   9.415 -0.1071  0.4539  0.1892
 4056TIP3    H136363   7.672   5.432   9.442  0.0589  0.7160  1.0515
 4056TIP3    H236364   7.720   5.533   9.340 -0.6283 -0.3170 -0.3146
 4057TIP3   OH236365   0.113   6.091   8.632 -0.0490  0.6481 -0.6543
 4057TIP3    H136366   0.162   6.169   8.608  1.3274 -0.5478 -1.8852
 4057TIP3    H236367   0.151   6.064   8.716 -0.3084  1.0904 -0.3873
 4058TIP3   OH236368   0.608   7.253   9.061 -0.0462  0.1268 -0.1461
 4058TIP3    H136369   0.643   7.331   9.104 -1.6075  0.6220  0.3285
 4058TIP3    H236370   0.568   7.202   9.132 -0.8854 -0.0403 -0.7129
 4059TIP3   OH236371   3.853   0.484   8.521 -0.3881 -0.1082 -0.0859
 4059TIP3    H136372   3.932   0.439   8.493 -0.3596 -0.1391  0.0480
 4059TIP3    H236373   3.793   0.474   8.447 -0.4515 -0.5345  0.0247
 4060TIP3   OH236374   4.151   7.430   8.539 -0.3625 -0.6648 -0.2962
 4060TIP3    H136375   4.138   7.465   8.451  2.3713  0.0493 -0.4817
 4060TIP3    H236376   4.204   7.495   8.584 -1.8296 -0.9335  2.0076
 4061TIP3   OH236377   4.836   6.631   8.455 -0.3400  0.0968 -0.3320
 4061TIP3    H136378   4.750   6.669   8.435 -0.6240 -1.2596 -1.8440
 4061TIP3    H236379   4.898   6.692   8.416 -0.7154  0.0319 -1.0527
 4062TIP3   OH236380   7.434   4.236   8.370  0.1437 -0.3327 -0.3224
 4062TIP3    H136381   7.503   4.173   8.390  0.4615  0.1350  0.0737
 4062TIP3    H236382   7.422   4.285   8.451  0.7742  0.9472 -0.9665
 4063TIP3   OH236383   4.902   3.520   7.470  0.3190 -1.0347 -0.2723
 4063TIP3    H136384   4.922   3.443   7.417  1.4507  0.4128 -2.0222
 4063TIP3    H236385   4.904   3.594   7.409 -1.0230  0.3884  1.2938
 4064TIP3   OH236386   5.872   1.869   9.135  0.5868  0.2717 -0.6313
 4064TIP3    H136387   5.846   1.781   9.161 -0.7103  0.6316 -0.6271
 4064TIP3    H236388   5.945   1.856   9.075  1.0845 -0.7523  0.1751
 4065TIP3   OH236389   0.664   3.224   7.740  0.2669  0.2265  0.0455
 4065TIP3    H136390   0.623   3.224   7.654  1.0604 -1.3140 -0.3747
 4065TIP3    H236391   0.725   3.151   7.737 -0.1250 -0.2467  2.1194
 4066TIP3   OH236392   2.274   2.197   8.828 -0.5105 -0.0893 -0.0578
 4066TIP3    H136393   2.218   2.237   8.762 -1.6684  0.6650  1.3149
 4066TIP3    H236394   2.251   2.242   8.909 -0.6886 -2.3856  1.2562
 4067TIP3   OH236395   1.808   3.421   6.642  0.1696  0.0288  0.2082
 4067TIP3    H136396   1.771   3.498   6.599  0.2820  0.2449  0.4911
 4067TIP3    H236397   1.884   3.455   6.689 -0.3962 -0.0585  1.2137
 4068TIP3   OH236398   2.363   3.890   9.432  0.7246 -0.1346 -0.1572
 4068TIP3    H136399   2.316   3.897   9.516 -0.0563  0.2263 -0.6054
 4068TIP3    H236400   2.400   3.802   9.432  0.8151 -0.1049  0.6083
 4069TIP3   OH236401   4.035   5.140   8.585  0.1094  0.1571  0.2110
 4069TIP3    H136402   4.070   5.176   8.666  1.2009  1.3648 -0.7607
 4069TIP3    H236403   4.065   5.049   8.585  0.5160  0.2842  0.9209
 4070TIP3   OH236404   0.946   3.955   7.279 -0.0819  0.2737 -0.0805
 4070TIP3    H136405   0.898   4.011   7.341 -0.3080  0.5941 -0.5405
 4070TIP3    H236406   1.032   3.996   7.273  0.5459 -0.7412  1.3450
 4071TIP3   OH236407   7.243   2.977   9.423  0.4862  0.0134  0.4923
 4071TIP3    H136408   7.198   2.911   9.477  1.6536 -0.6326  0.6991
 4071TIP3    H236409   7.272   3.043   9.486 -0.6749  0.7466  0.2865
 4072TIP3   OH236410   1.734   3.403   7.357  0.0074 -0.1695  0.0602
 4072TIP3    H136411   1.813   3.452   7.332  0.7142 -1.3329 -0.0301
 4072TIP3    H236412   1.751   3.375   7.447 -1.4427  1.8056  1.0071
 4073TIP3   OH236413   1.802   6.072   9.315  0.4629  0.3873  0.4792
 4073TIP3    H136414   1.861   6.140   9.345  0.1300 -0.1273  2.4297
 4073TIP3    H236415   1.849   5.990   9.329  0.6842  0.1328 -1.4255
 4074TIP3   OH236416   1.590   5.546   8.553 -0.2261 -0.2272  0.2294
 4074TIP3    H136417   1.514   5.506   8.511  0.7626  0.4243 -2.3998
 4074TIP3    H236418   1.613   5.487   8.624 -0.4858 -2.9096 -1.7599
 4075TIP3   OH236419   2.781   7.251   8.976 -0.2556 -0.2885 -0.1931
 4075TIP3    H136420   2.763   7.204   9.058 -0.1854  1.4350  0.8530
 4075TIP3    H236421   2.704   7.305   8.962 -0.0664 -0.2255 -1.0383
 4076TIP3   OH236422   0.411   3.170   9.469 -0.1454 -0.0374  0.1044
 4076TIP3    H136423   0.481   3.154   9.531  2.2189 -0.6575 -2.5161
 4076TIP3    H236424   0.415   3.264   9.452  0.5823 -0.1781 -0.5640
 4077TIP3   OH236425   7.371   2.156   6.897  0.0428 -0.2044  0.0055
 4077TIP3    H136426   7.304   2.156   6.965  0.7000  1.9857  0.7414
 4077TIP3    H236427   7.430   2.085   6.922 -1.1804 -1.1848  0.1779
 4078TIP3   OH236428   3.893   5.009   7.417 -0.4193 -0.2119 -0.5223
 4078TIP3    H136429   3.878   4.914   7.414 -0.3406 -0.2302 -0.3449
 4078TIP3    H236430   3.986   5.018   7.434 -0.5848 -0.1078  0.3653
 4079TIP3   OH236431   2.624   1.172   8.379 -0.6340 -0.7193  0.1672
 4079TIP3    H136432   2.565   1.098   8.395 -1.2507 -0.3445 -0.2782
 4079TIP3    H236433   2.709   1.133   8.363 -1.3370 -1.5062 -2.0653
 4080TIP3   OH236434   2.423   2.188   7.536  0.5059  0.3444 -0.4915
 4080TIP3    H136435   2.513   2.193   7.568  0.4298  0.1773 -0.2466
 4080TIP3    H236436   2.389   2.106   7.573 -0.0879  0.9275  0.3005
 4081TIP3   OH236437   1.772   4.494   9.240  0.0503 -0.0515  0.0503
 4081TIP3    H136438   1.771   4.488   9.145  1.3850  1.6378 -0.1123
 4081TIP3    H236439   1.865   4.506   9.263 -0.3418  0.5325  1.4788
 4082TIP3   OH236440   3.715   4.346   9.255  0.2616  0.2465 -0.6527
 4082TIP3    H136441   3.761   4.430   9.248  0.4571  0.0202 -2.5990
 4082TIP3    H236442   3.623   4.369   9.261  0.4261  0.6292  1.0286
 4083TIP3   OH236443   2.269   0.561   8.098 -0.1711  0.4349  0.2233
 4083TIP3    H136444   2.313   0.477   8.089 -0.1336  0.6432 -2.3991
 4083TIP3    H236445   2.185   0.549   8.054 -0.4930  1.5300  0.5140
 4084TIP3   OH236446   2.840   5.450   7.652 -0.2013  0.3451 -0.7983
 4084TIP3    H136447   2.748   5.458   7.626  0.0429 -0.5394 -2.0499
 4084TIP3    H236448   2.836   5.421   7.744 -1.1554  0.7978 -0.6819
 4085TIP3   OH236449   6.904   6.076   7.880 -0.3396  0.0202  0.0445
 4085TIP3    H136450   6.943   5.990   7.893 -0.4496 -0.0667 -0.1912
 4085TIP3    H236451   6.824   6.059   7.831 -0.6390  0.2056  0.4639
 4086TIP3   OH236452   7.677   0.982   8.117 -0.1532 -0.3537 -0.1765
 4086TIP3    H136453   7.634   0.950   8.037 -0.7047 -4.7910  1.5691
 4086TIP3    H236454   7.725   0.906   8.150  1.6742  1.8561  2.7263
 4087TIP3   OH236455   2.574   1.178   7.664 -0.3152 -0.5830 -0.0413
 4087TIP3    H136456   2.640   1.187   7.596 -1.6666 -0.3972 -1.3817
 4087TIP3    H236457   2.558   1.084   7.669 -1.8120 -0.4480 -1.6181
 4088TIP3   OH236458   4.323   2.136   8.625  0.0990  0.5243 -0.5986
 4088TIP3    H136459   4.289   2.110   8.540  2.2913 -3.3562 -0.5249
 4088TIP3    H236460   4.414   2.160   8.608  0.7027 -0.7465  0.6339
 4089TIP3   OH236461   6.331   4.256   8.622 -0.0395  0.6812  0.0039
 4089TIP3    H136462   6.410   4.229   8.575  0.4562  1.3753  0.4119
 4089TIP3    H236463   6.333   4.351   8.618  1.0373  0.8901  2.9707
 4090TIP3   OH236464   7.460   3.775   7.221 -0.0421  0.3297  0.1942
 4090TIP3    H136465   7.494   3.686   7.227  0.2528  0.4708  0.6406
 4090TIP3    H236466   7.493   3.809   7.138 -1.8551 -0.6821 -1.0258
 4091TIP3   OH236467   3.744   3.809   8.517  0.0763 -0.4566  0.2749
 4091TIP3    H136468   3.718   3.891   8.473 -2.4471 -1.0827  0.4681
 4091TIP3    H236469   3.673   3.748   8.497  2.1408 -2.8103 -0.2912
 4092TIP3   OH236470   6.132   7.443   7.644 -0.3985 -0.0465 -0.0484
 4092TIP3    H136471   6.133   7.516   7.706 -0.8948  0.4563 -0.6205
 4092TIP3    H236472   6.075   7.378   7.684 -0.0372 -0.0884  0.4143
 4093TIP3   OH236473   5.883   2.361   8.029 -0.2883 -0.2398 -0.2886
 4093TIP3    H136474   5.807   2.383   7.975 -0.6195 -1.9750 -0.5938
 4093TIP3    H236475   5.846   2.327   8.110  0.2131  2.0085  0.9758
 4094TIP3   OH236476   1.653   2.057   7.905  0.6152 -0.0142  0.7361
 4094TIP3    H136477   1.728   2.012   7.942 -0.6150 -0.4752  2.8168
 4094TIP3    H236478   1.626   2.119   7.972 -1.1916 -0.2527  0.2863
 4095TIP3   OH236479   1.975   6.224   9.435 -0.4286 -0.4515 -0.2072
 4095TIP3    H136480   2.066   6.232   9.406 -0.7985 -0.2088 -1.3607
 4095TIP3    H236481   1.961   6.301   9.490  0.2060 -0.7645  0.4108
 4096TIP3   OH236482   5.540   4.779   8.074 -0.1049 -0.3109 -0.6708
 4096TIP3    H136483   5.494   4.717   8.017 -2.1896  0.6559 -0.0998
 4096TIP3    H236484   5.557   4.855   8.018  0.6889 -0.5917 -0.8298
 4097TIP3   OH236485   4.549   1.033   9.315 -0.4777 -0.0405 -0.5754
 4097TIP3    H136486   4.467   1.003   9.353 -0.5860 -1.8733 -2.1048
 4097TIP3    H236487   4.596   0.953   9.292  2.4069  0.8928  1.4546
 4098TIP3   OH236488   5.374   5.900   8.280  0.2865  0.1041 -0.4572
 4098TIP3    H136489   5.296   5.867   8.237 -0.1645  1.4658 -0.7202
 4098TIP3    H236490   5.350   5.987   8.312  1.5413  0.3582 -0.1217
 4099TIP3   OH236491   6.589   0.855   7.592 -0.0231 -0.0847 -0.5716
 4099TIP3    H136492   6.578   0.837   7.498 -0.5639 -0.0485 -0.5204
 4099TIP3    H236493   6.678   0.888   7.600  0.0792 -0.2351 -1.0519
 4100TIP3   OH236494   2.749   6.704   7.635  0.1940  0.2877  0.0985
 4100TIP3    H136495   2.710   6.692   7.721  0.4568 -0.0201  0.1760
 4100TIP3    H236496   2.799   6.624   7.619  1.8010  1.1457  0.5256
 4101TIP3   OH236497   5.218   0.162   7.180 -0.3435  0.4311 -0.2539
 4101TIP3    H136498   5.226   0.257   7.181  0.4595  0.3684  0.1035
 4101TIP3    H236499   5.156   0.144   7.109  0.1127  1.1827 -0.8599
 4102TIP3   OH236500   7.022   4.418   8.912 -0.0437  0.1813 -0.5656
 4102TIP3    H136501   7.091   4.378   8.860  1.1753  2.6322 -1.0257
 4102TIP3    H236502   7.058   4.421   9.001 -1.2093 -1.9939  0.0379
 4103TIP3   OH236503   6.533   4.487   8.883  0.3241 -0.1974 -0.2164
 4103TIP3    H136504   6.489   4.415   8.838  1.2021 -0.5371 -0.5497
 4103TIP3    H236505   6.607   4.446   8.928  0.6619  0.4498 -0.1695
 4104TIP3   OH236506   6.055   7.022   8.270 -0.4252  0.1276  0.3644
 4104TIP3    H136507   6.038   6.945   8.216  0.9502  0.7831 -1.0903
 4104TIP3    H236508   5.986   7.021   8.337 -0.7163 -2.0818  0.1001
 4105TIP3   OH236509   5.453   2.940   8.814 -0.7571  0.6778 -0.1702
 4105TIP3    H136510   5.415   2.985   8.890 -0.5947  1.1932 -0.3924
 4105TIP3    H236511   5.406   2.977   8.739  1.1469  2.4069 -0.5916
 4106TIP3   OH236512   2.600   5.277   9.043  0.0715  0.5566  0.3159
 4106TIP3    H136513   2.617   5.205   9.104  0.8790  0.3323 -0.1598
 4106TIP3    H236514   2.676   5.335   9.053 -0.4378  1.1989  0.4895
 4107TIP3   OH236515   1.158   1.112   9.132 -0.4851 -0.3213  0.0083
 4107TIP3    H136516   1.163   1.081   9.042 -1.0672  0.9822 -0.4868
 4107TIP3    H236517   1.107   1.193   9.128 -2.1592 -1.2072  1.7699
 4108TIP3   OH236518   0.525   1.263   8.974 -0.0645  0.4484  0.0611
 4108TIP3    H136519   0.599   1.319   8.950  0.3597  0.0484  0.3830
 4108TIP3    H236520   0.470   1.318   9.030  0.4252  0.5011  0.5010
 4109TIP3   OH236521   5.499   0.357   9.343 -0.4691 -0.0044  0.0126
 4109TIP3    H136522   5.491   0.272   9.385 -0.1164  0.2139  0.5232
 4109TIP3    H236523   5.593   0.369   9.329 -0.5941 -0.1877 -1.0757
 4110TIP3   OH236524   3.456   4.804   9.532  0.0140 -0.1036  0.2316
 4110TIP3    H136525   3.417   4.782   9.448 -1.0941  0.1600  0.6541
 4110TIP3    H236526   3.407   4.752   9.596 -1.9510  2.6393  1.1471
 4111TIP3   OH236527   0.542   1.507   7.033  0.4702 -0.1392 -0.0675
 4111TIP3    H136528   0.585   1.500   7.119  1.2269  1.3066 -0.2920
 4111TIP3    H236529   0.614   1.520   6.971 -0.1666  0.4053 -0.7059
 4112TIP3   OH236530   5.239   7.195   6.760 -0.4897  0.5222  0.3065
 4112TIP3    H136531   5.169   7.164   6.702  1.3988  0.9104 -2.3200
 4112TIP3    H236532   5.230   7.290   6.760 -1.2067  0.4928  1.7270
 4113TIP3   OH236533   5.496   1.852   7.855 -0.0154 -0.0152 -0.0292
 4113TIP3    H136534   5.420   1.845   7.912 -0.8362  0.2612 -1.0552
 4113TIP3    H236535   5.475   1.925   7.796  0.7235 -0.3973 -0.7891
 4114TIP3   OH236536   1.127   2.092   7.124 -0.4391  0.6586 -0.5854
 4114TIP3    H136537   1.176   2.173   7.111  0.0546  0.0953 -2.5797
 4114TIP3    H236538   1.190   2.023   7.109 -0.7182 -0.1729  1.6404
 4115TIP3   OH236539   0.104   4.275   6.538 -0.1213 -0.2334  0.2556
 4115TIP3    H136540   0.055   4.196   6.557  0.8385 -0.7577  0.6113
 4115TIP3    H236541   0.188   4.244   6.505  0.8594  0.6080  1.8515
 4116TIP3   OH236542   2.277   1.559   8.189  0.0442  0.5143 -0.3884
 4116TIP3    H136543   2.276   1.650   8.162 -1.5695  0.4202 -0.7945
 4116TIP3    H236544   2.229   1.513   8.119 -1.9864 -0.1197  1.3043
 4117TIP3   OH236545   1.604   5.174   9.337  0.0782 -0.2087 -0.2479
 4117TIP3    H136546   1.678   5.131   9.379  1.0745  0.6867 -1.0224
 4117TIP3    H236547   1.584   5.119   9.262 -0.3516 -0.6979  0.2184
 4118TIP3   OH236548   6.438   2.302   9.223 -0.1474 -0.4712  0.2979
 4118TIP3    H136549   6.395   2.385   9.202 -0.1153 -0.7880 -1.1044
 4118TIP3    H236550   6.529   2.315   9.198 -0.5377 -1.5812 -2.0192
 4119TIP3   OH236551   7.286   6.793   8.588 -0.0656 -0.1883 -0.1723
 4119TIP3    H136552   7.218   6.731   8.565  0.7925 -0.9071 -0.8526
 4119TIP3    H236553   7.336   6.806   8.507 -0.6325  1.9398 -0.2501
 4120TIP3   OH236554   1.979   1.444   8.179 -0.0682 -0.1625  0.3930
 4120TIP3    H136555   2.035   1.493   8.240  1.8374 -0.8574 -0.6896
 4120TIP3    H236556   2.035   1.429   8.102 -1.0660 -2.6154  0.0332
 4121TIP3   OH236557   2.534   3.353   7.230 -0.3799  0.4254 -0.0810
 4121TIP3    H136558   2.600   3.341   7.161  0.7269  0.4317  0.9468
 4121TIP3    H236559   2.451   3.358   7.183  0.2407 -0.5447 -1.3441
 4122TIP3   OH236560   2.890   4.378   8.255 -0.4597  0.0178  0.0557
 4122TIP3    H136561   2.849   4.456   8.216  0.0522  1.6229  2.5411
 4122TIP3    H236562   2.819   4.336   8.304 -0.9403 -1.6352 -1.9242
 4123TIP3   OH236563   4.586   1.237   7.008  0.4681 -0.1318  0.7397
 4123TIP3    H136564   4.524   1.262   6.940  1.7599 -1.0043 -0.8432
 4123TIP3    H236565   4.532   1.203   7.079 -0.8761 -0.5140 -0.4217
 4124TIP3   OH236566   2.857   1.326   8.366  0.9088 -0.4469 -0.3398
 4124TIP3    H136567   2.902   1.410   8.371 -1.3505  0.7903  0.8476
 4124TIP3    H236568   2.864   1.290   8.454 -1.7765  0.6171  0.4101
 4125TIP3   OH236569   4.271   5.622   9.816 -0.0294 -0.2834 -0.0362
 4125TIP3    H136570   4.257   5.710   9.851 -0.7967 -0.4568  0.1055
 4125TIP3    H236571   4.360   5.599   9.845  0.1621  0.4272 -0.0474
 4126TIP3   OH236572   0.310   3.780   7.944 -0.4264 -0.0926 -0.0808
 4126TIP3    H136573   0.321   3.775   7.849  1.4544  0.9988  0.0133
 4126TIP3    H236574   0.228   3.827   7.956  0.1857  1.4016 -1.2484
 4127TIP3   OH236575   2.442   5.985   8.223 -0.0348 -0.4756 -0.1758
 4127TIP3    H136576   2.525   6.020   8.192 -0.2095  0.2658  0.1767
 4127TIP3    H236577   2.466   5.909   8.276  0.3784 -0.5637 -0.4790
 4128TIP3   OH236578   2.558   1.331   8.592 -0.0378 -0.0050  0.6872
 4128TIP3    H136579   2.591   1.265   8.531 -1.1077  0.0180  0.0633
 4128TIP3    H236580   2.559   1.413   8.542 -0.1140  0.1792  0.9811
 4129TIP3   OH236581   5.923   4.606   8.497 -0.0548 -0.0001  0.1534
 4129TIP3    H136582   5.930   4.523   8.544 -1.5266 -0.4899 -0.4711
 4129TIP3    H236583   5.882   4.666   8.560  1.0518  0.3010  0.6206
 4130TIP3   OH236584   2.250   4.203   8.844  0.1601 -0.1393 -0.0086
 4130TIP3    H136585   2.158   4.208   8.819 -0.1035 -1.1287  0.6833
 4130TIP3    H236586   2.266   4.109   8.855  1.4725 -0.0399 -0.8811
 4131TIP3   OH236587   4.220   7.392   9.766  0.3397 -0.2222  0.0140
 4131TIP3    H136588   4.208   7.304   9.728 -0.6985  0.5372 -1.5164
 4131TIP3    H236589   4.136   7.435   9.753  1.0382  1.2250  0.1427
 4132TIP3   OH236590   6.232   1.681   7.506 -0.1851  0.1983  0.1418
 4132TIP3    H136591   6.266   1.762   7.543  0.5655 -0.7653  1.6331
 4132TIP3    H236592   6.184   1.709   7.427 -0.0285  2.0772  0.6699
 4133TIP3   OH236593   1.684   6.310   9.015  0.6304  0.9396 -0.3596
 4133TIP3    H136594   1.778   6.296   9.001  0.4459 -0.6576 -0.1973
 4133TIP3    H236595   1.648   6.222   9.029 -0.9202  1.4982 -0.5689
 4134TIP3   OH236596   7.394   4.629   9.505 -0.4124 -0.5035  0.1932
 4134TIP3    H136597   7.313   4.676   9.485 -0.5928 -0.5150  0.9013
 4134TIP3    H236598   7.446   4.690   9.557  0.0620 -0.4792 -0.2875
 4135TIP3   OH236599   1.840   2.732   8.739  0.1204  0.0055  0.0306
 4135TIP3    H136600   1.813   2.658   8.793  0.4781 -0.7559 -0.8134
 4135TIP3    H236601   1.767   2.744   8.677 -1.5896  2.6026  2.2661
 4136TIP3   OH236602   5.354   0.676   9.033  0.3006  0.0418  0.0588
 4136TIP3    H136603   5.427   0.730   9.064  0.6544 -0.2647 -0.2237
 4136TIP3    H236604   5.276   0.714   9.075  0.9266 -1.4623  2.8538
 4137TIP3   OH236605   6.303   2.234   8.200 -0.4699  1.0783  0.1259
 4137TIP3    H136606   6.397   2.247   8.205 -0.5550  2.0825 -0.6471
 4137TIP3    H236607   6.281   2.250   8.109 -1.0434 -1.7019 -0.3094
 4138TIP3   OH236608   1.648   4.163   6.647 -0.1822 -0.7639  0.6122
 4138TIP3    H136609   1.723   4.105   6.633  1.1773  1.1912 -0.8187
 4138TIP3    H236610   1.632   4.160   6.741  1.8985 -1.0300  0.9917
 4139TIP3   OH236611   1.048   3.056   7.257 -0.3311 -0.2571 -0.3997
 4139TIP3    H136612   1.039   2.992   7.327  1.5780 -0.7026 -0.5046
 4139TIP3    H236613   0.971   3.113   7.266 -0.7686 -1.0486  1.2511
 4140TIP3   OH236614   4.043   7.174   9.156 -0.9241  0.2025  0.1675
 4140TIP3    H136615   3.998   7.105   9.205 -0.8896  2.1601  3.2476
 4140TIP3    H236616   4.125   7.134   9.129 -0.8355 -0.9748  1.9789
 4141TIP3   OH236617   0.851   7.677   8.112  0.0580 -0.1913 -0.4095
 4141TIP3    H136618   0.907   7.627   8.172  0.1373  0.3129 -0.0629
 4141TIP3    H236619   0.826   7.754   8.161  1.6194  1.1771 -1.6316
 4142TIP3   OH236620   5.776   0.530   7.708  0.1621  0.2824  0.8608
 4142TIP3    H136621   5.832   0.503   7.781  0.3186 -1.9316 -0.0054
 4142TIP3    H236622   5.748   0.618   7.731  0.7690 -0.0807  3.2545
 4143TIP3   OH236623   5.765   3.058   8.103  0.2753  0.2307  0.3153
 4143TIP3    H136624   5.749   2.998   8.030 -0.6959  1.7840 -0.8202
 4143TIP3    H236625   5.772   3.002   8.180 -0.5091 -1.3308 -0.7115
 4144TIP3   OH236626   1.906   2.234   7.230  0.8266  0.7521  0.6457
 4144TIP3    H136627   1.947   2.309   7.273  0.6205  1.2088  0.0488
 4144TIP3    H236628   1.979   2.182   7.197  0.9572  2.2235 -1.5682
 4145TIP3   OH236629   2.396   4.365   9.430 -0.0108 -0.5890 -0.4240
 4145TIP3    H136630   2.456   4.292   9.421 -0.8766 -1.0591 -4.2184
 4145TIP3    H236631   2.310   4.324   9.440 -0.5221 -0.2596 -2.7293
 4146TIP3   OH236632   1.709   6.618   7.487 -0.0219 -0.3198  0.4918
 4146TIP3    H136633   1.709   6.700   7.438 -0.6968 -0.1713  0.7269
 4146TIP3    H236634   1.666   6.639   7.570  0.3997 -0.7546  0.8306
 4147TIP3   OH236635   2.986   3.749   7.205  0.1942 -0.1122  0.1429
 4147TIP3    H136636   2.931   3.699   7.265  0.2121  0.6991  0.8563
 4147TIP3    H236637   2.928   3.817   7.170  0.0938 -0.7738 -1.0327
 4148TIP3   OH236638   2.031   1.596   8.715  0.4580 -0.0460  0.0881
 4148TIP3    H136639   2.122   1.625   8.717  0.5199 -0.1413 -0.8545
 4148TIP3    H236640   2.030   1.516   8.768  0.3344  1.4759  2.4998
 4149TIP3   OH236641   6.825   0.883   7.884  0.2524 -0.2661 -0.5267
 4149TIP3    H136642   6.856   0.951   7.824 -0.4115  1.1570  0.6673
 4149TIP3    H236643   6.733   0.904   7.898  0.2690 -0.8734  0.5768
 4150TIP3   OH236644   7.636   7.651   7.003  0.3726  0.2022  0.7646
 4150TIP3    H136645   7.654   7.564   7.040  1.2250  0.6736  1.4891
 4150TIP3    H236646   7.590   7.633   6.921  1.3124 -0.9661  0.4731
 4151TIP3   OH236647   4.713   3.668   8.184  0.3644 -0.4831 -0.4205
 4151TIP3    H136648   4.732   3.584   8.141 -1.7271 -1.5421  0.5828
 4151TIP3    H236649   4.781   3.676   8.251 -0.1752 -2.0846  0.3778
 4152TIP3   OH236650   3.556   2.819   7.336 -0.5068  0.2016 -0.2521
 4152TIP3    H136651   3.586   2.809   7.426  0.0749  1.2332 -0.3084
 4152TIP3    H236652   3.562   2.731   7.298 -2.3411 -0.5882  1.1588
 4153TIP3   OH236653   1.733   7.659   8.379  0.1900  0.3690  0.8634
 4153TIP3    H136654   1.807   7.686   8.433  1.6402 -1.3904 -0.1286
 4153TIP3    H236655   1.771   7.603   8.312 -1.8837  0.4827 -0.5174
 4154TIP3   OH236656   3.053   5.111   7.408  0.1350  0.7061 -0.5997
 4154TIP3    H136657   3.084   5.146   7.325  0.3057 -0.3308 -0.9955
 4154TIP3    H236658   3.130   5.069   7.446 -0.5283 -1.1372 -1.1805
 4155TIP3   OH236659   4.176   5.061   7.873  0.2655  0.5904  0.0877
 4155TIP3    H136660   4.176   5.126   7.802 -0.3992 -0.5075 -0.9611
 4155TIP3    H236661   4.124   5.102   7.942 -2.3145  0.2788 -1.5046
 4156TIP3   OH236662   2.200   4.468   6.977 -0.1749 -0.0849 -0.4879
 4156TIP3    H136663   2.248   4.400   6.930  0.6445  0.6938 -0.8118
 4156TIP3    H236664   2.234   4.550   6.942 -0.1944  0.5102  0.8151
 4157TIP3   OH236665   4.078   6.051   7.746 -0.1046  0.1678  0.0776
 4157TIP3    H136666   4.014   6.046   7.817 -0.6904  0.0181 -0.4527
 4157TIP3    H236667   4.147   5.989   7.771 -0.9482 -0.8835 -0.1081
 4158TIP3   OH236668   1.701   7.555   7.729 -0.3204  1.5475  0.3443
 4158TIP3    H136669   1.762   7.586   7.662 -0.5727 -0.5922 -0.9475
 4158TIP3    H236670   1.744   7.479   7.768 -0.7786  1.9497  1.6832
 4159TIP3   OH236671   4.480   4.938   7.457 -0.3714 -0.5172 -0.3885
 4159TIP3    H136672   4.401   4.931   7.402 -0.2351 -0.1361 -0.6356
 4159TIP3    H236673   4.456   4.999   7.527 -0.5068 -0.9119 -0.0893
 4160TIP3   OH236674   5.996   3.117   8.538 -0.1504 -0.1882 -0.4943
 4160TIP3    H136675   5.904   3.100   8.518 -0.7804  1.4404  0.8208
 4160TIP3    H236676   6.026   3.171   8.465  0.6249 -2.9080 -2.3661
 4161TIP3   OH236677   6.561   6.558   8.070  0.0187 -0.0258 -0.1007
 4161TIP3    H136678   6.487   6.612   8.043  2.0031  1.8343 -2.1963
 4161TIP3    H236679   6.601   6.605   8.143  0.5745  0.3140 -0.6146
 4162TIP3   OH236680   5.666   3.883   8.758 -0.6135 -0.4800  0.2186
 4162TIP3    H136681   5.744   3.837   8.789 -0.8077 -0.8522  0.1596
 4162TIP3    H236682   5.648   3.844   8.672  0.8186  1.5871 -1.1112
 4163TIP3   OH236683   5.979   1.852   6.810  0.7267 -0.1719 -0.7807
 4163TIP3    H136684   5.968   1.946   6.794  1.1194 -0.2254 -1.4098
 4163TIP3    H236685   5.918   1.810   6.750  0.4089 -0.3229 -0.3617
 4164TIP3   OH236686   2.425   1.132   8.741  0.4156  0.1261 -0.0094
 4164TIP3    H136687   2.450   1.219   8.710 -0.2748  0.7240  1.0736
 4164TIP3    H236688   2.508   1.087   8.754  0.7517  0.1630 -1.8013
 4165TIP3   OH236689   2.177   3.739   8.513  0.5647  0.3141  0.4146
 4165TIP3    H136690   2.182   3.826   8.553  0.6559  0.0694  0.9559
 4165TIP3    H236691   2.129   3.686   8.578 -0.5502  0.2545 -0.4380
 4166TIP3   OH236692   5.269   4.476   7.630  0.5666  0.1824  0.1829
 4166TIP3    H136693   5.357   4.457   7.596  0.4343 -0.6262  0.2731
 4166TIP3    H236694   5.210   4.449   7.559  0.4005  1.4532 -0.2006
 4167TIP3   OH236695   6.732   3.547   9.281 -0.2273  0.3999 -0.2717
 4167TIP3    H136696   6.653   3.497   9.304  0.1199  0.3584  0.8641
 4167TIP3    H236697   6.800   3.480   9.271  0.0843  0.5736  0.5962
 4168TIP3   OH236698   4.487   4.007   6.646 -0.3503 -0.4332 -0.0344
 4168TIP3    H136699   4.515   4.063   6.718  0.0188 -1.3804  0.5786
 4168TIP3    H236700   4.395   4.030   6.632 -0.0492  0.7305 -0.1992
 4169TIP3   OH236701   5.573   2.397   6.694 -0.1118 -0.1449  0.3620
 4169TIP3    H136702   5.487   2.406   6.654  0.4246 -0.3026 -0.8715
 4169TIP3    H236703   5.635   2.414   6.623  0.8826 -0.8158  1.0359
 4170TIP3   OH236704   1.903   6.839   9.267  0.2407 -0.0121 -0.3431
 4170TIP3    H136705   1.938   6.752   9.247  0.1536 -0.1950  0.2812
 4170TIP3    H236706   1.865   6.830   9.354 -1.3517  0.1852 -0.9785
 4171TIP3   OH236707   3.223   7.529   8.849 -0.3557  0.0212  0.0431
 4171TIP3    H136708   3.257   7.569   8.769  0.7651  1.3227  1.1084
 4171TIP3    H236709   3.300   7.492   8.892 -0.8632 -0.2220  0.7612
 4172TIP3   OH236710   1.866   4.379   6.854 -0.1813  0.6204 -0.2098
 4172TIP3    H136711   1.866   4.350   6.763  0.1548  2.5435 -0.8603
 4172TIP3    H236712   1.933   4.448   6.858 -0.4907  0.8733  1.3927
 4173TIP3   OH236713   4.859   5.460   9.612  0.3156 -0.5863 -0.4237
 4173TIP3    H136714   4.781   5.470   9.556  0.2045 -0.2714 -0.2110
 4173TIP3    H236715   4.857   5.368   9.638 -0.6647 -0.2962  0.5753
 4174TIP3   OH236716   5.551   0.162   6.714 -0.0311 -0.1451  0.3469
 4174TIP3    H136717   5.504   0.100   6.770  0.5568  0.4878  1.5919
 4174TIP3    H236718   5.560   0.240   6.768  1.7685  0.0212 -0.1276
 4175TIP3   OH236719   3.726   5.375   9.517  0.0276  0.2870  0.5774
 4175TIP3    H136720   3.732   5.285   9.546  0.0620 -0.0757 -0.4961
 4175TIP3    H236721   3.815   5.409   9.523  0.7523 -0.8438 -2.2836
 4176TIP3   OH236722   4.515   6.779   8.221 -0.0365  1.0153  0.2607
 4176TIP3    H136723   4.493   6.863   8.182 -2.4710  0.9121  1.2436
 4176TIP3    H236724   4.499   6.714   8.152 -0.2955  1.1708  0.1763
 4177TIP3   OH236725   2.175   5.840   7.225  0.3397  0.3735 -0.3863
 4177TIP3    H136726   2.146   5.918   7.178  0.4372  0.4440 -0.3291
 4177TIP3    H236727   2.132   5.768   7.180  1.3776  0.3304 -1.3697
 4178TIP3   OH236728   1.396   2.032   9.043  0.6198 -0.4114  0.1191
 4178TIP3    H136729   1.435   2.037   8.956  0.6267  0.2877  0.1570
 4178TIP3    H236730   1.312   1.988   9.030  1.3167 -1.7407  0.0099
 4179TIP3   OH236731   0.906   4.243   7.086  0.1883 -0.5735  0.1034
 4179TIP3    H136732   0.970   4.312   7.067 -0.5128  0.2159  0.4946
 4179TIP3    H236733   0.861   4.229   7.003  0.5864 -0.8311 -0.0702
 4180TIP3   OH236734   6.731   6.995   6.558 -0.6828 -0.5337  0.7665
 4180TIP3    H136735   6.675   6.942   6.615 -1.6370  1.4554  1.7637
 4180TIP3    H236736   6.678   7.009   6.480  0.0955 -2.1010 -0.0967
 4181TIP3   OH236737   2.145   4.749   7.191  0.4830  0.0718  0.0767
 4181TIP3    H136738   2.055   4.778   7.176  1.2308  1.6333 -1.9116
 4181TIP3    H236739   2.176   4.724   7.103  1.5629 -1.8552  0.9390
 4182TIP3   OH236740   0.915   5.200   9.403 -0.2647  0.1468 -0.0942
 4182TIP3    H136741   0.937   5.181   9.494 -0.2869  1.6667  0.2556
 4182TIP3    H236742   0.918   5.115   9.359  0.4289 -0.5085  1.1744
 4183TIP3   OH236743   0.587   6.911   9.603 -0.4190 -0.0277 -0.2984
 4183TIP3    H136744   0.639   6.967   9.546 -1.0651  0.3626 -0.5132
 4183TIP3    H236745   0.506   6.960   9.618  0.1808  0.4042  1.8952
 4184TIP3   OH236746   2.638   6.131   7.800  0.0097  0.0078 -0.4295
 4184TIP3    H136747   2.668   6.062   7.740 -0.5592  0.0209 -0.7348
 4184TIP3    H236748   2.549   6.150   7.772 -0.5409 -0.5064  0.9040
 4185TIP3   OH236749   7.607   5.765   8.070 -0.2121  0.0341 -0.3993
 4185TIP3    H136750   7.553   5.710   8.128  0.2159 -1.8124 -1.6745
 4185TIP3    H236751   7.588   5.733   7.982  1.0453  1.0943 -1.0870
 4186TIP3   OH236752   2.255   1.922   8.932  0.0894 -0.1256 -0.1198
 4186TIP3    H136753   2.268   1.968   9.015 -0.2163 -2.3874  1.2608
 4186TIP3    H236754   2.254   1.992   8.866  2.5507  1.5870  1.4816
 4187TIP3   OH236755   5.913   4.677   8.927 -0.0731  0.3930  0.4409
 4187TIP3    H136756   5.994   4.661   8.879 -0.3916  0.9693 -0.3117
 4187TIP3    H236757   5.936   4.664   9.019  0.7177 -0.0455  0.1911
 4188TIP3   OH236758   6.138   6.388   9.052  0.0246  0.0211  0.2190
 4188TIP3    H136759   6.210   6.363   8.994  0.5764  0.3587  0.7431
 4188TIP3    H236760   6.107   6.471   9.017 -0.9767 -0.7361 -0.7710
 4189TIP3   OH236761   2.532   6.288   8.036  0.6198  0.0945 -0.1400
 4189TIP3    H136762   2.613   6.237   8.034  0.1957 -0.6663  0.9623
 4189TIP3    H236763   2.540   6.345   8.112  0.5060  0.7091 -0.5718
 4190TIP3   OH236764   6.166   6.350   6.463 -0.2759 -0.3804  0.4327
 4190TIP3    H136765   6.239   6.350   6.525  0.5172 -1.2021 -0.4787
 4190TIP3    H236766   6.194   6.408   6.392 -0.2647 -1.1193 -0.1820
 4191TIP3   OH236767   4.041   3.853   8.318  0.6850  0.6845 -0.8491
 4191TIP3    H136768   4.070   3.794   8.387 -3.1329 -0.4046  0.0776
 4191TIP3    H236769   4.087   3.935   8.336  1.1777 -0.0948  1.9343
 4192TIP3   OH236770   5.019   0.058   9.002  0.0549 -0.3245 -0.1969
 4192TIP3    H136771   5.065  -0.024   9.017 -0.9535 -1.0815 -1.1014
 4192TIP3    H236772   5.082   0.114   8.958  0.8743 -0.4497  0.7808
 4193TIP3   OH236773   3.287   2.994   7.910  0.2556 -0.2553 -0.2848
 4193TIP3    H136774   3.369   3.003   7.959  0.5686 -1.4319 -0.5675
 4193TIP3    H236775   3.227   2.951   7.971 -0.8959  2.4984  0.6941
 4194TIP3   OH236776   2.692   2.080   7.361  1.0011 -0.2796  0.0332
 4194TIP3    H136777   2.621   2.080   7.296 -0.4507  1.0327  1.5005
 4194TIP3    H236778   2.770   2.105   7.312  0.3851 -1.3472 -1.5673
 4195TIP3   OH236779   5.839   3.579   7.945 -0.1445 -0.0878  0.2922
 4195TIP3    H136780   5.916   3.629   7.921  0.3355 -0.7185  0.5018
 4195TIP3    H236781   5.852   3.556   8.037 -0.2393 -0.8059  0.1359
 4196TIP3   OH236782   1.385   3.766   7.693  0.5127 -0.2352 -0.2330
 4196TIP3    H136783   1.401   3.842   7.750  1.1676 -1.4135  1.2056
 4196TIP3    H236784   1.466   3.716   7.695 -0.6858 -2.2504  0.8554
 4197TIP3   OH236785   4.504   6.062   8.310  0.0881 -0.4252 -0.1756
 4197TIP3    H136786   4.471   6.066   8.220  1.2295 -0.6979 -0.6302
 4197TIP3    H236787   4.597   6.084   8.302  0.2692 -0.7246  0.9069
 4198TIP3   OH236788   0.983   4.545   8.981  0.5634 -0.6493  0.0787
 4198TIP3    H136789   0.918   4.488   8.940 -0.7780  0.2665  0.8573
 4198TIP3    H236790   0.990   4.619   8.921 -0.0819 -0.1456  0.6135
 4199TIP3   OH236791   5.349   2.216   7.861 -0.6298 -0.3388  0.8681
 4199TIP3    H136792   5.271   2.167   7.888 -1.1119  0.7943  1.6311
 4199TIP3    H236793   5.337   2.229   7.767 -0.9199 -0.9287  0.8193
 4200TIP3   OH236794   3.749   0.613   7.096 -0.1925 -0.1719 -0.2909
 4200TIP3    H136795   3.810   0.593   7.025 -0.6902  0.0030 -0.7737
 4200TIP3    H236796   3.804   0.656   7.162  0.2506 -0.2137 -0.6229
 4201TIP3   OH236797   1.693   4.161   8.394 -0.2419 -0.0191 -0.2574
 4201TIP3    H136798   1.709   4.074   8.430  0.1138  0.3605  0.5268
 4201TIP3    H236799   1.763   4.216   8.431 -2.0831  1.2395  1.5742
 4202TIP3   OH236800   7.567   4.878   8.840  0.0270 -0.1443 -0.0293
 4202TIP3    H136801   7.625   4.951   8.863 -0.4420  0.1147  0.3468
 4202TIP3    H236802   7.590   4.809   8.902 -0.8225  0.3439  0.8546
 4203TIP3   OH236803   0.877   0.409   9.066  0.0937 -0.1729 -0.2922
 4203TIP3    H136804   0.858   0.451   9.150 -1.0810 -0.2785 -0.4827
 4203TIP3    H236805   0.888   0.482   9.005  0.2194 -0.1067 -0.1892
 4204TIP3   OH236806   2.060   3.287   7.398 -0.4148  0.2552 -0.6629
 4204TIP3    H136807   2.134   3.303   7.340 -1.2187 -0.5483 -1.9771
 4204TIP3    H236808   2.074   3.197   7.429 -0.0848  0.6192  0.2529
 4205TIP3   OH236809   3.990   0.432   7.670  0.3019  0.5646 -0.9802
 4205TIP3    H136810   3.956   0.455   7.757 -0.1273  2.3984 -1.5879
 4205TIP3    H236811   4.041   0.509   7.644  1.4863 -0.4733 -1.8440
 4206TIP3   OH236812   7.156   6.645   7.913 -0.2328 -0.1297  0.0517
 4206TIP3    H136813   7.069   6.682   7.923  0.2438  0.9174  0.3970
 4206TIP3    H236814   7.156   6.608   7.825 -0.6718  0.8320 -0.3653
 4207TIP3   OH236815   0.258   5.312   7.486  0.1786 -0.0876 -0.2749
 4207TIP3    H136816   0.284   5.403   7.500  0.2933 -0.2898  0.9457
 4207TIP3    H236817   0.316   5.261   7.542 -0.0351 -0.9020 -0.7721
 4208TIP3   OH236818   3.800   1.798   8.936  0.5439  0.2763  0.1300
 4208TIP3    H136819   3.719   1.752   8.961  0.2426 -1.1946 -2.9928
 4208TIP3    H236820   3.771   1.887   8.916 -0.0496  0.1461  0.3756
 4209TIP3   OH236821   3.131   3.491   7.723 -0.2415  0.4529 -0.9111
 4209TIP3    H136822   3.176   3.468   7.642  0.3756 -0.3700 -0.3531
 4209TIP3    H236823   3.039   3.471   7.706 -0.1292  0.3689 -1.4344
 4210TIP3   OH236824   6.463   0.552   7.414 -0.0271 -0.7077  0.3867
 4210TIP3    H136825   6.527   0.494   7.373  0.5139  1.1992 -1.6793
 4210TIP3    H236826   6.415   0.591   7.341 -0.7734  0.9711  1.6873
 4211TIP3   OH236827   2.070   0.656   7.365 -0.3553 -0.0041 -0.2808
 4211TIP3    H136828   1.994   0.675   7.420  0.5969 -1.6077  1.7260
 4211TIP3    H236829   2.107   0.742   7.345 -1.2856  0.6792  0.8201
 4212TIP3   OH236830   6.276   5.940   7.644 -0.3947  0.8536  0.4184
 4212TIP3    H136831   6.331   5.981   7.710  0.4130  0.0627  0.2530
 4212TIP3    H236832   6.258   5.853   7.678 -0.3128  0.5853 -0.2105
 4213TIP3   OH236833   6.462   7.183   9.069  0.3078  0.6420 -0.5583
 4213TIP3    H136834   6.526   7.135   9.123 -1.9892 -1.5708  0.3880
 4213TIP3    H236835   6.432   7.118   9.006 -2.0139  1.1489 -0.0490
 4214TIP3   OH236836   4.327   7.407   9.232  0.3873  0.2787  0.2002
 4214TIP3    H136837   4.370   7.456   9.161  1.1373 -0.5244  0.0773
 4214TIP3    H236838   4.263   7.351   9.187 -0.4858  1.1399  0.3421
 4215TIP3   OH236839   2.958   2.129   9.067  0.6054 -0.3680 -0.4102
 4215TIP3    H136840   2.868   2.143   9.035  0.7667 -2.8031 -2.2076
 4215TIP3    H236841   3.004   2.210   9.044 -1.1343  1.0332  0.7752
 4216TIP3   OH236842   0.057   4.188   7.806  0.1639 -0.2795 -0.2915
 4216TIP3    H136843   0.097   4.253   7.748  0.3989 -0.5366 -0.4214
 4216TIP3    H236844   0.084   4.103   7.769  1.6773 -0.4540  1.1300
 4217TIP3   OH236845   6.399   2.737   9.456 -0.2311 -0.1722  0.1792
 4217TIP3    H136846   6.348   2.736   9.375 -0.9876 -0.8068  0.6463
 4217TIP3    H236847   6.341   2.698   9.522  0.9451 -1.1902  0.6666
 4218TIP3   OH236848   2.654   1.096   9.525 -0.4171 -0.4613  0.2400
 4218TIP3    H136849   2.563   1.087   9.553  0.6777 -1.9305  3.8793
 4218TIP3    H236850   2.684   1.006   9.512  0.7869 -0.0543  0.1223
 4219TIP3   OH236851   7.677   7.443   8.710  0.5670  0.6783  0.1243
 4219TIP3    H136852   7.623   7.377   8.667  0.6717  0.6747 -0.0007
 4219TIP3    H236853   7.761   7.400   8.726  0.3375  0.4856  0.8736
 4220TIP3   OH236854   4.408   1.845   8.030 -0.3336  0.7968 -0.1369
 4220TIP3    H136855   4.430   1.928   8.072 -0.0248 -0.0338  1.4564
 4220TIP3    H236856   4.493   1.802   8.017 -0.5729  0.1327  0.4117
 4221TIP3   OH236857   5.045   5.420   7.281 -0.2307 -0.0849  0.3836
 4221TIP3    H136858   5.076   5.330   7.295 -2.1156 -0.4496  3.3031
 4221TIP3    H236859   5.090   5.471   7.348  0.2720  1.0338 -0.7783
 4222TIP3   OH236860   4.263   1.052   8.906 -0.2076  0.1360 -0.8037
 4222TIP3    H136861   4.292   1.085   8.821 -1.3092 -0.1231 -1.3001
 4222TIP3    H236862   4.324   1.090   8.969  1.9325 -1.3094 -1.8734
 4223TIP3   OH236863   1.052   5.808   7.247  0.2752 -0.7009  0.1255
 4223TIP3    H136864   1.064   5.725   7.294 -0.9517  0.1044  2.0202
 4223TIP3    H236865   1.072   5.875   7.313 -2.0726  0.4964 -0.2856
 4224TIP3   OH236866   1.613   6.292   8.565 -0.2310 -0.1314 -0.2799
 4224TIP3    H136867   1.534   6.264   8.611 -0.2947  0.0542 -0.2722
 4224TIP3    H236868   1.683   6.240   8.603  0.0100  1.2385  1.3058
 4225TIP3   OH236869   4.254   3.319   7.330 -0.6319  0.8068  0.2578
 4225TIP3    H136870   4.232   3.403   7.368  0.1949  1.6798 -1.0860
 4225TIP3    H236871   4.302   3.272   7.398 -0.5534  1.6821  0.8075
 4226TIP3   OH236872   4.499   0.966   7.917  0.6876 -0.5529 -0.4375
 4226TIP3    H136873   4.478   1.055   7.945  0.9928 -0.5021 -0.3690
 4226TIP3    H236874   4.448   0.910   7.975 -1.2088 -0.3961 -1.8634
 4227TIP3   OH236875   7.404   4.163   9.095  0.0956  0.5959 -0.7293
 4227TIP3    H136876   7.353   4.100   9.044 -0.1272  0.2111 -0.0474
 4227TIP3    H236877   7.478   4.112   9.129  1.4275  1.3301 -2.3782
 4228TIP3   OH236878   0.726   0.163   8.760 -0.7703 -0.4307  0.8304
 4228TIP3    H136879   0.738   0.177   8.666 -0.5072  1.4269  1.1119
 4228TIP3    H236880   0.685   0.076   8.766  0.7259 -1.3277 -0.8801
 4229TIP3   OH236881   4.473   5.074   8.550 -0.0552 -0.1033 -0.3409
 4229TIP3    H136882   4.541   5.020   8.510 -0.9445 -0.1474 -1.8920
 4229TIP3    H236883   4.406   5.012   8.578  0.3792 -0.0360  0.8928
 4230TIP3   OH236884   0.889   5.369   7.259 -0.2771  0.2163  0.1646
 4230TIP3    H136885   0.850   5.425   7.192 -1.3225  0.3122  0.8198
 4230TIP3    H236886   0.956   5.318   7.213 -0.6982  0.5616 -0.8535
 4231TIP3   OH236887   5.060   3.722   8.807 -0.1654  0.6243 -0.0685
 4231TIP3    H136888   5.128   3.782   8.835 -0.5735  0.5296  1.2222
 4231TIP3    H236889   5.016   3.696   8.889 -1.8549  0.8238 -0.8559
 4232TIP3   OH236890   5.759   2.207   7.764 -0.0288  0.2884  0.2198
 4232TIP3    H136891   5.754   2.149   7.840  1.8241  1.2104  1.1007
 4232TIP3    H236892   5.739   2.151   7.689 -0.7782 -0.8903  1.2700
 4233TIP3   OH236893   4.224   2.008   8.887 -0.6006  0.2796  0.2567
 4233TIP3    H136894   4.225   2.038   8.796 -0.0670  2.5206  0.9426
 4233TIP3    H236895   4.142   2.044   8.922 -0.1453  0.5846  1.0148
 4234TIP3   OH236896   6.471   0.858   8.811 -0.0889 -0.1026  0.2989
 4234TIP3    H136897   6.517   0.856   8.727 -0.4669 -2.4329  0.0874
 4234TIP3    H236898   6.504   0.782   8.858 -0.2483  0.8855  2.0904
 4235TIP3   OH236899   1.203   6.351   9.233  0.1628  0.0134 -0.4607
 4235TIP3    H136900   1.193   6.429   9.287  0.0451  0.8603 -1.6928
 4235TIP3    H236901   1.115   6.315   9.224  0.3436 -0.8808  0.9606
 4236TIP3   OH236902   2.299   3.487   8.666  0.7311  0.3773 -0.3416
 4236TIP3    H136903   2.258   3.457   8.585  0.2445 -0.0442  0.0587
 4236TIP3    H236904   2.386   3.447   8.665  0.5544 -0.0082 -0.4319
 4237TIP3   OH236905   6.735   4.830   9.890 -0.5182  1.0461  0.4049
 4237TIP3    H136906   6.662   4.791   9.840 -0.7491  0.6547  1.0368
 4237TIP3    H236907   6.693   4.894   9.948 -0.5178 -0.0022  1.6039
 4238TIP3   OH236908   1.487   3.859   8.457  0.1788  0.6595  0.0144
 4238TIP3    H136909   1.392   3.870   8.456 -0.1522 -1.6101  0.9564
 4238TIP3    H236910   1.503   3.778   8.410  1.5378  0.4047  0.8538
 4239TIP3   OH236911   1.017   1.523   9.190 -0.5711 -0.0962 -0.5716
 4239TIP3    H136912   0.955   1.554   9.124 -0.3500  1.5768 -0.0536
 4239TIP3    H236913   1.082   1.473   9.141 -2.1342 -1.6294 -1.1578
 4240TIP3   OH236914   1.762   0.481   8.887  0.6414  0.4607 -0.6725
 4240TIP3    H136915   1.679   0.496   8.933 -2.1992 -3.8048 -3.6284
 4240TIP3    H236916   1.763   0.546   8.818  0.1281  0.9870 -0.1971
 4241TIP3   OH236917   0.548   4.113   9.315 -0.0529 -0.4742 -0.4720
 4241TIP3    H136918   0.456   4.099   9.337  0.0225 -2.0245 -0.9921
 4241TIP3    H236919   0.571   4.037   9.262  1.2245  0.4701 -1.3146
 4242TIP3   OH236920   0.714   2.986   9.210 -0.6530 -0.1119 -0.0039
 4242TIP3    H136921   0.667   3.013   9.131  1.0848  1.7089 -0.4957
 4242TIP3    H236922   0.740   2.896   9.192 -1.8026 -0.3264 -0.7363
 4243TIP3   OH236923   7.355   6.403   7.612 -0.6986  0.0244  0.6857
 4243TIP3    H136924   7.407   6.483   7.612 -0.4209 -0.0820 -1.8877
 4243TIP3    H236925   7.264   6.433   7.621 -0.4855  0.5011  1.2856
 4244TIP3   OH236926   2.886   0.906   9.330  0.2105 -0.3261 -0.3749
 4244TIP3    H136927   2.868   1.000   9.340  0.5966 -0.3546  0.8193
 4244TIP3    H236928   2.981   0.900   9.330  0.3093 -0.4630 -3.5904
 4245TIP3   OH236929   4.176   6.715   8.241 -0.9667  0.1897  0.3319
 4245TIP3    H136930   4.171   6.810   8.249 -0.5665  0.2051  0.4285
 4245TIP3    H236931   4.218   6.686   8.322  0.4510  0.0863 -0.3955
 4246TIP3   OH236932   5.509   3.544   8.863  0.3774 -0.5497 -0.0029
 4246TIP3    H136933   5.545   3.541   8.952  0.7085 -1.6518 -0.1574
 4246TIP3    H236934   5.430   3.597   8.871  0.6255 -0.2967  0.8730
 4247TIP3   OH236935   1.915   4.477   8.766  0.1363 -0.1051 -0.2167
 4247TIP3    H136936   1.907   4.387   8.734  0.3995 -0.2959  0.2397
 4247TIP3    H236937   1.995   4.510   8.725  0.6362 -0.4484  0.4577
 4248TIP3   OH236938   6.891   6.340   7.971  0.1832 -0.0332  0.2577
 4248TIP3    H136939   6.855   6.254   7.954 -1.0608  0.4834  0.1948
 4248TIP3    H236940   6.884   6.351   8.066 -0.7660  0.4543  0.1440
 4249TIP3   OH236941   5.446   6.057   6.512 -0.0567  0.0226 -0.2323
 4249TIP3    H136942   5.396   6.071   6.592 -0.9950  1.2657 -0.9853
 4249TIP3    H236943   5.535   6.083   6.534 -0.2373  0.0327  0.5060
 4250TIP3   OH236944   6.978   4.675   9.161  0.1463 -0.0885 -0.3807
 4250TIP3    H136945   6.994   4.666   9.067  1.1808 -0.5751 -0.1681
 4250TIP3    H236946   6.989   4.587   9.196  0.7760  0.2698  0.3508
 4251TIP3   OH236947   4.549   3.304   8.771  0.0341 -0.4810  0.1733
 4251TIP3    H136948   4.467   3.336   8.808 -0.2793  0.6691 -1.3739
 4251TIP3    H236949   4.534   3.211   8.754 -0.9760 -0.2720 -0.1222
 4252TIP3   OH236950   7.225   4.512   7.908  0.2211  0.1721 -0.3217
 4252TIP3    H136951   7.261   4.489   7.994 -0.2844 -2.8540 -0.8309
 4252TIP3    H236952   7.134   4.535   7.925  0.1581 -0.2979 -0.0191
 4253TIP3   OH236953   2.461   4.600   7.124 -0.3009  0.1669 -0.0620
 4253TIP3    H136954   2.496   4.528   7.072  0.5872  0.5379 -0.0007
 4253TIP3    H236955   2.419   4.657   7.059 -2.0658 -0.9730  0.0278
 4254TIP3   OH236956   0.722   6.053   8.633 -0.2689  0.0365  0.1409
 4254TIP3    H136957   0.795   6.105   8.664  0.3298 -0.7453  0.0797
 4254TIP3    H236958   0.726   5.972   8.684 -1.9024  0.5090  1.0983
 4255TIP3   OH236959   3.148   1.756   7.119 -0.3118  0.2972  0.0670
 4255TIP3    H136960   3.055   1.770   7.137 -0.5164 -0.3429 -0.4768
 4255TIP3    H236961   3.162   1.793   7.032 -0.4743 -1.2654 -0.6435
 4256TIP3   OH236962   4.348   5.862   8.377 -0.0905  0.4291 -0.3532
 4256TIP3    H136963   4.346   5.798   8.448 -1.8653  0.7707 -0.0478
 4256TIP3    H236964   4.416   5.924   8.404 -0.6227  0.4659  0.9948
 4257TIP3   OH236965   3.736   6.562   6.883  0.3551 -0.1849 -0.0620
 4257TIP3    H136966   3.654   6.610   6.875  1.2629  1.4671 -0.1406
 4257TIP3    H236967   3.725   6.485   6.828 -1.4047 -0.4194  0.5648
 4258TIP3   OH236968   4.092   4.012   9.391 -0.1320  0.2865 -0.1281
 4258TIP3    H136969   4.046   4.085   9.350  1.3906  1.9930  1.0483
 4258TIP3    H236970   4.029   3.976   9.454 -1.1343  0.0737 -1.2084
 4259TIP3   OH236971   5.739   2.827   6.984 -0.2114 -0.2039 -0.6403
 4259TIP3    H136972   5.709   2.758   6.926  0.0483 -0.8079 -0.0690
 4259TIP3    H236973   5.670   2.837   7.050 -0.2119  0.0274 -0.6724
 4260TIP3   OH236974   6.066   2.552   7.361  0.4378 -0.4767  0.7255
 4260TIP3    H136975   5.982   2.583   7.396  0.8864 -0.0835  1.4817
 4260TIP3    H236976   6.043   2.481   7.301 -0.3820 -0.9298  1.5559
 4261TIP3   OH236977   0.565   2.137   7.952 -0.3557 -0.5904  0.1631
 4261TIP3    H136978   0.532   2.143   7.862  0.2359 -1.8483 -0.1669
 4261TIP3    H236979   0.660   2.137   7.943 -0.2285  1.4107  0.9806
 4262TIP3   OH236980   1.139   3.202   7.059 -0.2713 -0.9711 -0.0128
 4262TIP3    H136981   1.192   3.256   7.118 -0.7666 -0.6811  0.1768
 4262TIP3    H236982   1.092   3.142   7.118 -0.3967 -1.0069 -0.1492
 4263TIP3   OH236983   1.242   1.806   9.595 -0.3644 -0.9570 -0.3952
 4263TIP3    H136984   1.224   1.792   9.502 -0.0279 -0.4020 -0.5482
 4263TIP3    H236985   1.239   1.718   9.633 -0.5884 -1.1807 -0.9136
 4264TIP3   OH236986   4.772   2.786   8.285 -0.1614  0.1267  0.2054
 4264TIP3    H136987   4.765   2.744   8.199 -0.1313 -0.3070  0.4080
 4264TIP3    H236988   4.866   2.788   8.302 -0.1739  0.1025  0.2782
 4265TIP3   OH236989   3.209   1.094   6.914  0.6812 -0.0412 -0.1669
 4265TIP3    H136990   3.220   1.013   6.963 -0.4081 -1.0373 -1.4681
 4265TIP3    H236991   3.152   1.070   6.840 -1.8066  2.4200  0.7637
 4266TIP3   OH236992   6.715   4.689   6.773 -0.5516 -0.1106  0.1835
 4266TIP3    H136993   6.655   4.663   6.703  0.2886  0.0882 -0.6380
 4266TIP3    H236994   6.783   4.740   6.728 -0.9293  1.5675  1.3971
 4267TIP3   OH236995   5.675   3.826   9.196 -0.3249 -0.1326 -0.1142
 4267TIP3    H136996   5.770   3.818   9.205 -0.2544 -1.8561 -1.6885
 4267TIP3    H236997   5.663   3.889   9.125 -0.4273  0.8612  0.7538
 4268TIP3   OH236998   3.034   1.552   8.394  0.1861  0.4060 -0.3376
 4268TIP3    H136999   2.995   1.588   8.315  0.8471  1.4208 -0.2201
 4268TIP3    H237000   3.030   1.624   8.458  0.1820 -0.2067  0.3709
 4269TIP3   OH237001   6.086   4.249   6.752 -0.2482 -0.1886 -0.4080
 4269TIP3    H137002   6.018   4.185   6.734 -0.1053 -0.3552 -0.3553
 4269TIP3    H237003   6.160   4.198   6.785  0.4564 -0.1950 -1.8921
 4270TIP3   OH237004   0.687   1.240   7.252 -0.2636 -0.0633 -0.7528
 4270TIP3    H137005   0.707   1.330   7.228 -0.8620  0.2328 -0.1597
 4270TIP3    H237006   0.655   1.245   7.342  0.4455 -0.9617 -0.4289
 4271TIP3   OH237007   0.976   7.211   7.426  0.1973  0.5118 -0.0678
 4271TIP3    H137008   0.912   7.140   7.424  0.8901 -0.1706  1.2408
 4271TIP3    H237009   1.048   7.181   7.370  1.2810 -0.6522  1.8341
 4272TIP3   OH237010   6.459   2.610   7.896 -0.2865 -0.1693  0.3621
 4272TIP3    H137011   6.380   2.655   7.926  1.4151  2.4289  1.2756
 4272TIP3    H237012   6.475   2.646   7.809 -0.8365 -1.7510 -0.4256
 4273TIP3   OH237013   2.182   5.756   7.485 -0.3536 -0.1955  0.5106
 4273TIP3    H137014   2.183   5.783   7.393 -0.0915  0.1993  0.6279
 4273TIP3    H237015   2.198   5.837   7.534  1.1838 -0.6728  0.8330
 4274TIP3   OH237016   2.980   2.712   7.751 -0.2956 -0.3105  0.4099
 4274TIP3    H137017   3.062   2.691   7.796 -0.2132 -0.1436  0.3388
 4274TIP3    H237018   2.913   2.664   7.800 -0.0752 -0.9772  0.0737
 4275TIP3   OH237019   1.796   5.169   7.456 -0.0607  0.2315  0.3682
 4275TIP3    H137020   1.848   5.103   7.409 -0.5977 -0.3759  0.6040
 4275TIP3    H237021   1.752   5.218   7.386  1.7155  1.5391  0.1126
 4276TIP3   OH237022   0.770   1.827   8.832 -0.0156 -0.2501 -0.6640
 4276TIP3    H137023   0.841   1.844   8.895 -1.1796  0.5041  0.5210
 4276TIP3    H237024   0.736   1.741   8.857  0.6790 -0.7662 -1.4528
 4277TIP3   OH237025   1.089   1.016   7.966 -0.0269 -0.1779 -0.1186
 4277TIP3    H137026   1.162   0.957   7.948  0.0491 -0.5993  1.4346
 4277TIP3    H237027   1.121   1.074   8.035 -1.2905 -0.7018  0.9634
 4278TIP3   OH237028   6.570   5.059   9.565 -0.6048 -0.2629 -0.0433
 4278TIP3    H137029   6.487   5.059   9.518 -0.9726 -0.5282  0.5884
 4278TIP3    H237030   6.614   4.980   9.536 -0.0281  0.5020 -1.2991
 4279TIP3   OH237031   1.378   2.531   8.041 -0.3758 -0.1746  0.2120
 4279TIP3    H137032   1.370   2.574   7.955 -1.5016  1.1949  0.9542
 4279TIP3    H237033   1.294   2.548   8.083  0.5860  0.2137  2.0525
 4280TIP3   OH237034   6.085   5.583   8.988 -0.1974 -0.1363  0.1213
 4280TIP3    H137035   6.101   5.575   9.082 -2.2380 -0.5049  0.4888
 4280TIP3    H237036   6.147   5.522   8.948 -0.0887 -0.8519  1.3287
 4281TIP3   OH237037   6.324   3.750   8.218 -0.0023 -0.1083  0.1604
 4281TIP3    H137038   6.239   3.793   8.226  0.8217  1.2437  2.4946
 4281TIP3    H237039   6.334   3.701   8.300  1.4404 -0.2716 -0.0832
 4282TIP3   OH237040   2.620   5.081   7.674 -0.3391  0.3001  0.2589
 4282TIP3    H137041   2.541   5.037   7.707 -2.2212  3.1554 -0.0544
 4282TIP3    H237042   2.675   5.094   7.751  0.9038 -3.4241  0.2087
 4283TIP3   OH237043   0.432   2.084   8.415  0.9474  0.1202  0.0852
 4283TIP3    H137044   0.470   2.051   8.496  0.7109  0.9170  0.5301
 4283TIP3    H237045   0.487   2.049   8.346  0.2832 -1.8177  0.4784
 4284TIP3   OH237046   0.396   0.036   7.739  0.0326  0.4338  0.0159
 4284TIP3    H137047   0.435   0.045   7.826 -0.5594  2.3352  0.1219
 4284TIP3    H237048   0.416   0.118   7.695 -1.7956  0.5152 -0.7514
 4285TIP3   OH237049   0.385   1.668   7.968  0.4115 -0.0184  0.7558
 4285TIP3    H137050   0.382   1.675   8.063 -1.1663 -1.9913  0.9184
 4285TIP3    H237051   0.371   1.575   7.950 -0.5059  0.4664 -1.4564
 4286TIP3   OH237052   1.126   4.211   8.900 -0.1870  0.6387 -0.0034
 4286TIP3    H137053   1.055   4.246   8.846 -2.3507 -2.3063  0.6768
 4286TIP3    H237054   1.159   4.136   8.850 -1.5005 -1.4863  2.1004
 4287TIP3   OH237055   1.822   3.060   7.724 -0.3286  0.1416 -0.3235
 4287TIP3    H137056   1.878   3.030   7.795 -2.6335  0.7183  1.8873
 4287TIP3    H237057   1.784   2.981   7.687  1.8407 -0.2654 -1.9117
 4288TIP3   OH237058   7.120   6.581   8.856 -0.6735  0.0086 -1.0171
 4288TIP3    H137059   7.216   6.584   8.849 -0.6738 -1.5056 -1.9425
 4288TIP3    H237060   7.102   6.607   8.947  0.7017 -1.1515 -0.3778
 4289TIP3   OH237061   3.932   4.959   8.811 -0.6764  0.2809 -0.0608
 4289TIP3    H137062   3.844   4.983   8.782 -0.1961  2.2225 -0.0715
 4289TIP3    H237063   3.981   4.943   8.731 -0.3512  1.8897 -0.2273
 4290TIP3   OH237064   4.853   0.500   7.735 -0.0229  0.2841  0.0179
 4290TIP3    H137065   4.905   0.484   7.814  1.0406 -0.2861 -0.7747
 4290TIP3    H237066   4.852   0.415   7.690 -0.5849  0.6144 -0.5914
 4291TIP3   OH237067   2.296   3.105   7.054  0.3433  0.0282 -0.1900
 4291TIP3    H137068   2.267   3.194   7.072 -1.8345 -0.5568 -0.6208
 4291TIP3    H237069   2.383   3.116   7.016 -0.0913  1.9980 -0.7277
 4292TIP3   OH237070   4.221   6.641   7.984  0.3182  0.0174  0.1849
 4292TIP3    H137071   4.221   6.664   8.076  1.6369  0.5290  0.0881
 4292TIP3    H237072   4.178   6.715   7.940 -0.5568 -0.3524  0.3978
 4293TIP3   OH237073   1.501   4.023   7.127  0.2276  0.5929 -0.1203
 4293TIP3    H137074   1.492   3.960   7.199  1.1563  0.1643 -0.3622
 4293TIP3    H237075   1.493   3.970   7.048 -1.8969  1.2113 -0.3882
 4294TIP3   OH237076   5.542   4.683   9.081  0.6533  0.2354 -0.2647
 4294TIP3    H137077   5.586   4.684   9.165  1.2257  2.0328 -0.5456
 4294TIP3    H237078   5.458   4.640   9.098  1.1253 -0.2323  0.9935
 4295TIP3   OH237079   2.396   5.578   8.545 -0.2372  0.5253  0.2194
 4295TIP3    H137080   2.325   5.638   8.567 -2.2509 -1.7010  0.2596
 4295TIP3    H237081   2.377   5.550   8.456  0.9695  0.3258  0.0042
 4296TIP3   OH237082   4.709   0.577   8.309  0.2225  0.3987  0.9183
 4296TIP3    H137083   4.721   0.603   8.400 -1.6767  2.5822  0.6501
 4296TIP3    H237084   4.671   0.654   8.267 -2.3354 -1.6604 -0.8987
 4297TIP3   OH237085   7.401   2.733   6.923 -0.1478  0.3132 -0.0141
 4297TIP3    H137086   7.343   2.662   6.892 -1.8482  2.8041 -3.1236
 4297TIP3    H237087   7.341   2.802   6.952  1.2556  2.1715 -1.3046
 4298TIP3   OH237088   4.223   1.917   8.457 -0.4221 -0.1680 -0.5939
 4298TIP3    H137089   4.296   1.879   8.507 -1.4643  1.1340  2.1532
 4298TIP3    H237090   4.178   1.841   8.419  1.1516 -1.1389 -0.6085
 4299TIP3   OH237091   0.671   6.094   7.669  0.5125  0.2003 -0.3678
 4299TIP3    H137092   0.703   6.078   7.758  0.0773  0.9288 -0.0822
 4299TIP3    H237093   0.676   6.008   7.627 -0.1989 -0.3528  0.6489
 4300TIP3   OH237094   1.415   5.269   8.538  0.7174 -0.5119  0.1285
 4300TIP3    H137095   1.324   5.247   8.520  0.8081 -0.4807 -0.3869
 4300TIP3    H237096   1.449   5.194   8.587  1.0804 -1.6453 -1.7913
 4301TIP3   OH237097   1.447   5.314  28.716 -0.8022  0.1979 -0.1437
 4301TIP3    H137098   1.373   5.364  28.749  0.1828  0.7630  1.3244
 4301TIP3    H237099   1.488   5.370  28.650 -1.0285  0.3504 -0.1535
 4302TIP3   OH237100   0.813   1.991   9.665 -0.7378 -0.2202 -0.0166
 4302TIP3    H137101   0.785   1.955   9.749 -0.3326 -1.3557 -0.3508
 4302TIP3    H237102   0.743   1.966   9.604  0.0702 -1.4197 -0.4727
 4303TIP3   OH237103   0.412   7.504   7.529 -0.5661 -0.3143  0.2456
 4303TIP3    H137104   0.388   7.546   7.446 -1.0079 -0.9685  0.0328
 4303TIP3    H237105   0.422   7.577   7.591  1.3893  0.3246 -0.7425
 4304TIP3   OH237106   2.007   4.838   8.860  0.5415 -0.1839  0.1937
 4304TIP3    H137107   2.080   4.861   8.803  0.0186 -0.3593 -0.5666
 4304TIP3    H237108   1.961   4.921   8.875  0.3703 -0.2205 -0.1000
 4305TIP3   OH237109   3.062   4.935   6.672 -0.0789 -0.1149  0.1639
 4305TIP3    H137110   3.015   4.863   6.629 -0.0326  0.2951 -0.5744
 4305TIP3    H237111   2.993   4.999   6.691  0.0254  0.0444 -0.0014
 4306TIP3   OH237112   2.274   2.627   8.893 -0.0003  0.0066 -0.1342
 4306TIP3    H137113   2.228   2.595   8.815 -2.3417 -0.7903  1.4587
 4306TIP3    H237114   2.255   2.562   8.961  1.5751  0.9068  1.2556
 4307TIP3   OH237115   7.022   1.495   7.140  0.3588 -0.1657  0.4119
 4307TIP3    H137116   6.968   1.545   7.201  0.7368 -0.0429  0.6510
 4307TIP3    H237117   6.994   1.404   7.151 -1.5009  0.1473 -1.2145
 4308TIP3   OH237118   2.003   5.322   7.180  0.3514 -0.5879 -0.3006
 4308TIP3    H137119   1.915   5.350   7.206  0.3652  0.7066 -1.5377
 4308TIP3    H237120   2.015   5.238   7.223 -0.8061  0.0246  1.3114
 4309TIP3   OH237121   3.798   5.136   9.273  0.1806  0.1070  0.2330
 4309TIP3    H137122   3.705   5.121   9.258 -0.0014  1.8308 -0.7466
 4309TIP3    H237123   3.808   5.134   9.368 -0.8637 -0.0449  0.3569
 4310TIP3   OH237124   1.698   5.215   8.420  0.2821  0.2151 -0.1459
 4310TIP3    H137125   1.619   5.254   8.457 -0.6626 -1.6817  0.0044
 4310TIP3    H237126   1.673   5.124   8.404  2.2099 -0.2253 -0.8540
 4311TIP3   OH237127   3.486   2.599   8.454  0.4862 -0.0944 -0.2718
 4311TIP3    H137128   3.542   2.564   8.384 -0.7050 -0.7046 -0.9596
 4311TIP3    H237129   3.538   2.591   8.533  1.0885 -1.3635 -0.7691
 4312TIP3   OH237130   6.433   1.997   9.206 -0.0561 -0.0034 -0.8421
 4312TIP3    H137131   6.438   2.074   9.262  0.4643  0.3421 -1.3620
 4312TIP3    H237132   6.356   2.012   9.151 -0.2516 -0.0922 -0.5934
 4313TIP3   OH237133   5.651   0.792   7.814 -0.1464 -0.7625 -0.2448
 4313TIP3    H137134   5.658   0.848   7.737  1.1022 -0.0896  0.3240
 4313TIP3    H237135   5.558   0.788   7.834 -0.2918  0.8334 -0.5128
 4314TIP3   OH237136   2.675   6.862   8.566  0.4559 -0.5742 -0.2761
 4314TIP3    H137137   2.757   6.815   8.580  0.2743 -1.0348 -0.7145
 4314TIP3    H237138   2.693   6.951   8.595  1.0053 -0.7550 -0.0479
 4315TIP3   OH237139   3.085   2.135   7.525 -0.3577 -0.0154 -0.1381
 4315TIP3    H137140   3.158   2.196   7.541 -0.9244  0.7482 -0.4231
 4315TIP3    H237141   3.082   2.081   7.604 -1.2342  1.7722  1.1315
 4316TIP3   OH237142   5.626   6.708   8.770 -0.2255 -0.1151  0.2845
 4316TIP3    H137143   5.595   6.728   8.858  1.4645  1.5306  0.5747
 4316TIP3    H237144   5.547   6.682   8.722 -1.3254 -0.1450  2.0211
 4317TIP3   OH237145   2.215   7.289   7.511 -0.1256 -0.1787 -0.2117
 4317TIP3    H137146   2.144   7.242   7.554 -1.3881  0.9931 -0.9266
 4317TIP3    H237147   2.264   7.221   7.464  0.1072 -1.1881  1.4116
 4318TIP3   OH237148   4.148   3.514   8.268 -0.2505 -0.6430  0.7281
 4318TIP3    H137149   4.156   3.575   8.341  0.2795  0.7491 -0.4375
 4318TIP3    H237150   4.058   3.482   8.273 -0.6886  0.5696  1.1393
 4319TIP3   OH237151   1.641   3.281   8.185  0.3713 -0.3319  0.0919
 4319TIP3    H137152   1.726   3.252   8.154  1.0745 -0.4961  2.0166
 4319TIP3    H237153   1.660   3.357   8.240 -0.5465 -1.0527  1.4824
 4320TIP3   OH237154   4.996   7.104   6.677  0.4643  0.3505  0.5434
 4320TIP3    H137155   4.969   7.092   6.768 -1.1215 -2.2784 -0.1575
 4320TIP3    H237156   4.916   7.129   6.631  0.9391  0.2585 -0.3669
 4321TIP3   OH237157   0.610   1.956   8.215 -0.3641 -0.5980 -0.3402
 4321TIP3    H137158   0.699   1.986   8.197 -0.5407  1.1309  1.3968
 4321TIP3    H237159   0.617   1.860   8.217  1.0188 -0.5911 -2.1665
 4322TIP3   OH237160   5.423   1.230   6.904 -0.3218  0.4750 -0.1378
 4322TIP3    H137161   5.476   1.297   6.947  2.1600 -0.8195 -0.9894
 4322TIP3    H237162   5.467   1.214   6.820 -1.0880 -1.8420 -0.1737
 4323TIP3   OH237163   5.561   4.454   7.539  0.0824 -0.4666 -0.3921
 4323TIP3    H137164   5.648   4.422   7.559 -0.1171 -0.5380  0.3977
 4323TIP3    H237165   5.573   4.548   7.525  0.5666 -0.7604 -2.1139
 4324TIP3   OH237166   5.966   1.564   8.067 -0.2179 -0.1179  0.2181
 4324TIP3    H137167   6.047   1.516   8.083 -0.2979 -0.6431 -0.9034
 4324TIP3    H237168   5.920   1.563   8.152  1.3102  0.9511  1.1143
 4325TIP3   OH237169   4.020   1.792   7.811  0.0194  0.8313 -0.4488
 4325TIP3    H137170   4.100   1.740   7.809 -0.1431  0.5311  0.4512
 4325TIP3    H237171   3.965   1.756   7.742  0.3350  0.4986 -0.5239
 4326TIP3   OH237172   6.183   7.216   9.175 -0.0413 -0.1162  0.1235
 4326TIP3    H137173   6.249   7.197   9.109 -0.6129  1.5574 -0.9872
 4326TIP3    H237174   6.232   7.219   9.258  0.8323 -1.3214 -0.3318
 4327TIP3   OH237175   1.452   2.974   8.756 -0.0725  0.5585 -0.1718
 4327TIP3    H137176   1.527   3.001   8.808  0.0610  0.4707 -0.3172
 4327TIP3    H237177   1.432   2.886   8.786  0.4415  0.2355 -0.7486
 4328TIP3   OH237178   1.834   1.426   7.895  0.1205 -0.1792 -0.3423
 4328TIP3    H137179   1.919   1.415   7.853  0.4069  0.6945 -0.0193
 4328TIP3    H237180   1.793   1.499   7.848  0.2812  0.5489  0.6063
 4329TIP3   OH237181   7.178   6.323   9.146  0.4625 -0.1514  0.2336
 4329TIP3    H137182   7.181   6.342   9.052 -1.0804  1.7579  0.5000
 4329TIP3    H237183   7.113   6.253   9.155 -0.4216  0.6146 -0.0331
 4330TIP3   OH237184   6.600   2.205   7.198  0.0478  0.3499 -0.8192
 4330TIP3    H137185   6.666   2.160   7.145  0.8889  0.3505  0.1930
 4330TIP3    H237186   6.651   2.263   7.255 -0.8801  0.8538 -0.4841
 4331TIP3   OH237187   5.466   5.491   7.642 -0.3225  0.2679  0.0037
 4331TIP3    H137188   5.543   5.448   7.605 -1.4964  0.2715 -2.6088
 4331TIP3    H237189   5.500   5.543   7.715  2.1302  0.2286 -1.0341
 4332TIP3   OH237190   6.776   2.792   7.374  0.1111 -0.2961  0.5116
 4332TIP3    H137191   6.714   2.855   7.340 -1.6574 -1.9917  0.4154
 4332TIP3    H237192   6.852   2.800   7.316 -0.9581  0.1764 -0.8985
 4333TIP3   OH237193   5.413   5.543   6.789  0.1220  0.0110 -0.4816
 4333TIP3    H137194   5.499   5.521   6.754  0.5244  1.9363 -0.8036
 4333TIP3    H237195   5.402   5.636   6.770 -0.9527  0.4235  1.7797
 4334TIP3   OH237196   2.094   1.765   8.012  0.3902  0.6996  0.4318
 4334TIP3    H137197   2.078   1.857   8.031  2.5170  0.9791  1.1398
 4334TIP3    H237198   2.066   1.754   7.921 -0.6765  1.8168  0.5989
 4335TIP3   OH237199   2.134   4.087   9.239  0.1342  0.1406  0.0446
 4335TIP3    H137200   2.064   4.062   9.179  0.4610 -0.3145 -0.1566
 4335TIP3    H237201   2.211   4.094   9.183  0.4030 -0.1093  0.3808
 4336TIP3   OH237202   5.258   0.742   7.354  0.4233  0.9383 -0.3257
 4336TIP3    H137203   5.352   0.757   7.365  0.3851  1.6244 -0.8565
 4336TIP3    H237204   5.247   0.726   7.260  0.2115 -0.7162 -0.0429
 4337TIP3   OH237205   7.374   6.733   8.836  0.6711  0.2386 -0.7822
 4337TIP3    H137206   7.432   6.803   8.866  1.0864 -0.7234  0.8524
 4337TIP3    H237207   7.370   6.743   8.741  4.3823 -0.2045 -1.1581
 4338TIP3   OH237208   5.387   1.342   7.605 -0.1566 -0.2184  0.6316
 4338TIP3    H137209   5.330   1.291   7.662 -0.0904 -0.3213  0.6041
 4338TIP3    H237210   5.395   1.427   7.650 -0.3427 -0.1968  0.6274
 4339TIP3   OH237211   1.497   3.015   7.608 -0.5022 -1.1189  0.1813
 4339TIP3    H137212   1.592   3.006   7.619 -0.1827  1.7824  0.7367
 4339TIP3    H237213   1.474   2.952   7.540  2.0700 -0.9335 -0.9687
 4340TIP3   OH237214   2.481   0.937   8.390  0.0521 -0.0840  0.3037
 4340TIP3    H137215   2.407   0.997   8.390 -0.2225 -0.3869  1.5362
 4340TIP3    H237216   2.444   0.854   8.361  0.2071  0.0784 -0.3773
 4341TIP3   OH237217   6.391   2.352   7.646 -0.2203  0.2963  0.5108
 4341TIP3    H137218   6.392   2.368   7.740 -2.2848 -0.9785  0.8129
 4341TIP3    H237219   6.342   2.270   7.636  0.8583 -0.1643 -1.6133
 4342TIP3   OH237220   2.160   5.722   8.475  0.1852 -0.0621 -0.2962
 4342TIP3    H137221   2.090   5.696   8.415 -0.8986  0.6887  0.5924
 4342TIP3    H237222   2.166   5.817   8.466  1.7937 -0.2065 -1.0677
 4343TIP3   OH237223   0.312   7.473   9.207  0.5811  0.0987 -0.6354
 4343TIP3    H137224   0.396   7.487   9.250  0.1227 -0.7519  0.6183
 4343TIP3    H237225   0.262   7.554   9.224  0.7327  0.1353 -0.3657
 4344TIP3   OH237226   2.306   1.799   7.378 -0.7534 -0.6706 -0.1916
 4344TIP3    H137227   2.250   1.809   7.302 -1.6110 -0.8155  0.4134
 4344TIP3    H237228   2.275   1.864   7.440 -0.2981 -0.7997  0.1826
 4345TIP3   OH237229   3.788   3.163   7.383  0.1249 -0.0315  0.0776
 4345TIP3    H137230   3.723   3.232   7.368  0.4743  0.5196  1.0202
 4345TIP3    H237231   3.863   3.209   7.421  0.8547 -0.7511 -0.4553
 4346TIP3   OH237232   5.202   6.038   9.782 -0.0725 -0.4546  0.5386
 4346TIP3    H137233   5.147   6.037   9.703  0.3992 -0.5689  0.2027
 4346TIP3    H237234   5.232   5.947   9.790 -1.0345 -0.7017  1.5127
 4347TIP3   OH237235   7.417   6.681   7.575 -0.4811  0.2021  0.4271
 4347TIP3    H137236   7.502   6.650   7.606 -1.4682 -3.6237 -0.2125
 4347TIP3    H237237   7.434   6.712   7.486  0.2985 -0.4930  0.3176
 4348TIP3   OH237238   0.468   5.207   6.542 -0.5021  0.3368  0.4391
 4348TIP3    H137239   0.487   5.166   6.458 -0.5761 -1.0098  1.0507
 4348TIP3    H237240   0.387   5.256   6.528 -0.8852 -0.4362 -0.1054
 4349TIP3   OH237241   6.888   4.939   9.324 -0.2905  0.3662 -0.1059
 4349TIP3    H137242   6.905   4.880   9.251 -0.7621  2.0192 -1.6271
 4349TIP3    H237243   6.915   5.025   9.292  0.3495  1.0324  2.0147
 4350TIP3   OH237244   6.879   5.793   7.536  0.2839 -0.2081  0.1799
 4350TIP3    H137245   6.883   5.728   7.466  1.3158  0.0774 -0.0356
 4350TIP3    H237246   6.878   5.742   7.617 -0.7631 -0.5332 -0.0259
 4351TIP3   OH237247   2.064   4.710   8.177 -0.1205 -0.2563  0.4828
 4351TIP3    H137248   2.066   4.773   8.105  0.1967  0.6185  1.2394
 4351TIP3    H237249   2.011   4.637   8.144 -1.8360  1.0896  0.1503
 4352TIP3   OH237250   5.590   7.579   9.332 -0.7750  0.4659  0.3888
 4352TIP3    H137251   5.541   7.645   9.382 -1.6613  0.5695 -0.5925
 4352TIP3    H237252   5.523   7.522   9.296 -0.2769  1.1630 -1.7767
 4353TIP3   OH237253   2.508   5.804   7.899 -0.4022 -0.2957 -0.2903
 4353TIP3    H137254   2.510   5.733   7.834  0.2162  0.2051 -0.8292
 4353TIP3    H237255   2.551   5.767   7.976  1.6217  0.0540 -1.1830
 4354TIP3   OH237256   6.993   3.509   8.204 -0.7476  0.5384 -0.5097
 4354TIP3    H137257   6.932   3.514   8.278 -1.1352  1.2189 -0.8686
 4354TIP3    H237258   6.991   3.596   8.165 -0.0042  0.3853 -0.8986
 4355TIP3   OH237259   3.931   4.584   7.692  0.5595 -0.7253  0.0899
 4355TIP3    H137260   3.950   4.671   7.658 -0.0166 -0.2483  0.9409
 4355TIP3    H237261   3.914   4.531   7.614 -1.3350  0.4797 -0.4015
 4356TIP3   OH237262   2.110   0.687   9.229  0.5482 -0.3012 -0.5961
 4356TIP3    H137263   2.195   0.666   9.190  1.1653 -0.9028  0.9975
 4356TIP3    H237264   2.119   0.662   9.321 -0.8486  1.0738 -0.0400
 4357TIP3   OH237265   5.625   1.709   8.151 -0.1732 -1.1973  0.5469
 4357TIP3    H137266   5.645   1.799   8.177 -3.8208  0.9016 -2.8554
 4357TIP3    H237267   5.536   1.694   8.183 -0.8149 -2.3705 -1.5758
 4358TIP3   OH237268   1.565   2.315   7.754  0.3268 -0.3148  0.2636
 4358TIP3    H137269   1.474   2.291   7.773  0.7574 -2.4192 -0.1103
 4358TIP3    H237270   1.613   2.232   7.758  2.1366  0.6644 -0.1584
 4359TIP3   OH237271   2.548   2.552   8.977  0.1443  0.9589 -0.0515
 4359TIP3    H137272   2.545   2.504   9.060  1.2918 -0.1685 -0.6193
 4359TIP3    H237273   2.459   2.586   8.966 -0.0871  0.9674  1.5253
 4360TIP3   OH237274   4.949   5.662   8.993  0.2362  0.0819 -0.0755
 4360TIP3    H137275   4.961   5.567   8.988  0.6604  0.1887 -1.6086
 4360TIP3    H237276   4.955   5.692   8.902 -0.8361  1.4751  0.2710
 4361TIP3   OH237277   7.592   3.872   8.685 -0.4156 -0.0146  0.3912
 4361TIP3    H137278   7.685   3.870   8.660  0.0542  0.5737  1.9835
 4361TIP3    H237279   7.576   3.787   8.725 -0.8081 -0.4458 -0.6588
 4362TIP3   OH237280   5.337   1.628   8.060  0.3886  0.7294 -0.2856
 4362TIP3    H137281   5.242   1.621   8.069  0.4659  1.4886  1.8452
 4362TIP3    H237282   5.365   1.541   8.032 -0.7268 -0.3944  1.7884
 4363TIP3   OH237283   5.285   4.467   8.655 -0.0781  0.1389 -0.4451
 4363TIP3    H137284   5.284   4.497   8.564 -0.4857 -3.6861 -1.9006
 4363TIP3    H237285   5.195   4.479   8.685  0.0278  1.3102 -0.5473
 4364TIP3   OH237286   4.853   4.768   7.637  0.3170 -0.0662 -0.2617
 4364TIP3    H137287   4.859   4.695   7.575  0.9726  1.0693 -1.5895
 4364TIP3    H237288   4.833   4.844   7.583  0.2460  0.8601  1.0157
 4365TIP3   OH237289   6.242   4.171   8.292  0.3459 -0.6378  0.1021
 4365TIP3    H137290   6.298   4.249   8.299  0.0685  0.0694 -3.7435
 4365TIP3    H237291   6.302   4.098   8.309  1.1596  0.2515  1.3104
 4366TIP3   OH237292   0.792   7.185   7.032  0.0507 -0.4405 -0.3104
 4366TIP3    H137293   0.880   7.218   7.052  0.6334 -0.2912 -2.8201
 4366TIP3    H237294   0.805   7.126   6.958 -1.9378 -0.6096 -0.5647
 4367TIP3   OH237295   5.977   4.363   8.660 -0.1079 -0.4903 -0.1864
 4367TIP3    H137296   5.960   4.268   8.657 -1.8996 -0.3884  2.6468
 4367TIP3    H237297   6.035   4.374   8.736 -2.4593  0.8572  1.5598
 4368TIP3   OH237298   5.133   6.724   9.009 -0.7154 -0.7447 -0.1034
 4368TIP3    H137299   5.148   6.769   9.092 -2.1857 -0.4028 -0.0027
 4368TIP3    H237300   5.115   6.633   9.034 -3.1105 -0.2624  0.1717
 4369TIP3   OH237301   6.690   6.452   8.496  0.1829  0.2222  0.0842
 4369TIP3    H137302   6.613   6.485   8.543 -0.9857 -0.2297 -1.4000
 4369TIP3    H237303   6.653   6.402   8.423  1.8954 -1.8535  0.5468
 4370TIP3   OH237304   2.422   5.786   9.153  0.2057  0.8672  0.3697
 4370TIP3    H137305   2.500   5.731   9.162  1.6579  2.5050 -1.4123
 4370TIP3    H237306   2.353   5.736   9.196  2.3077 -0.4272  2.5227
 4371TIP3   OH237307   2.189   4.804   9.194  0.0688 -0.1125  0.6985
 4371TIP3    H137308   2.221   4.748   9.265 -2.0411 -1.5747  0.5691
 4371TIP3    H237309   2.208   4.755   9.114 -1.9276 -0.8050  0.5917
 4372TIP3   OH237310   6.556   6.490   6.646  0.0872 -0.2507 -0.1461
 4372TIP3    H137311   6.479   6.440   6.673 -0.1402  0.2404  0.1251
 4372TIP3    H237312   6.601   6.510   6.727  0.5120 -0.5443 -0.3066
 4373TIP3   OH237313   2.119   2.064   7.169 -0.2401  0.8406 -0.1420
 4373TIP3    H137314   2.164   2.094   7.090 -0.9372  0.0183 -0.8751
 4373TIP3    H237315   2.127   1.969   7.167  0.2291  0.8280  1.1002
 4374TIP3   OH237316   0.305   2.424   9.333 -0.7390  0.1089  0.2413
 4374TIP3    H137317   0.295   2.382   9.248  4.5321 -0.1848 -0.5840
 4374TIP3    H237318   0.293   2.517   9.316 -1.9012 -0.1284 -0.2902
 4375TIP3   OH237319   5.386   5.850   7.720 -0.5110  0.0690 -0.2027
 4375TIP3    H137320   5.334   5.781   7.680  1.7675 -1.9387  0.1300
 4375TIP3    H237321   5.362   5.929   7.671 -2.7173 -1.0151 -1.0180
 4376TIP3   OH237322   4.319   7.331   8.118  0.1224 -0.3392 -0.1464
 4376TIP3    H137323   4.394   7.297   8.167  0.3356 -0.6443 -0.6796
 4376TIP3    H237324   4.283   7.255   8.073 -1.1219 -0.3948  0.8808
 4377TIP3   OH237325   4.410   4.284   9.226  0.7064 -0.1191 -0.1147
 4377TIP3    H137326   4.422   4.201   9.273 -0.7088 -0.3842 -0.1922
 4377TIP3    H237327   4.468   4.277   9.150 -0.9734 -2.0014 -1.3322
 4378TIP3   OH237328   5.923   0.699   8.614  0.4806  0.0178  0.3879
 4378TIP3    H137329   5.837   0.699   8.656  0.0212 -0.9914 -0.4890
 4378TIP3    H237330   5.932   0.787   8.578  0.1150  0.3442  1.0613
 4379TIP3   OH237331   7.129   3.748   8.048 -0.0291  0.3043 -0.1819
 4379TIP3    H137332   7.086   3.789   8.124  0.1705  0.6826 -0.2704
 4379TIP3    H237333   7.204   3.805   8.029 -0.5234  0.6625 -1.1493
 4380TIP3   OH237334   0.614   3.801   6.666  0.2727 -0.4113  0.6454
 4380TIP3    H137335   0.607   3.866   6.596 -1.1411  0.0294  1.1763
 4380TIP3    H237336   0.708   3.785   6.674  0.5260  0.3019 -0.6405
 4381TIP3   OH237337   0.349   1.010   8.438  0.2106  0.2945 -0.3651
 4381TIP3    H137338   0.424   1.065   8.414 -0.1085  0.5699 -0.7276
 4381TIP3    H237339   0.375   0.922   8.412  0.6494  0.2921  0.0516
 4382TIP3   OH237340   2.460   3.509   9.139 -0.5453  0.0923  0.3092
 4382TIP3    H137341   2.385   3.505   9.079  1.3264 -1.4842 -2.1269
 4382TIP3    H237342   2.535   3.528   9.083  1.7065 -3.7867  1.6189
 4383TIP3   OH237343   6.271   1.008   7.079  0.4509 -0.1096 -0.0714
 4383TIP3    H137344   6.334   1.048   7.139  1.4226  0.0336 -1.1449
 4383TIP3    H237345   6.324   0.955   7.020 -0.7426 -2.4416  0.8304
 4384TIP3   OH237346   5.008   1.683   9.745  0.3331  0.2440  0.4427
 4384TIP3    H137347   4.961   1.619   9.692  0.2646 -0.7187  1.6287
 4384TIP3    H237348   4.960   1.687   9.827  0.2776  1.9206  0.3596
 4385TIP3   OH237349   6.941   4.727   9.734 -0.2293  0.0250  0.4743
 4385TIP3    H137350   7.001   4.802   9.736  2.0933 -1.7314  0.6464
 4385TIP3    H237351   6.864   4.757   9.783  0.5543  2.3076  0.4554
 4386TIP3   OH237352   6.176   2.680   6.838 -0.5421  0.4959 -0.4527
 4386TIP3    H137353   6.202   2.687   6.930 -0.0320  0.3482 -0.5786
 4386TIP3    H237354   6.098   2.734   6.830 -0.3466  0.8444 -0.0224
 4387TIP3   OH237355   4.658   1.615   8.356 -0.6125 -0.5310 -1.0478
 4387TIP3    H137356   4.698   1.701   8.349 -0.2545 -0.5707  0.2760
 4387TIP3    H237357   4.657   1.582   8.266  0.4660  0.3068 -1.3920
 4388TIP3   OH237358   3.709   0.335   9.258 -0.1043  0.4166  0.3036
 4388TIP3    H137359   3.614   0.323   9.260 -0.0211 -0.2614  2.2195
 4388TIP3    H237360   3.735   0.309   9.170 -1.5191 -0.9047  0.2492
 4389TIP3   OH237361   0.679   1.696   8.394  0.6445  0.1164 -0.0505
 4389TIP3    H137362   0.698   1.709   8.301  3.6545  0.8100  0.5499
 4389TIP3    H237363   0.713   1.775   8.436  0.3006 -0.6644  1.7681
 4390TIP3   OH237364   7.084   6.672   9.131  0.7226  0.4706  0.5019
 4390TIP3    H137365   7.024   6.608   9.171  0.1096  1.3708  1.0787
 4390TIP3    H237366   7.169   6.652   9.169  1.2676 -2.1286 -1.8402
 4391TIP3   OH237367   6.004   1.418   6.456  0.2226  0.1398 -0.0303
 4391TIP3    H137368   6.050   1.343   6.494 -0.1074 -0.4698 -0.7945
 4391TIP3    H237369   6.024   1.491   6.514 -1.2602 -1.0022  2.0084
 4392TIP3   OH237370   5.129   4.946   8.673  0.4011  0.1793 -0.1720
 4392TIP3    H137371   5.101   4.956   8.582  1.1723  1.5658 -0.2746
 4392TIP3    H237372   5.189   4.871   8.671 -1.6461 -1.5758 -0.2827
 4393TIP3   OH237373   4.119   0.437   7.996 -0.0377 -0.3644  0.0874
 4393TIP3    H137374   4.129   0.483   8.080 -0.5021  0.2685 -0.2017
 4393TIP3    H237375   4.171   0.488   7.934 -0.3992 -0.3332 -0.1938
 4394TIP3   OH237376   6.197   3.209   9.386 -0.1689  0.3377  0.3352
 4394TIP3    H137377   6.225   3.300   9.377  0.5430  0.0047 -1.0859
 4394TIP3    H237378   6.103   3.214   9.403  0.1601  1.3744  2.0757
 4395TIP3   OH237379   5.525   0.304   7.247 -0.5111  0.3226 -0.2031
 4395TIP3    H137380   5.536   0.316   7.341  1.2026  2.0115 -0.5604
 4395TIP3    H237381   5.459   0.369   7.222 -0.5113  0.2950 -0.2750
 4396TIP3   OH237382   5.763   0.068   6.964 -0.6698  0.3069 -0.4578
 4396TIP3    H137383   5.774   0.131   6.893 -0.2751  0.1077 -0.5753
 4396TIP3    H237384   5.730   0.120   7.037  0.5237  0.8340 -0.2708
 4397TIP3   OH237385   1.011   6.128   8.960  0.2276  0.0570  0.0161
 4397TIP3    H137386   1.030   6.036   8.982 -1.6138 -0.7232 -1.3824
 4397TIP3    H237387   1.020   6.174   9.044 -1.0865 -1.8265  1.2982
 4398TIP3   OH237388   1.366   5.041   7.379 -0.2230  0.2608  0.4335
 4398TIP3    H137389   1.306   4.992   7.434 -1.0686  1.9539  1.0997
 4398TIP3    H237390   1.452   5.023   7.415 -0.3436 -1.7459 -0.1719
 4399TIP3   OH237391   1.101   7.182   9.510  0.0464 -0.0007 -0.3345
 4399TIP3    H137392   1.065   7.255   9.561 -1.4475 -0.9437 -0.0119
 4399TIP3    H237393   1.067   7.196   9.422  0.4017  0.0996 -0.4608
 4400TIP3   OH237394   6.727   5.727   8.282  0.1982  0.1516 -0.4431
 4400TIP3    H137395   6.752   5.725   8.375  0.1401 -0.8717 -0.4309
 4400TIP3    H237396   6.688   5.813   8.269 -2.2526 -0.6279  1.1613
 4401TIP3   OH237397   2.519   7.132   9.481  0.7433 -0.0134  0.3079
 4401TIP3    H137398   2.457   7.195   9.517  1.5540  0.1911  1.3840
 4401TIP3    H237399   2.580   7.114   9.552  0.6574 -1.8769 -0.0344
 4402TIP3   OH237400   4.021   6.610   8.905  0.5798 -0.1589 -0.0224
 4402TIP3    H137401   3.997   6.692   8.948  1.1422  0.3432 -0.6399
 4402TIP3    H237402   3.991   6.541   8.965  1.4899  0.5201  1.2454
 4403TIP3   OH237403   1.537   5.284   7.803  0.0968  0.1765 -0.8130
 4403TIP3    H137404   1.458   5.248   7.844  1.0103 -1.1997 -0.2018
 4403TIP3    H237405   1.589   5.317   7.876  1.8325 -2.4821 -0.7298
 4404TIP3   OH237406   5.941   0.779   7.707  0.1724 -0.0660  0.0777
 4404TIP3    H137407   5.974   0.862   7.673 -0.3097 -1.0696 -3.1739
 4404TIP3    H237408   5.846   0.788   7.704  0.1071 -0.8293 -0.7051
 4405TIP3   OH237409   7.279   3.325   9.026 -0.5087  0.2758 -0.0902
 4405TIP3    H137410   7.262   3.249   9.082 -1.1286  0.2704 -0.2737
 4405TIP3    H237411   7.200   3.378   9.035  0.3106  1.3992  0.8150
 4406TIP3   OH237412   0.013   3.456   9.160  0.7708  0.1947  0.0016
 4406TIP3    H137413  -0.020   3.369   9.182 -1.3034  0.8799 -0.1179
 4406TIP3    H237414   0.096   3.440   9.115 -0.8342 -1.9171 -2.5259
 4407TIP3   OH237415   3.336   7.346   7.381  0.0497 -0.2755  0.3851
 4407TIP3    H137416   3.303   7.320   7.467 -1.1686  1.0550  0.3675
 4407TIP3    H237417   3.278   7.302   7.319 -2.2899  2.5163  0.3581
 4408TIP3   OH237418   2.220   6.560   9.509 -0.2712  0.2616 -0.1302
 4408TIP3    H137419   2.261   6.481   9.544 -0.7220 -0.1453 -0.5005
 4408TIP3    H237420   2.263   6.576   9.426 -0.3949  0.2244 -0.2024
 4409TIP3   OH237421   7.102   6.617   8.464  0.3051  0.3982 -0.4124
 4409TIP3    H137422   7.018   6.617   8.419  1.4387 -0.8016 -2.7194
 4409TIP3    H237423   7.104   6.533   8.511  0.8325 -0.3583 -1.7302
 4410TIP3   OH237424   6.856   3.980   7.837  0.2796 -0.7479  0.1398
 4410TIP3    H137425   6.761   3.969   7.833  0.4632 -2.6136  0.2914
 4410TIP3    H237426   6.868   4.073   7.858 -1.4915 -0.4314 -0.0865
 4411TIP3   OH237427   6.988   2.473   8.968  0.0267  0.2454 -0.8470
 4411TIP3    H137428   6.899   2.508   8.962 -0.5027 -0.6331  1.3155
 4411TIP3    H237429   6.978   2.384   9.001  1.7671  0.4922  0.4970
 4412TIP3   OH237430   3.588   1.462   7.640  0.0446  0.1526 -0.5209
 4412TIP3    H137431   3.571   1.527   7.708  2.9024 -1.0678  1.5594
 4412TIP3    H237432   3.535   1.387   7.665  0.2324  0.1060 -0.2512
 4413TIP3   OH237433   2.676   4.765   8.474  0.1368  0.3615 -0.0003
 4413TIP3    H137434   2.612   4.726   8.414  0.8784 -0.0746 -0.5109
 4413TIP3    H237435   2.761   4.742   8.438  0.5930  1.1671  0.5293
 4414TIP3   OH237436   5.643   2.062   8.576 -0.0971  0.2450 -0.3214
 4414TIP3    H137437   5.629   2.154   8.556 -1.2081  0.6999  2.1866
 4414TIP3    H237438   5.738   2.050   8.568  0.2562  2.0002  0.6589
 4415TIP3   OH237439   0.748   7.008   8.623  0.4929  0.2644  0.0658
 4415TIP3    H137440   0.699   6.947   8.568  0.3837  0.4224 -0.0135
 4415TIP3    H237441   0.683   7.070   8.655  0.7229  0.8080 -0.4890
 4416TIP3   OH237442   0.357   5.895   8.213 -0.9525  0.0357  0.4358
 4416TIP3    H137443   0.396   5.813   8.184 -0.4639  0.2725  0.4101
 4416TIP3    H237444   0.395   5.910   8.300 -1.2208  0.1131  0.5410
 4417TIP3   OH237445   5.070   4.911   8.109  0.0766 -0.1292  0.3884
 4417TIP3    H137446   4.988   4.954   8.086 -0.1899 -1.3540 -1.2029
 4417TIP3    H237447   5.135   4.952   8.051  0.0718 -0.9288 -0.1939
 4418TIP3   OH237448   3.253   5.465   9.324  0.0233 -0.6279 -0.1873
 4418TIP3    H137449   3.246   5.444   9.231  1.5126 -0.8837 -0.2623
 4418TIP3    H237450   3.343   5.443   9.347 -0.0480  0.3135  1.1009
 4419TIP3   OH237451   3.028   4.708   7.692 -0.2312 -0.4023 -0.4335
 4419TIP3    H137452   2.945   4.737   7.653 -0.3624 -0.4771 -0.2130
 4419TIP3    H237453   3.078   4.788   7.704 -0.2032 -0.3752 -0.7255
 4420TIP3   OH237454   3.615   6.312   8.332  0.2834  0.1474 -0.6338
 4420TIP3    H137455   3.533   6.268   8.309  1.9263 -2.8105 -1.3606
 4420TIP3    H237456   3.652   6.339   8.249  0.8851 -0.2174 -0.4910
 4421TIP3   OH237457   1.731   2.338   9.124  0.1592 -0.0849 -0.2339
 4421TIP3    H137458   1.704   2.276   9.192  1.6446 -0.0973  0.3800
 4421TIP3    H237459   1.663   2.331   9.058 -0.2740 -1.5904  0.3103
 4422TIP3   OH237460   4.047   2.991   7.554  0.6151  0.7266  0.3504
 4422TIP3    H137461   4.081   2.903   7.535 -0.1483  0.2841  0.9989
 4422TIP3    H237462   3.981   2.977   7.622 -0.2991  1.6777 -0.3248
 4423TIP3   OH237463   7.347   1.473   7.740 -0.5177  0.5480 -0.4370
 4423TIP3    H137464   7.372   1.396   7.791 -0.1480  0.8596 -0.1389
 4423TIP3    H237465   7.427   1.500   7.696 -0.4897  1.1463 -0.0239
 4424TIP3   OH237466   2.459   0.458   8.374 -0.0021 -0.0210  0.0495
 4424TIP3    H137467   2.493   0.445   8.463 -0.9420  0.3639  0.4793
 4424TIP3    H237468   2.421   0.546   8.375 -2.8727 -1.1395  0.2446
 4425TIP3   OH237469   0.646   5.788   9.384 -0.4418 -0.5486  0.0071
 4425TIP3    H137470   0.630   5.716   9.445  1.2528  1.7653  3.5648
 4425TIP3    H237471   0.721   5.759   9.332  1.7464 -0.7050  2.9668
 4426TIP3   OH237472   5.930   3.936   7.503 -0.0272 -0.0028 -0.7136
 4426TIP3    H137473   5.885   3.891   7.574 -0.3883  0.1553 -0.8411
 4426TIP3    H237474   6.010   3.969   7.542 -0.3648  0.3393 -0.3079
 4427TIP3   OH237475   7.098   1.197   8.353 -0.1242  0.4870 -0.1839
 4427TIP3    H137476   7.021   1.154   8.314 -0.8959  1.7840 -0.1606
 4427TIP3    H237477   7.162   1.200   8.282 -0.7784  1.0403 -0.7591
 4428TIP3   OH237478   7.343   7.021   8.718  0.0751 -0.6316 -0.0167
 4428TIP3    H137479   7.311   6.941   8.675 -0.4999  0.0805 -0.9424
 4428TIP3    H237480   7.434   7.002   8.739  0.6690 -0.6796 -2.4315
 4429TIP3   OH237481   5.005   1.153   8.572 -0.3333  0.3434 -0.5030
 4429TIP3    H137482   5.095   1.127   8.588 -0.0687  1.5341  0.0852
 4429TIP3    H237483   4.972   1.090   8.508  1.0096  0.0629 -0.9432
 4430TIP3   OH237484   1.517   6.866   7.453 -0.2741 -0.6524 -0.2413
 4430TIP3    H137485   1.553   6.867   7.364  0.9253 -1.8219  0.1874
 4430TIP3    H237486   1.435   6.915   7.447 -0.3539 -0.9454 -2.0478
 4431TIP3   OH237487   3.240   0.852   9.085  0.6448  0.3158 -0.0680
 4431TIP3    H137488   3.147   0.868   9.098  0.8545  1.8875 -0.3175
 4431TIP3    H237489   3.247   0.827   8.993  0.5547  0.9932 -0.2633
 4432TIP3   OH237490   3.057   0.708   8.630  0.3433  0.1233  0.1907
 4432TIP3    H137491   3.066   0.658   8.548  1.2031 -2.4163  1.7323
 4432TIP3    H237492   2.969   0.687   8.661 -0.8620  2.8105 -1.0181
 4433TIP3   OH237493   7.288   0.611   8.137 -0.4732 -0.4847  0.2285
 4433TIP3    H137494   7.366   0.664   8.152  0.0309 -1.0411 -0.3574
 4433TIP3    H237495   7.278   0.610   8.042  0.7362 -3.0856  0.0290
 4434TIP3   OH237496   6.120   1.041   9.025  0.0668 -0.4549 -0.0365
 4434TIP3    H137497   6.036   1.068   8.988  0.8196  1.6941 -0.3245
 4434TIP3    H237498   6.174   1.018   8.949  0.4559  0.4343 -0.0431
 4435TIP3   OH237499   3.690   5.444   7.730  0.7102 -0.7178  0.2814
 4435TIP3    H137500   3.633   5.492   7.790 -0.2171 -2.4630  0.8688
 4435TIP3    H237501   3.728   5.375   7.784  3.1258  0.1623 -0.2028
 4436TIP3   OH237502   0.721   2.522   7.927  0.0368  0.4164  0.1915
 4436TIP3    H137503   0.773   2.509   8.006  0.7335  0.6509 -0.2240
 4436TIP3    H237504   0.634   2.488   7.950 -0.1715  1.7005  1.5200
 4437TIP3   OH237505   0.666   0.585   7.629  0.7676  0.3333 -0.0741
 4437TIP3    H137506   0.610   0.512   7.605  0.5613  0.1392  0.9851
 4437TIP3    H237507   0.610   0.662   7.622  1.1864  0.5300 -1.9614
 4438TIP3   OH237508   5.466   1.863   8.640 -0.5362  0.0201  0.1182
 4438TIP3    H137509   5.504   1.947   8.613 -1.9022  0.5104 -0.3185
 4438TIP3    H237510   5.400   1.887   8.706  0.0120 -0.8421  1.0144
 4439TIP3   OH237511   2.538   6.372   8.320 -0.2221 -0.3453 -0.2892
 4439TIP3    H137512   2.476   6.443   8.337 -0.7617 -0.3584 -1.9460
 4439TIP3    H237513   2.624   6.413   8.323 -0.3546 -0.1455  1.1982
 4440TIP3   OH237514   2.747   4.232   9.045 -0.1999  0.4233  0.0662
 4440TIP3    H137515   2.730   4.303   8.983  3.1046  1.2361 -0.1115
 4440TIP3    H237516   2.823   4.186   9.009  0.2954 -0.6322  2.2689
 4441TIP3   OH237517   7.268   5.698   6.705  0.1045 -0.5418 -0.0694
 4441TIP3    H137518   7.332   5.665   6.642  1.7807  0.8697  0.8087
 4441TIP3    H237519   7.183   5.673   6.668  1.0465 -0.5783 -2.4023
 4442TIP3   OH237520   1.304   1.862   8.639 -0.0039 -0.6992 -0.0686
 4442TIP3    H137521   1.383   1.810   8.651  0.9357  0.9738  1.5205
 4442TIP3    H237522   1.235   1.798   8.619  0.9790 -2.6299  2.2338
 4443TIP3   OH237523   1.724   4.630   7.067 -0.3211  0.0856 -0.4257
 4443TIP3    H137524   1.720   4.717   7.105  2.3780  0.4650 -0.7738
 4443TIP3    H237525   1.797   4.634   7.005  1.2473 -2.8812  0.9780
 4444TIP3   OH237526   6.213   2.840   7.607  0.1509  0.3144 -0.4032
 4444TIP3    H137527   6.271   2.796   7.545  0.5263 -0.8637  0.7342
 4444TIP3    H237528   6.211   2.782   7.684  0.6255  2.2346  1.1541
 4445TIP3   OH237529   1.798   7.141   8.763 -0.1195  0.6319 -0.1047
 4445TIP3    H137530   1.811   7.201   8.836 -0.5078  2.0637 -1.1607
 4445TIP3    H237531   1.708   7.155   8.735 -0.0772 -0.1198 -0.6563
 4446TIP3   OH237532   7.620   1.200   9.337 -0.2123  0.2426  0.2330
 4446TIP3    H137533   7.690   1.263   9.322 -1.4768  1.2876 -1.6748
 4446TIP3    H237534   7.551   1.250   9.382 -1.2722  0.2978 -1.3922
 4447TIP3   OH237535   4.145   0.104   8.127 -0.1948 -0.6921  1.0204
 4447TIP3    H137536   4.198   0.165   8.179  0.6432  0.7944 -1.4002
 4447TIP3    H237537   4.204   0.030   8.109  0.7511  0.4090 -0.6615
 4448TIP3   OH237538   4.872   2.262   8.908  0.2139 -0.2012  0.3450
 4448TIP3    H137539   4.909   2.271   8.821  2.5995  0.2880  1.3447
 4448TIP3    H237540   4.932   2.203   8.954 -0.7137 -0.0592  1.8169
 4449TIP3   OH237541   1.503   0.121   8.176 -0.0546 -0.3372  0.0382
 4449TIP3    H137542   1.479   0.204   8.218  1.6454  0.3113 -0.1766
 4449TIP3    H237543   1.519   0.061   8.248  1.6388  0.4164  0.3324
 4450TIP3   OH237544   2.423   5.257   8.154 -0.4308  0.0425 -0.0100
 4450TIP3    H137545   2.343   5.224   8.114  0.6728 -1.8139 -0.8235
 4450TIP3    H237546   2.451   5.187   8.212  2.0122 -0.5874 -1.7930
 4451TIP3   OH237547   1.512   3.661   8.267  0.7345  0.4215 -0.0072
 4451TIP3    H137548   1.439   3.634   8.212  0.8055  0.9717 -0.3781
 4451TIP3    H237549   1.569   3.584   8.272 -0.7318 -0.6294  1.7700
 4452TIP3   OH237550   2.332   4.432   8.689  0.7964 -0.5788  0.0026
 4452TIP3    H137551   2.399   4.427   8.621  0.2237  0.0621 -0.6225
 4452TIP3    H237552   2.340   4.349   8.736  1.7632 -0.6740 -0.3071
 4453TIP3   OH237553   0.116   0.557   9.184  0.0382 -0.3563 -0.1782
 4453TIP3    H137554   0.032   0.586   9.219  0.4015 -0.0061  0.4132
 4453TIP3    H237555   0.182   0.606   9.234  0.5928 -0.5108 -0.7342
 4454TIP3   OH237556   7.411   1.348   9.480 -0.5431 -0.2311  0.0788
 4454TIP3    H137557   7.394   1.327   9.572  1.0250 -1.1263  0.1845
 4454TIP3    H237558   7.330   1.390   9.450 -0.8752  0.6237  2.0178
 4455TIP3   OH237559   3.600   5.405   8.619 -0.6038 -0.4269  0.0918
 4455TIP3    H137560   3.601   5.501   8.628 -1.9629 -0.1435 -2.0694
 4455TIP3    H237561   3.688   5.382   8.590  0.7339 -0.2820  3.5599
 4456TIP3   OH237562   4.683   0.562   8.594 -0.1632 -0.3304 -0.0211
 4456TIP3    H137563   4.692   0.651   8.627  1.8001 -0.6641  0.4822
 4456TIP3    H237564   4.618   0.521   8.651  0.3798  0.2138  1.0070
 4457TIP3   OH237565   5.351   4.790   8.695 -0.3024  0.1913 -0.0097
 4457TIP3    H137566   5.434   4.806   8.741  0.3126 -0.5874 -0.8147
 4457TIP3    H237567   5.376   4.739   8.618 -1.4887  0.3038 -0.4856
 4458TIP3   OH237568   5.634   0.524   8.716 -0.1581  0.1120  0.2451
 4458TIP3    H137569   5.631   0.484   8.629  0.1267 -0.7391  0.6173
 4458TIP3    H237570   5.645   0.450   8.776  0.1006  0.7316  0.9729
 4459TIP3   OH237571   2.030   5.386   6.903  0.1423  0.0018 -0.2337
 4459TIP3    H137572   1.998   5.362   6.990  0.0770 -0.7335 -0.4572
 4459TIP3    H237573   2.114   5.429   6.920  0.7382 -1.2456  0.1335
 4460TIP3   OH237574   7.118   7.444   8.825 -0.0794 -0.2700 -0.1887
 4460TIP3    H137575   7.098   7.445   8.731  0.2179  1.5605 -0.2719
 4460TIP3    H237576   7.214   7.442   8.829 -0.0988 -0.8885  0.0978
 4461TIP3   OH237577   0.342   6.149   7.874  0.2304  0.3355 -0.0882
 4461TIP3    H137578   0.354   6.181   7.785  0.0214 -2.6695 -1.3363
 4461TIP3    H237579   0.270   6.087   7.868  0.7038 -0.5337  2.0130
 4462TIP3   OH237580   6.100   6.310   8.199 -0.1011 -0.5278 -0.2620
 4462TIP3    H137581   6.142   6.289   8.116  0.9558 -0.5214  0.2551
 4462TIP3    H237582   6.123   6.237   8.257 -0.7924 -0.5124  0.0463
 4463TIP3   OH237583   1.804   0.284   8.106  0.2633 -0.6987 -0.6655
 4463TIP3    H137584   1.794   0.216   8.039 -1.9075 -0.6095 -0.4973
 4463TIP3    H237585   1.874   0.251   8.163 -1.2855 -3.2629 -0.0795
 4464TIP3   OH237586   1.520   0.854   8.442 -0.2599  0.2594  0.5975
 4464TIP3    H137587   1.606   0.864   8.402 -0.6464 -0.1655 -0.3696
 4464TIP3    H237588   1.533   0.788   8.511 -0.2025 -1.3307 -0.8647
 4465TIP3   OH237589   6.136   2.430   6.416  0.3892 -0.3962 -0.2490
 4465TIP3    H137590   6.102   2.401   6.331 -1.1488 -0.1539  0.2677
 4465TIP3    H237591   6.079   2.389   6.481 -0.0609  1.4517  0.5922
 4466TIP3   OH237592   7.636   6.116   9.718  0.4156  0.2828 -0.0044
 4466TIP3    H137593   7.598   6.199   9.687  1.1086  1.4354  2.0427
 4466TIP3    H237594   7.563   6.071   9.760 -0.0320 -0.3259 -1.3742
 4467TIP3   OH237595   1.468   6.317   8.032  0.0564  0.2193 -0.4637
 4467TIP3    H137596   1.508   6.231   8.016  0.6184  0.6381 -1.4360
 4467TIP3    H237597   1.538   6.380   8.013  0.2301  0.8822  2.0150
 4468TIP3   OH237598   0.586   6.845   8.094 -0.2699 -0.0578  0.2061
 4468TIP3    H137599   0.529   6.769   8.100  0.1004 -0.2880  0.9291
 4468TIP3    H237600   0.526   6.920   8.096 -0.5383 -0.2849  1.3104
 4469TIP3   OH237601   7.605   0.098   8.247 -0.2123 -0.0259 -0.4702
 4469TIP3    H137602   7.632   0.101   8.339 -1.4207  0.1800 -0.1093
 4469TIP3    H237603   7.652   0.023   8.211 -0.2858 -0.5631  0.5137
 4470TIP3   OH237604   3.870   5.478   7.418 -0.1023 -0.3929 -0.2118
 4470TIP3    H137605   3.830   5.494   7.333 -0.6982  0.4250  0.2050
 4470TIP3    H237606   3.943   5.419   7.400  0.0560  0.1265 -1.3480
 4471TIP3   OH237607   4.383   5.810   9.550 -0.0865  0.0754  1.1537
 4471TIP3    H137608   4.352   5.720   9.537  0.4189  0.0193  0.2769
 4471TIP3    H237609   4.461   5.802   9.604  1.1046 -0.2145 -0.5301
 4472TIP3   OH237610   0.944   4.933   8.957 -0.0866 -0.7612 -0.3026
 4472TIP3    H137611   0.864   4.921   8.906  0.0820  2.4411 -1.5153
 4472TIP3    H237612   1.010   4.880   8.911 -0.6275 -0.3019 -1.6476
 4473TIP3   OH237613   3.261   4.924   7.469 -0.2289 -0.0330 -0.4839
 4473TIP3    H137614   3.216   4.936   7.553 -0.4605  0.1755 -0.6371
 4473TIP3    H237615   3.342   4.877   7.492 -1.6387 -2.6312 -0.4917
 4474TIP3   OH237616   5.755   6.631   7.388  0.1610 -0.4198  0.0743
 4474TIP3    H137617   5.740   6.625   7.294  0.8336  0.7414 -0.1318
 4474TIP3    H237618   5.699   6.704   7.417  0.8552  0.0201  0.3428
 4475TIP3   OH237619   5.208   5.064   7.929 -0.3076  0.0638  0.5189
 4475TIP3    H137620   5.154   5.143   7.920  1.4234  1.2421 -0.1039
 4475TIP3    H237621   5.232   5.041   7.839  0.4121 -0.2739  0.7902
 4476TIP3   OH237622   1.358   2.919   9.336 -0.8799 -0.1849  0.7865
 4476TIP3    H137623   1.432   2.860   9.339 -0.7065 -0.2162 -1.7184
 4476TIP3    H237624   1.394   3.002   9.304 -1.2521  1.1296  3.4756
 4477TIP3   OH237625   0.133   3.158   6.945  0.2817 -0.3783 -0.3154
 4477TIP3    H137626   0.209   3.107   6.974 -0.7404 -1.4228  0.6611
 4477TIP3    H237627   0.089   3.101   6.882  0.3029  0.2256 -0.8874
 4478TIP3   OH237628   7.136   7.320   6.741  0.5902  0.1159 -0.6676
 4478TIP3    H137629   7.129   7.408   6.776 -0.1144 -1.2384  3.0233
 4478TIP3    H237630   7.047   7.298   6.714  0.1536 -0.3304  0.9952
 4479TIP3   OH237631   0.732   0.938   8.337  0.5024 -0.4163 -0.3586
 4479TIP3    H137632   0.794   0.941   8.264 -2.2606 -1.1028 -2.9131
 4479TIP3    H237633   0.665   1.001   8.315 -1.1658 -1.6650  0.8724
 4480TIP3   OH237634   6.326   4.589   9.424 -0.0863 -0.1880  0.3036
 4480TIP3    H137635   6.319   4.564   9.332 -0.0865  0.9675 -0.0243
 4480TIP3    H237636   6.418   4.611   9.436  0.3701 -2.3236  1.1393
 4481TIP3   OH237637   0.946   0.648   8.958 -0.5949 -0.3535  0.1890
 4481TIP3    H137638   0.885   0.708   8.915 -0.1061  0.0167  0.0032
 4481TIP3    H237639   1.023   0.702   8.977  0.2021 -1.1382 -0.7648
 4482TIP3   OH237640   6.751   1.991   7.329  0.1198  0.5241 -0.3546
 4482TIP3    H137641   6.695   2.064   7.353  0.2473 -0.6387  4.4993
 4482TIP3    H237642   6.691   1.916   7.323  0.5848  0.1116  0.1004
 4483TIP3   OH237643   0.971   7.069   8.422  0.0739  0.0960 -0.3474
 4483TIP3    H137644   0.887   7.035   8.452 -0.7897  0.5179 -2.1470
 4483TIP3    H237645   0.984   7.027   8.336 -0.0826  2.6909 -1.7443
 4484TIP3   OH237646   1.060   3.889   7.682  0.5547  0.1105 -0.0905
 4484TIP3    H137647   1.031   3.960   7.738  0.0238  0.1593 -0.4215
 4484TIP3    H237648   1.128   3.928   7.627  0.1443  0.4087 -0.3893
 4485TIP3   OH237649   5.192   4.481   6.621 -0.1797  0.6678 -0.4459
 4485TIP3    H137650   5.199   4.395   6.578  1.2560  1.2576 -1.4568
 4485TIP3    H237651   5.186   4.543   6.549  2.7362  1.7308  0.1001
 4486TIP3   OH237652   0.553   4.689   7.478  0.1572  0.2984 -0.4553
 4486TIP3    H137653   0.605   4.671   7.555 -2.9593 -1.6786  1.3936
 4486TIP3    H237654   0.530   4.782   7.486  2.3380  0.8985 -0.7227
 4487TIP3   OH237655   0.061   6.404   7.193  0.2910 -0.6378  0.3419
 4487TIP3    H137656   0.103   6.488   7.175 -0.5467 -0.1281  0.6942
 4487TIP3    H237657   0.104   6.372   7.272  2.2073 -1.6675 -1.0405
 4488TIP3   OH237658   4.564   5.586   9.923 -0.3428 -0.1411  0.4120
 4488TIP3    H137659   4.571   5.562  10.015 -0.7174  1.3042  0.8408
 4488TIP3    H237660   4.653   5.606   9.896 -0.4247  1.0126  0.9350
 4489TIP3   OH237661   1.069   3.105   7.564 -0.2988 -0.5267  0.6013
 4489TIP3    H137662   1.062   3.189   7.518 -0.0875 -0.2412  1.0858
 4489TIP3    H237663   1.133   3.121   7.633 -0.7545 -0.8999  1.1135
 4490TIP3   OH237664   5.569   5.836   6.907  0.2403  0.7485 -0.0848
 4490TIP3    H137665   5.527   5.777   6.969 -0.0857  1.7120  0.6408
 4490TIP3    H237666   5.659   5.843   6.939  1.1148 -1.5632 -1.8197
 4491TIP3   OH237667   3.007   2.526   8.749  0.0631  0.7018  0.8744
 4491TIP3    H137668   3.041   2.444   8.783  0.9172  1.3415  1.6252
 4491TIP3    H237669   2.917   2.530   8.781 -0.1125 -0.1108  0.5009
 4492TIP3   OH237670   2.600   3.306   7.682  0.7493  0.0288 -0.1036
 4492TIP3    H137671   2.655   3.319   7.604 -0.5377  0.8470 -0.9072
 4492TIP3    H237672   2.603   3.389   7.728  2.0404 -0.6577  1.1213
 4493TIP3   OH237673   2.763   6.374   6.617  0.2493 -0.8943 -0.8257
 4493TIP3    H137674   2.788   6.314   6.686 -0.4896 -0.0058  0.2525
 4493TIP3    H237675   2.751   6.458   6.661  0.1563 -0.2117 -2.0981
 4494TIP3   OH237676   0.870   7.354   7.884 -0.2170  0.0169 -0.7144
 4494TIP3    H137677   0.892   7.262   7.876 -1.3599 -0.2257 -1.3977
 4494TIP3    H237678   0.954   7.400   7.886  0.3520 -0.9562 -1.5361
 4495TIP3   OH237679   0.891   5.447   9.042  0.1176 -0.0577 -0.5316
 4495TIP3    H137680   0.906   5.353   9.051 -0.5423 -0.3887 -2.4601
 4495TIP3    H237681   0.954   5.474   8.976  1.1026  1.1263  0.8265
 4496TIP3   OH237682   4.868   2.446   8.408  0.2076 -0.3494  0.1438
 4496TIP3    H137683   4.881   2.367   8.357  0.7062  0.6434 -1.3268
 4496TIP3    H237684   4.779   2.474   8.389  0.6381  0.4292 -0.8198
 4497TIP3   OH237685   2.159   7.303   7.882 -0.0022 -0.1112  0.4109
 4497TIP3    H137686   2.246   7.262   7.875  0.0513 -0.0304  0.6041
 4497TIP3    H237687   2.142   7.307   7.976  0.1223  0.5852  0.4076
 4498TIP3   OH237688   6.160   3.308   8.848 -0.1393  0.5235  0.1316
 4498TIP3    H137689   6.111   3.352   8.778 -1.3410  0.4993  0.9273
 4498TIP3    H237690   6.125   3.219   8.849 -0.3217  0.6003  0.9333
 4499TIP3   OH237691   6.100   6.417   7.695  0.0692  0.4238  0.4140
 4499TIP3    H137692   6.039   6.365   7.747 -0.0042 -0.9372 -0.9536
 4499TIP3    H237693   6.163   6.354   7.660 -1.7319  0.5847 -3.7540
 4500TIP3   OH237694   7.374   6.603   6.923 -0.0030  0.1372  0.4753
 4500TIP3    H137695   7.464   6.572   6.926  0.2794  0.9488  0.9161
 4500TIP3    H237696   7.382   6.698   6.913 -0.8186  0.0329 -1.8418
 4501TIP3   OH237697   3.162   4.950   7.123  0.1240 -0.4562 -0.0339
 4501TIP3    H137698   3.175   5.039   7.156 -2.8733  0.0023  0.1712
 4501TIP3    H237699   3.184   4.956   7.030 -0.8924  0.7525 -0.2173
 4502TIP3   OH237700   2.058   1.621   7.471 -0.2750 -0.2274  0.1193
 4502TIP3    H137701   1.971   1.652   7.499 -0.1192 -0.5931  1.0375
 4502TIP3    H237702   2.059   1.638   7.376 -0.2038  2.5841  0.5193
 4503TIP3   OH237703   1.323   1.587   7.993 -0.2021 -1.0718  0.2838
 4503TIP3    H137704   1.376   1.661   7.965 -1.1994 -1.3030 -2.5749
 4503TIP3    H237705   1.268   1.622   8.063  1.1157  0.1440  0.7608
 4504TIP3   OH237706   0.215   2.844   7.575 -0.3245  0.1554  0.1987
 4504TIP3    H137707   0.190   2.818   7.486  0.5838 -0.7949  0.1987
 4504TIP3    H237708   0.309   2.860   7.570 -0.2781  0.1582  0.9709
 4505TIP3   OH237709   5.620   6.082   9.283  0.0710 -0.4159  0.7829
 4505TIP3    H137710   5.567   6.044   9.353  0.8810 -1.2585  0.9643
 4505TIP3    H237711   5.618   6.176   9.300  1.3069 -0.6806  2.7416
 4506TIP3   OH237712   0.102   1.498   9.602 -0.5005  0.1445 -0.3716
 4506TIP3    H137713   0.053   1.419   9.582  0.0200 -0.0101 -1.0784
 4506TIP3    H237714   0.065   1.565   9.545  0.9098 -0.2708 -1.8618
 4507TIP3   OH237715   4.696   2.241   7.838 -0.2453 -0.0282 -0.2627
 4507TIP3    H137716   4.716   2.327   7.803  0.8195 -0.4932 -0.8480
 4507TIP3    H237717   4.601   2.233   7.829 -0.4316  1.2714  0.2929
 4508TIP3   OH237718   3.590   3.436   6.785 -0.1682 -0.7950 -0.1790
 4508TIP3    H137719   3.683   3.445   6.766  0.2960 -0.8172  1.7882
 4508TIP3    H237720   3.582   3.349   6.825 -0.6445 -0.0248  1.4899
 4509TIP3   OH237721   0.190   6.982   8.931  0.3637 -0.4489 -0.5904
 4509TIP3    H137722   0.226   6.925   8.999  0.9189  1.2625  0.6006
 4509TIP3    H237723   0.254   6.977   8.860  1.9498  0.9045  0.6650
 4510TIP3   OH237724   6.060   5.513   9.265 -0.2013 -0.0336  0.3329
 4510TIP3    H137725   6.148   5.550   9.276 -0.9923  2.3768 -0.6249
 4510TIP3    H237726   6.011   5.544   9.341 -0.3719 -0.8631  0.5634
 4511TIP3   OH237727   3.937   6.578   7.732  0.4146 -0.4461  0.0278
 4511TIP3    H137728   3.865   6.521   7.704  0.5893  0.2046 -1.9227
 4511TIP3    H237729   3.992   6.586   7.654  0.9074  1.5943  0.5348
 4512TIP3   OH237730   5.308   1.697   8.967 -0.2145  0.2218 -0.2683
 4512TIP3    H137731   5.314   1.784   8.928  0.0219 -0.6668 -2.3465
 4512TIP3    H237732   5.226   1.698   9.016 -1.0024  1.1482 -1.5396
 4513TIP3   OH237733   2.012   2.353   9.145 -0.4424 -0.0273 -0.1679
 4513TIP3    H137734   1.922   2.342   9.176 -0.2645 -1.2369 -0.0057
 4513TIP3    H237735   2.003   2.375   9.052 -0.9200  0.5810  0.0228
 4514TIP3   OH237736   3.827   3.126   8.477  0.1875 -0.1695  0.1126
 4514TIP3    H137737   3.760   3.065   8.511  0.4384 -1.7756 -2.0749
 4514TIP3    H237738   3.910   3.085   8.501  0.4615  1.3430  1.9837
 4515TIP3   OH237739   2.210   4.330   7.601  0.0744 -0.1460  0.2331
 4515TIP3    H137740   2.125   4.371   7.585 -1.3885 -1.9649  2.5373
 4515TIP3    H237741   2.207   4.248   7.552  1.6522  0.9167 -1.7712
 4516TIP3   OH237742   5.024   3.549   6.889 -0.0687 -0.2013 -0.2895
 4516TIP3    H137743   4.948   3.564   6.946  1.1177  1.4319  0.9442
 4516TIP3    H237744   5.082   3.493   6.939 -0.3674 -1.3827 -1.2039
 4517TIP3   OH237745   6.385   0.002   8.629 -0.3169 -0.3024 -0.4200
 4517TIP3    H137746   6.289   0.005   8.621 -0.5930 -2.7441  0.9281
 4517TIP3    H237747   6.402   0.017   8.722  0.4322 -1.7124 -0.2974
 4518TIP3   OH237748   3.058   0.101   9.105 -0.6541 -0.3846  0.2685
 4518TIP3    H137749   3.013   0.051   9.037  0.0223 -0.6957  0.0390
 4518TIP3    H237750   3.107   0.168   9.058 -0.4793 -0.3650  0.4758
 4519TIP3   OH237751   2.113   4.606   8.639  0.1263  0.5856  0.2305
 4519TIP3    H137752   2.187   4.546   8.649  0.5659  0.9614 -0.6297
 4519TIP3    H237753   2.144   4.671   8.576  0.0938  2.4176  2.0376
 4520TIP3   OH237754   1.805   4.060   7.568  0.1455  0.0671 -0.0497
 4520TIP3    H137755   1.839   4.066   7.657  1.5853  1.4249 -0.6313
 4520TIP3    H237756   1.761   4.144   7.554  0.7379  0.2503 -0.8969
 4521TIP3   OH237757   6.290   4.015   8.835  0.0132  0.6866 -0.0846
 4521TIP3    H137758   6.343   3.939   8.857  0.3113  0.8919 -0.0899
 4521TIP3    H237759   6.323   4.043   8.749 -3.0389 -1.8790 -2.3409
 4522TIP3   OH237760   6.043   6.071   7.473  0.2783 -0.0602  0.4152
 4522TIP3    H137761   5.994   6.151   7.457 -1.1345 -0.8984  0.4128
 4522TIP3    H237762   6.092   6.088   7.554 -0.1975  0.7042  0.5466
 4523TIP3   OH237763   2.159   7.660   8.241  0.0598  0.5950  0.4058
 4523TIP3    H137764   2.108   7.588   8.278 -1.1707  1.6684  0.8995
 4523TIP3    H237765   2.213   7.690   8.314 -0.9642  1.4800  0.8341
 4524TIP3   OH237766   7.457   1.513   8.995  0.2744 -0.6260  0.2466
 4524TIP3    H137767   7.477   1.441   9.055  1.9332 -0.3605  0.0605
 4524TIP3    H237768   7.389   1.477   8.936  0.3078 -1.6650  0.8138
 4525TIP3   OH237769   2.114   7.619   7.549 -0.2810  0.6333  0.1946
 4525TIP3    H137770   2.159   7.617   7.634 -1.6054  2.0223  0.9796
 4525TIP3    H237771   2.185   7.628   7.485  0.7477 -0.5321  1.1231
 4526TIP3   OH237772   0.180   0.974   7.887 -0.5548 -0.1643 -0.1868
 4526TIP3    H137773   0.188   0.879   7.896  0.8212 -0.0971 -0.5030
 4526TIP3    H237774   0.088   0.988   7.864 -0.7998 -1.4064 -0.0381
 4527TIP3   OH237775   1.762   7.445   8.839 -0.5453 -0.5295  0.0407
 4527TIP3    H137776   1.759   7.470   8.931  0.4722 -1.9051  0.4791
 4527TIP3    H237777   1.671   7.434   8.814 -0.8417  0.0402  0.8255
 4528TIP3   OH237778   4.660   7.450   8.354 -0.5274  0.8282 -1.1886
 4528TIP3    H137779   4.682   7.498   8.274  1.3259 -0.7012 -1.6954
 4528TIP3    H237780   4.587   7.393   8.329  0.1446  0.2448 -1.8905
 4529TIP3   OH237781   3.478   4.345   8.742  0.1139  0.3617 -0.0932
 4529TIP3    H137782   3.518   4.346   8.829 -0.7938  1.0559  0.3290
 4529TIP3    H237783   3.551   4.360   8.682  0.7493 -0.1323  0.5429
 4530TIP3   OH237784   6.820   1.046   8.907 -0.6099 -0.0050  0.1604
 4530TIP3    H137785   6.913   1.061   8.925 -0.0573 -1.3980 -1.3439
 4530TIP3    H237786   6.796   0.972   8.963 -0.7430  0.1811  0.3499
 4531TIP3   OH237787   1.103   0.159   9.603 -0.2939  0.1629 -0.2101
 4531TIP3    H137788   1.087   0.157   9.697  1.6527 -0.7715  0.1467
 4531TIP3    H237789   1.054   0.085   9.568  0.9818 -1.0265  0.4551
 4532TIP3   OH237790   7.138   6.959   8.341  0.3288  0.2297  0.2154
 4532TIP3    H137791   7.221   6.914   8.355 -0.3502 -1.2666 -0.3478
 4532TIP3    H237792   7.151   7.009   8.260  0.9583  0.7515  0.6269
 4533TIP3   OH237793   7.099   5.330   8.732 -0.2558  0.4903 -0.0767
 4533TIP3    H137794   7.144   5.411   8.709  1.1708 -0.3567 -0.4242
 4533TIP3    H237795   7.149   5.261   8.687 -1.3336 -0.5935  0.3248
 4534TIP3   OH237796   5.781   7.265   8.248 -0.2940 -0.2183  0.1132
 4534TIP3    H137797   5.787   7.173   8.273 -0.5705 -0.5752 -1.0596
 4534TIP3    H237798   5.845   7.310   8.303  1.3294 -1.4211 -0.6987
 4535TIP3   OH237799   1.013   4.458   7.658  0.9827 -0.3614  0.0241
 4535TIP3    H137800   0.968   4.543   7.665  0.2413 -0.7479  0.0816
 4535TIP3    H237801   0.997   4.430   7.567  0.3624 -0.8924  0.2845
 4536TIP3   OH237802   5.687   1.398   8.871 -0.0935  0.5316 -0.1146
 4536TIP3    H137803   5.726   1.484   8.855 -0.3563  0.6224 -0.2653
 4536TIP3    H237804   5.620   1.413   8.937  0.1150  0.3742  0.1389
 4537TIP3   OH237805   6.305   3.734   7.949  0.2500 -0.5536 -0.6169
 4537TIP3    H137806   6.269   3.811   7.993  1.4435 -0.7905  0.8485
 4537TIP3    H237807   6.286   3.661   8.008 -1.7688 -1.6136 -2.4555
 4538TIP3   OH237808   3.814   7.556   9.460  0.7013 -0.1819 -0.4108
 4538TIP3    H137809   3.853   7.622   9.402  1.3772 -0.8798 -0.7774
 4538TIP3    H237810   3.829   7.473   9.415  0.7371 -0.6856  0.5038
 4539TIP3   OH237811   5.210   6.539   9.220  0.5504  0.5790  0.6352
 4539TIP3    H137812   5.189   6.448   9.196 -3.4383  1.5531 -0.3930
 4539TIP3    H237813   5.174   6.549   9.308 -0.4600  1.5009  0.1440
 4540TIP3   OH237814   4.192   6.397   8.372 -0.4289  0.0621  0.1813
 4540TIP3    H137815   4.269   6.372   8.424  0.8917  0.8623 -1.2988
 4540TIP3    H237816   4.227   6.416   8.285 -1.7742  3.6468  0.2570
 4541TIP3   OH237817   3.698   6.126   7.453  0.2193  0.1331 -0.4139
 4541TIP3    H137818   3.713   6.038   7.486  0.4692 -0.1614 -1.2732
 4541TIP3    H237819   3.610   6.122   7.414  1.1894 -0.4856 -2.7124
 4542TIP3   OH237820   3.177   4.082   7.731  0.2726  0.1884 -0.1905
 4542TIP3    H137821   3.134   4.024   7.668  0.4287  1.2398 -1.3146
 4542TIP3    H237822   3.263   4.042   7.745  0.4385  0.1995 -1.0698
 4543TIP3   OH237823   7.190   5.445   8.284 -0.3101  0.8617 -0.1668
 4543TIP3    H137824   7.268   5.422   8.335 -0.7715 -3.3709 -1.0069
 4543TIP3    H237825   7.121   5.388   8.319 -2.5269  2.8738 -0.9469
 4544TIP3   OH237826   0.345   5.373   9.288  0.2099  0.3208 -0.3497
 4544TIP3    H137827   0.424   5.351   9.238 -1.4780  0.3640 -3.2837
 4544TIP3    H237828   0.377   5.409   9.370  3.2208  0.5132 -1.5011
 4545TIP3   OH237829   0.476   6.271   8.357  0.1153 -0.3359 -0.1237
 4545TIP3    H137830   0.460   6.261   8.263 -1.8903  0.3959  0.0777
 4545TIP3    H237831   0.542   6.340   8.364  0.9941 -1.0609 -0.9976
 4546TIP3   OH237832   4.767   7.091   8.033  0.2853  0.6612  0.4080
 4546TIP3    H137833   4.818   7.157   7.986  1.1605  0.2976  0.8295
 4546TIP3    H237834   4.779   7.113   8.126  0.5572 -0.0725  0.5512
 4547TIP3   OH237835   3.414   2.574   7.283 -0.1168 -0.2819 -0.4229
 4547TIP3    H137836   3.324   2.601   7.267  0.6845  2.1644 -1.3908
 4547TIP3    H237837   3.413   2.479   7.277 -2.6455 -0.3202 -0.1977
 4548TIP3   OH237838   6.692   0.900   7.078 -0.1301  0.4269  0.1751
 4548TIP3    H137839   6.647   0.968   7.028 -0.4810  0.0615 -0.0194
 4548TIP3    H237840   6.694   0.825   7.019  1.0157  0.5255  0.0732
 4549TIP3   OH237841   4.574   6.392   7.691 -0.2878  0.3543 -0.2452
 4549TIP3    H137842   4.522   6.453   7.639  0.6090  0.3754 -1.1518
 4549TIP3    H237843   4.569   6.309   7.643 -0.2158  0.1218  0.1442
 4550TIP3   OH237844   1.127   7.438   9.707  0.4297  0.1627  0.5132
 4550TIP3    H137845   1.075   7.412   9.783  0.4823 -1.3049  0.0731
 4550TIP3    H237846   1.215   7.403   9.725  0.7477  0.8440  0.3138
 4551TIP3   OH237847   2.792   2.148   8.443  0.1872 -0.1455  0.3069
 4551TIP3    H137848   2.832   2.063   8.421  0.1743 -0.3578  1.0490
 4551TIP3    H237849   2.700   2.137   8.422  0.2532 -0.1936  0.0473
 4552TIP3   OH237850   7.602   1.326   8.096  0.2508 -0.3767  0.4475
 4552TIP3    H137851   7.641   1.410   8.074  1.5255 -0.9605  0.4320
 4552TIP3    H237852   7.675   1.265   8.100 -0.8183 -1.8358 -1.1155
 4553TIP3   OH237853   6.154   4.348   9.107 -0.3538  0.4429 -0.1686
 4553TIP3    H137854   6.105   4.343   9.025  0.4262  0.1224 -0.6275
 4553TIP3    H237855   6.216   4.420   9.093  1.2633 -1.0002 -0.7082
 4554TIP3   OH237856   1.552   7.136   7.887 -0.1826  0.3921  0.2374
 4554TIP3    H137857   1.499   7.058   7.875 -0.7249  0.6701  0.7432
 4554TIP3    H237858   1.640   7.103   7.902 -0.3293 -0.1033  0.0269
 4555TIP3   OH237859   1.273   5.716   7.124  0.3083 -0.2879  0.2037
 4555TIP3    H137860   1.223   5.661   7.063  1.5161 -0.7449 -0.4092
 4555TIP3    H237861   1.209   5.743   7.189 -0.8798 -0.3512 -0.8838
 4556TIP3   OH237862   7.631   4.741   9.067 -0.3592  0.1479  0.6682
 4556TIP3    H137863   7.637   4.811   9.132 -2.2620 -0.8482  2.0118
 4556TIP3    H237864   7.627   4.661   9.118  1.1181 -0.9394 -0.8275
 4557TIP3   OH237865   3.527   6.257   9.054  0.2205  0.2158 -0.4474
 4557TIP3    H137866   3.445   6.231   9.098  1.0403 -1.9242 -0.0662
 4557TIP3    H237867   3.538   6.192   8.984  1.5674  0.4993 -0.5149
 4558TIP3   OH237868   4.379   3.208   7.968 -0.0129 -0.0856 -0.6874
 4558TIP3    H137869   4.329   3.156   7.904 -0.2062 -0.8929  0.0853
 4558TIP3    H237870   4.311   3.251   8.021  0.1467  0.7207 -1.1254
 4559TIP3   OH237871   0.011   6.032   6.388  0.1203 -0.2345 -0.3671
 4559TIP3    H137872  -0.082   6.031   6.408  0.0451  0.5450 -0.6363
 4559TIP3    H237873   0.020   6.093   6.314  0.7870 -0.6303 -0.6307
 4560TIP3   OH237874   4.581   0.008   9.221  0.3042 -0.4655  0.0474
 4560TIP3    H137875   4.658   0.017   9.165 -0.7404 -0.9366 -1.5011
 4560TIP3    H237876   4.507   0.030   9.165 -0.8805 -2.1466  0.8842
 4561TIP3   OH237877   3.940   2.398   8.653  0.3196  0.3254  0.1528
 4561TIP3    H137878   3.970   2.411   8.743  1.5041 -1.5547  0.0909
 4561TIP3    H237879   3.924   2.304   8.647 -1.1001  0.6263 -1.2164
 4562TIP3   OH237880   0.301   1.453   8.398 -0.1681  0.0470  0.1615
 4562TIP3    H137881   0.328   1.418   8.483 -0.4969 -0.9583 -0.1338
 4562TIP3    H237882   0.205   1.455   8.403 -0.1597  1.1556  0.2533
 4563TIP3   OH237883   1.187   4.356   8.381  0.1843 -0.6223  0.2607
 4563TIP3    H137884   1.196   4.381   8.289  1.4533  0.6134  0.6915
 4563TIP3    H237885   1.094   4.366   8.399  0.1634  0.7420 -0.4656
 4564TIP3   OH237886   5.009   7.415   8.158  0.0593 -0.3000  0.2136
 4564TIP3    H137887   4.979   7.505   8.153  0.6351 -0.1086  0.0993
 4564TIP3    H237888   4.957   7.368   8.093 -0.2527 -0.0535  0.2870
 4565TIP3   OH237889   7.079   2.145   8.754  0.2085  0.0205  0.3202
 4565TIP3    H137890   7.027   2.071   8.721  0.9744  0.1959 -1.3424
 4565TIP3    H237891   7.161   2.140   8.706 -0.0756  2.5106 -0.5580
 4566TIP3   OH237892   3.590   0.657   9.540  0.1053  0.2203 -0.2733
 4566TIP3    H137893   3.651   0.668   9.613  1.1897 -0.3932 -1.0501
 4566TIP3    H237894   3.555   0.744   9.524  1.5054  0.7732 -0.4037
 4567TIP3   OH237895   1.202   4.153   7.790 -0.1301 -0.3321  0.0866
 4567TIP3    H137896   1.238   4.171   7.877  2.4676  2.7920 -1.3962
 4567TIP3    H237897   1.154   4.232   7.767 -0.8839 -1.1563 -1.3100
 4568TIP3   OH237898   4.667   2.755   9.048 -0.2559  0.1019  0.3669
 4568TIP3    H137899   4.577   2.773   9.022 -0.3753 -1.6017 -0.5220
 4568TIP3    H237900   4.660   2.689   9.116  0.2645  1.5974  1.9698
 4569TIP3   OH237901   4.232   6.368   9.302 -0.1280 -0.2200  0.5116
 4569TIP3    H137902   4.323   6.336   9.299 -0.7362 -1.9804 -0.7132
 4569TIP3    H237903   4.196   6.328   9.381  0.1908  0.6278  1.0988
 4570TIP3   OH237904   1.895   6.528   9.325 -0.1502 -0.2896 -0.3253
 4570TIP3    H137905   1.839   6.451   9.326 -0.1918 -0.2940 -1.5342
 4570TIP3    H237906   1.859   6.585   9.392 -1.0275 -0.6987 -0.4411
 4571TIP3   OH237907   0.526   4.786   9.071  0.5443  0.2493 -0.0496
 4571TIP3    H137908   0.436   4.756   9.056  0.6373 -0.0674  0.0017
 4571TIP3    H237909   0.564   4.717   9.125  0.7841  0.4394  0.0196
 4572TIP3   OH237910   0.792   4.824   9.658  0.4363  0.1068  0.4540
 4572TIP3    H137911   0.868   4.770   9.679 -0.7649 -1.8191  0.1010
 4572TIP3    H237912   0.799   4.839   9.563 -0.5837 -1.7035  0.0601
 4573TIP3   OH237913   4.875   3.719   8.587 -0.3996  0.1923  0.2617
 4573TIP3    H137914   4.928   3.697   8.664  0.8432 -0.1978 -0.6695
 4573TIP3    H237915   4.825   3.639   8.568 -1.1804  0.4881  1.0083
 4574TIP3   OH237916   1.452   4.863   8.001  0.5991  0.0945 -0.3613
 4574TIP3    H137917   1.501   4.939   8.033  3.0670 -1.4892 -0.0792
 4574TIP3    H237918   1.480   4.791   8.058 -3.1024 -0.7521  0.6270
 4575TIP3   OH237919   1.420   5.942   9.193 -0.6004  0.3315  0.2959
 4575TIP3    H137920   1.347   5.896   9.236 -0.1015  0.1844  1.0063
 4575TIP3    H237921   1.435   6.019   9.247  0.9236 -0.5536  1.2052
 4576TIP3   OH237922   5.039   7.297   7.603  0.5133  0.0443  0.3515
 4576TIP3    H137923   5.073   7.383   7.580  0.8147  0.4049  2.0395
 4576TIP3    H237924   5.110   7.236   7.583  0.1223  0.0963 -1.3157
 4577TIP3   OH237925   6.180   0.751   7.972 -0.3260  0.3567  0.0460
 4577TIP3    H137926   6.166   0.793   8.057 -1.8817 -0.3629  0.1848
 4577TIP3    H237927   6.175   0.658   7.990  0.9667  0.1450 -0.5979
 4578TIP3   OH237928   3.892   2.676   8.461 -0.7359 -0.1584  0.1200
 4578TIP3    H137929   3.874   2.742   8.527  1.4491  0.4818  0.1584
 4578TIP3    H237930   3.947   2.611   8.506  1.7068  0.8379 -1.2513
 4579TIP3   OH237931   2.704   3.777   9.261  0.6780 -0.0441  0.5064
 4579TIP3    H137932   2.670   3.866   9.274  0.8277  0.4096 -1.7809
 4579TIP3    H237933   2.648   3.741   9.192  0.8820 -1.6020  1.1273
 4580TIP3   OH237934   5.524   6.755   9.020 -0.6275  0.2161  0.3379
 4580TIP3    H137935   5.584   6.808   9.073  0.9457  0.0817 -1.2298
 4580TIP3    H237936   5.519   6.671   9.067  0.3568  0.2564  0.5299
 4581TIP3   OH237937   4.182   5.931   8.045 -0.0692  0.1761 -0.1109
 4581TIP3    H137938   4.139   6.016   8.055 -0.0723  0.2474 -0.7070
 4581TIP3    H237939   4.156   5.882   8.123  0.5238  0.9705  0.6031
 4582TIP3   OH237940   0.936   5.015   8.030 -0.3092 -0.2691 -0.2577
 4582TIP3    H137941   0.857   4.970   8.061 -0.5270 -1.6728 -2.6537
 4582TIP3    H237942   0.922   5.028   7.937  1.9606  0.1906 -0.5967
 4583TIP3   OH237943   0.643   4.940   8.119 -0.0547  0.1512 -0.3008
 4583TIP3    H137944   0.641   5.034   8.139  1.4375  0.2624 -0.5593
 4583TIP3    H237945   0.611   4.934   8.029  1.5125  0.6440 -0.9300
 4584TIP3   OH237946   4.555   3.824   7.935  0.3167 -0.2822 -0.3166
 4584TIP3    H137947   4.479   3.777   7.899  0.0077  0.7140 -1.0040
 4584TIP3    H237948   4.581   3.773   8.012 -0.7889 -0.8637 -0.3153
 4585TIP3   OH237949   3.706   4.934   9.560 -0.3242  0.1866  0.7134
 4585TIP3    H137950   3.630   4.885   9.529 -0.6363 -1.2888  3.4615
 4585TIP3    H237951   3.767   4.866   9.590  0.5194  1.4115  1.8759
 4586TIP3   OH237952   5.750   4.102   7.730 -0.0744 -0.2778 -0.4929
 4586TIP3    H137953   5.707   4.110   7.815  1.3932 -1.0184  0.3611
 4586TIP3    H237954   5.842   4.085   7.751  0.3879 -0.1601 -2.2383
 4587TIP3   OH237955   0.340   3.793   7.656  0.4830  0.1101  0.1771
 4587TIP3    H137956   0.370   3.707   7.626 -0.1987 -0.4225  0.9769
 4587TIP3    H237957   0.322   3.842   7.575 -1.0003 -1.1682 -0.3136
 4588TIP3   OH237958   7.105   6.126   7.264  0.3338 -0.5598 -0.2844
 4588TIP3    H137959   7.169   6.181   7.310  0.6781 -1.0424 -0.1789
 4588TIP3    H237960   7.072   6.067   7.331  0.6072 -1.0565 -0.5811
 4589TIP3   OH237961   2.353   5.404   9.163  0.0451  0.2608  0.0535
 4589TIP3    H137962   2.385   5.494   9.158 -1.5165  0.8430  0.0499
 4589TIP3    H237963   2.424   5.351   9.127  0.9747  1.4850  0.0269
 4590TIP3   OH237964   5.822   0.963   6.956 -0.0435 -0.5338 -0.0398
 4590TIP3    H137965   5.772   0.909   6.895  2.4040 -2.8133 -0.2447
 4590TIP3    H237966   5.756   1.010   7.007 -2.2442 -1.2397 -2.0682
 4591TIP3   OH237967   4.005   4.719   7.372  0.1152 -0.2567  0.5368
 4591TIP3    H137968   4.013   4.772   7.293  0.6847 -0.8415  0.1942
 4591TIP3    H237969   4.094   4.713   7.407  0.2780 -1.8679 -0.0353
 4592TIP3   OH237970   6.792   1.231   8.318 -0.1279  0.6033  0.0277
 4592TIP3    H137971   6.702   1.226   8.351  0.3617 -0.2601  1.2982
 4592TIP3    H237972   6.806   1.145   8.277  0.1877  0.6438  0.0505
 4593TIP3   OH237973   4.355   6.746   8.709  0.4115  0.1338 -0.0635
 4593TIP3    H137974   4.418   6.713   8.645  0.5088  0.8908 -0.3757
 4593TIP3    H237975   4.270   6.737   8.665 -0.3302 -4.4973  1.7414
 4594TIP3   OH237976   6.314   6.054   8.696  0.3526  0.5240 -0.2056
 4594TIP3    H137977   6.258   5.978   8.680  0.0872  0.7348 -0.2914
 4594TIP3    H237978   6.371   6.059   8.619  2.1059 -1.0673  0.8986
 4595TIP3   OH237979   5.105   1.380   7.552 -0.0803  0.3959  0.4323
 4595TIP3    H137980   5.021   1.409   7.517  0.1894 -0.9999 -1.5509
 4595TIP3    H237981   5.167   1.448   7.525 -0.0261 -0.2428 -1.1348
 4596TIP3   OH237982   4.932   4.686   7.891  0.5618  0.3487 -0.1496
 4596TIP3    H137983   4.907   4.711   7.802  0.1863 -1.2715 -0.5201
 4596TIP3    H237984   4.875   4.738   7.947 -1.3851 -0.8583 -0.9305
 4597TIP3   OH237985   4.511   6.694   8.483  0.5038  0.4855 -0.2778
 4597TIP3    H137986   4.494   6.700   8.389  0.5513 -0.3707 -0.3504
 4597TIP3    H237987   4.554   6.777   8.506  0.3898  0.7409 -0.9876
 4598TIP3   OH237988   6.783   1.200   7.751 -0.1686  0.1117  0.1240
 4598TIP3    H137989   6.755   1.182   7.841 -0.5000 -1.1424 -0.2126
 4598TIP3    H237990   6.863   1.252   7.761  1.3317 -2.2108  1.2340
 4599TIP3   OH237991   5.878   6.826   8.695 -0.4524  0.1269 -0.2381
 4599TIP3    H137992   5.790   6.792   8.711 -0.5175  0.0381 -0.7584
 4599TIP3    H237993   5.876   6.915   8.731 -0.4562 -0.2056  0.6188
 4600TIP3   OH237994   2.943   7.480   9.415 -0.6009  0.2930 -0.0901
 4600TIP3    H137995   2.921   7.403   9.466  0.2829 -0.6092 -1.0326
 4600TIP3    H237996   2.887   7.476   9.338 -0.0829  0.2144 -0.4705
 4601TIP3   OH237997   0.268   1.204   7.175 -0.0672  0.1972 -0.3736
 4601TIP3    H137998   0.286   1.239   7.262 -0.1153  2.1517 -1.0828
 4601TIP3    H237999   0.354   1.181   7.140  0.0778  0.5086 -0.2287
 4602TIP3   OH238000   0.495   3.438   8.217 -0.3598  0.3277  0.1029
 4602TIP3    H138001   0.436   3.395   8.155 -0.3642  0.7333 -0.1839
 4602TIP3    H238002   0.457   3.525   8.229 -0.1159  0.4025  0.3357
 4603TIP3   OH238003   5.131   6.874   9.467  0.4523 -0.0743 -0.1713
 4603TIP3    H138004   5.082   6.932   9.525 -0.7248 -1.1772 -0.0125
 4603TIP3    H238005   5.086   6.789   9.474  3.3298 -1.6427  1.2577
 4604TIP3   OH238006   7.644   6.382   8.597  0.5603  0.0504  0.4946
 4604TIP3    H138007   7.628   6.340   8.682 -0.5892  0.3921  0.4670
 4604TIP3    H238008   7.736   6.364   8.578  1.5244  1.9529  2.8988
 4605TIP3   OH238009   2.389   4.291   7.825  0.1412  0.4437  0.2206
 4605TIP3    H138010   2.324   4.282   7.756 -0.3874  1.0956  0.6234
 4605TIP3    H238011   2.418   4.202   7.843 -1.3396  0.0376  0.6903
 4606TIP3   OH238012   3.628   1.430   8.735 -0.1089  0.0176 -0.2795
 4606TIP3    H138013   3.664   1.359   8.682  1.2870 -3.0317  4.1214
 4606TIP3    H238014   3.703   1.464   8.784 -1.6696  0.0259  2.3246
 4607TIP3   OH238015   1.568   4.505   7.805  0.0572 -0.0196  0.2235
 4607TIP3    H138016   1.475   4.517   7.788  0.0602 -1.4905 -1.0605
 4607TIP3    H238017   1.608   4.590   7.785 -0.5879 -0.3009 -2.7422
 4608TIP3   OH238018   7.609   3.221   7.170 -0.0771 -0.4647  0.4562
 4608TIP3    H138019   7.668   3.161   7.125  0.2902 -0.3681  0.8094
 4608TIP3    H238020   7.532   3.168   7.190 -1.2737  0.0591 -2.3551
 4609TIP3   OH238021   6.459   2.737   8.481 -0.1243  0.9387 -0.2650
 4609TIP3    H138022   6.504   2.714   8.563 -0.8708 -0.1558 -0.1373
 4609TIP3    H238023   6.498   2.680   8.415  0.2909  1.6367 -0.6416
 4610TIP3   OH238024   0.079   5.253   6.443 -0.3851 -0.4854 -0.3796
 4610TIP3    H138025   0.053   5.283   6.356 -0.5780 -0.9419 -0.4796
 4610TIP3    H238026   0.041   5.166   6.451 -3.0864  0.6887  1.3550
 4611TIP3   OH238027   3.674   1.814   6.976 -0.1895  0.5739 -0.3615
 4611TIP3    H138028   3.732   1.808   6.900 -0.2215 -0.9861 -0.2863
 4611TIP3    H238029   3.658   1.724   7.001  1.2860  1.0148  2.6431
 4612TIP3   OH238030   6.760   6.094   9.286  0.3903 -0.0419  0.3536
 4612TIP3    H138031   6.824   6.106   9.356  0.3116  1.1088  0.2453
 4612TIP3    H238032   6.683   6.145   9.314 -0.6657 -1.7467  0.6920
 4613TIP3   OH238033   4.104   2.959   8.441 -0.6716 -0.1075  0.7042
 4613TIP3    H138034   4.182   2.928   8.487  1.1483  0.5377 -1.7474
 4613TIP3    H238035   4.128   2.955   8.348 -3.8409 -0.5685 -0.2141
 4614TIP3   OH238036   2.686   7.087   9.706  0.1188 -0.2375  0.7217
 4614TIP3    H138037   2.686   7.057   9.796 -1.4058 -2.4670  0.0590
 4614TIP3    H238038   2.733   7.019   9.657 -0.7214 -0.0228 -0.4282
 4615TIP3   OH238039   1.492   4.084   7.782 -0.3192  0.0478  0.0938
 4615TIP3    H138040   1.564   4.130   7.739 -0.4426  1.3033  1.1654
 4615TIP3    H238041   1.414   4.111   7.733 -0.6064  2.3739  1.6692
 4616TIP3   OH238042   0.551   3.237   7.494  0.7963  0.1033  0.3640
 4616TIP3    H138043   0.537   3.231   7.399 -0.8555  4.2634  0.1067
 4616TIP3    H238044   0.472   3.200   7.532  0.5467  0.2221 -0.0230
 4617TIP3   OH238045   0.903   6.746   9.361  0.8395 -0.2245 -0.3002
 4617TIP3    H138046   0.821   6.698   9.368  0.1892  0.6896 -1.3332
 4617TIP3    H238047   0.929   6.762   9.452 -0.0944 -0.5648  0.0428
 4618TIP3   OH238048   6.582   1.598   8.409 -0.2717  0.2524 -0.0373
 4618TIP3    H138049   6.659   1.556   8.447 -0.2918  0.3990  0.1671
 4618TIP3    H238050   6.526   1.619   8.484  0.4283  2.0494  0.0417
 4619TIP3   OH238051   3.154   7.177   9.575  0.6497  0.1734 -0.1101
 4619TIP3    H138052   3.184   7.259   9.614  2.2589  0.4089 -1.7234
 4619TIP3    H238053   3.173   7.186   9.482 -0.4281 -1.5036 -0.5503
 4620TIP3   OH238054   1.374   0.978   8.254 -0.0718 -0.6964  0.1930
 4620TIP3    H138055   1.423   0.918   8.309  1.2335  0.6089  0.5067
 4620TIP3    H238056   1.304   1.011   8.310  0.3714 -0.4739  0.6174
 4621TIP3   OH238057   2.395   0.553   8.959  0.1286  0.0726 -0.2268
 4621TIP3    H138058   2.389   0.459   8.940 -1.3741  0.1374 -0.1294
 4621TIP3    H238059   2.356   0.596   8.884 -0.4699  0.5636  0.3568
 4622TIP3   OH238060   6.687   3.891   8.405  0.0653 -0.1313 -0.4257
 4622TIP3    H138061   6.671   3.801   8.434 -1.4979  0.1815 -0.2593
 4622TIP3    H238062   6.712   3.937   8.485 -2.9055  0.4140  0.3091
 4623TIP3   OH238063   6.190   3.766   7.642  0.0436 -0.3146  0.2290
 4623TIP3    H138064   6.272   3.735   7.682  0.1986  0.3107  0.4044
 4623TIP3    H238065   6.184   3.858   7.668 -1.0115 -0.5107  0.6976
 4624TIP3   OH238066   6.474   1.186   7.730  0.1356 -0.1577  0.0932
 4624TIP3    H138067   6.541   1.156   7.670 -1.2204 -0.9171 -1.1148
 4624TIP3    H238068   6.438   1.106   7.768 -0.8855  0.1505 -0.1877
 4625TIP3   OH238069   2.486   4.519   6.637 -0.1863  0.5004 -0.6036
 4625TIP3    H138070   2.538   4.549   6.563  1.6280  0.0151  0.4338
 4625TIP3    H238071   2.457   4.600   6.680 -0.1749  0.7663 -1.0842
 4626TIP3   OH238072   4.675   1.755   8.072 -0.2067  0.9287  0.1118
 4626TIP3    H138073   4.730   1.725   7.999  0.0649  0.6826  0.4194
 4626TIP3    H238074   4.715   1.839   8.098 -0.2971  1.0113 -0.0139
 4627TIP3   OH238075   1.887   2.343   7.801  0.4780 -0.3913  0.1345
 4627TIP3    H138076   1.878   2.309   7.890  0.2824  1.3041  0.8046
 4627TIP3    H238077   1.965   2.300   7.766 -0.1264 -1.9794  0.6731
 4628TIP3   OH238078   3.702   2.548   8.661 -0.3997 -0.3931  0.0200
 4628TIP3    H138079   3.753   2.482   8.614  1.6425 -0.6597  2.4188
 4628TIP3    H238080   3.763   2.621   8.673 -1.5703  0.5748  0.3385
 4629TIP3   OH238081   6.779   6.027   7.154 -0.1341 -0.6598 -0.2568
 4629TIP3    H138082   6.854   6.033   7.094  0.7984  0.8553  0.9965
 4629TIP3    H238083   6.812   5.974   7.227  0.3914  1.4693  1.1488
 4630TIP3   OH238084   4.748   4.946   7.426  0.9796 -0.2562  0.0958
 4630TIP3    H138085   4.653   4.937   7.439  0.7562  1.5341 -0.0670
 4630TIP3    H238086   4.769   4.879   7.362 -0.3410 -0.1364 -0.5043
 4631TIP3   OH238087   7.377   2.912   7.934  0.4687  1.0734  0.0977
 4631TIP3    H138088   7.336   2.840   7.886  2.2278  1.0467 -1.5000
 4631TIP3    H238089   7.336   2.991   7.899  0.3883  0.9665 -0.0511
 4632TIP3   OH238090   2.781   2.900   8.441 -0.3037 -0.7465  0.4825
 4632TIP3    H138091   2.809   2.975   8.388 -1.9523 -0.8619 -0.6069
 4632TIP3    H238092   2.858   2.879   8.495  1.3269 -0.3601 -1.5460
 4633TIP3   OH238093   7.196   1.230   9.112  0.4305 -0.5470 -0.3977
 4633TIP3    H138094   7.182   1.188   9.197 -1.1229  3.4533  1.6242
 4633TIP3    H238095   7.283   1.268   9.118  0.0192  0.4089 -0.1817
 4634TIP3   OH238096   4.479   1.316   8.516 -0.7670 -0.8213 -0.0696
 4634TIP3    H138097   4.501   1.409   8.505 -0.6836 -1.1082 -3.5011
 4634TIP3    H238098   4.493   1.278   8.430 -3.0626 -3.5790  0.6143
 4635TIP3   OH238099   1.723   0.257   7.712  0.8191  0.3819 -0.3780
 4635TIP3    H138100   1.764   0.205   7.643  2.9695  1.3265  0.1105
 4635TIP3    H238101   1.711   0.195   7.785  2.4486  0.3166 -0.1433
 4636TIP3   OH238102   4.024   0.311   9.444 -0.2857 -0.1378  0.1209
 4636TIP3    H138103   3.972   0.231   9.433 -0.0350 -0.1218 -1.3911
 4636TIP3    H238104   3.959   0.381   9.449 -0.4508 -0.1221 -1.7253
 4637TIP3   OH238105   7.083   0.896   7.525  0.8694 -0.2511 -0.2373
 4637TIP3    H138106   7.138   0.858   7.457  1.4532 -1.1985  0.7452
 4637TIP3    H238107   7.143   0.949   7.578  0.1954  1.5408 -1.1779
 4638TIP3   OH238108   0.034   2.295   8.395  0.2696  0.4411 -0.3020
 4638TIP3    H138109   0.030   2.342   8.312 -0.3841  0.7226 -0.1155
 4638TIP3    H238110   0.076   2.212   8.373  1.9811  1.3182 -0.5306
 4639TIP3   OH238111   3.511   7.558   7.575 -0.4402 -0.0445 -0.2056
 4639TIP3    H138112   3.455   7.549   7.652  0.1526  1.7773  0.4829
 4639TIP3    H238113   3.457   7.602   7.510 -0.2302  0.4927 -0.0178
 4640TIP3   OH238114   0.188   3.360   7.106 -0.5231 -0.4144 -0.2951
 4640TIP3    H138115   0.171   3.436   7.050 -1.4996  0.2481  0.8380
 4640TIP3    H238116   0.187   3.285   7.047 -1.2358  0.2886 -1.1943
 4641TIP3   OH238117   2.661   3.313   8.261 -0.1837  0.2855 -0.1642
 4641TIP3    H138118   2.602   3.293   8.333  0.8588 -1.3826  0.2802
 4641TIP3    H238119   2.733   3.361   8.301 -0.7015  1.4001 -0.5256
 4642TIP3   OH238120   1.678   2.707   8.045 -0.7343 -0.1693  0.2954
 4642TIP3    H138121   1.598   2.654   8.049 -2.1185  1.7864 -0.0107
 4642TIP3    H238122   1.646   2.797   8.035  1.5300  0.6657  0.1470
 4643TIP3   OH238123   4.934   5.385   9.007  0.3476 -0.4555 -0.3865
 4643TIP3    H138124   4.891   5.324   8.948 -2.2782  1.4802 -0.6575
 4643TIP3    H238125   4.939   5.338   9.091 -1.7255 -1.0554 -0.5477
 4644TIP3   OH238126   4.984   6.866   6.871  0.3089  0.4759 -0.6560
 4644TIP3    H138127   5.032   6.839   6.792 -0.2130 -2.1644 -0.1748
 4644TIP3    H238128   4.895   6.834   6.856  0.4742 -1.2043  1.4335
 4645TIP3   OH238129   3.384   7.470   7.793  1.0966  0.1205  0.5084
 4645TIP3    H138130   3.415   7.379   7.794 -0.5580 -0.5072 -0.1269
 4645TIP3    H238131   3.322   7.475   7.866 -0.4938  0.0495 -0.7777
 4646TIP3   OH238132   3.657   6.900   8.094 -0.7995 -0.1895  0.3914
 4646TIP3    H138133   3.704   6.887   8.012 -0.8423 -0.4190  0.4046
 4646TIP3    H238134   3.657   6.814   8.136 -0.7474 -0.0651  0.6483
 4647TIP3   OH238135   0.337   2.016   8.066 -0.0454  0.2722  0.4319
 4647TIP3    H138136   0.393   1.958   8.117 -0.0751 -0.4690 -0.3432
 4647TIP3    H238137   0.398   2.072   8.018  0.0137  0.1019  0.3064
 4648TIP3   OH238138   3.831   2.813   8.677  0.0129 -0.2877  0.2493
 4648TIP3    H138139   3.781   2.894   8.686 -0.9134 -0.8471  0.2718
 4648TIP3    H238140   3.883   2.808   8.757  2.6202  1.9176 -1.1133
 4649TIP3   OH238141   6.259   7.071   8.916  0.0385 -0.0501  0.3204
 4649TIP3    H138142   6.206   6.991   8.913 -0.0883  0.0092  1.0167
 4649TIP3    H238143   6.313   7.066   8.836  1.1904 -1.6430  1.1385
 4650TIP3   OH238144   0.894   4.915   7.388 -0.2038  0.1413  0.0257
 4650TIP3    H138145   0.953   4.885   7.320 -0.8497 -0.1485 -0.4169
 4650TIP3    H238146   0.938   4.991   7.426  0.1783  0.2926 -0.7001
 4651TIP3   OH238147   7.151   5.976   9.275  0.2342  0.3262 -0.3635
 4651TIP3    H138148   7.056   5.966   9.271  0.3146 -1.4288  0.9618
 4651TIP3    H238149   7.179   5.975   9.184 -1.0630  1.7365 -0.8197
 4652TIP3   OH238150   6.875   6.593   8.330  0.1989  0.1991  0.0071
 4652TIP3    H138151   6.815   6.636   8.270 -0.0481 -0.5546 -0.3057
 4652TIP3    H238152   6.819   6.556   8.399  0.2419 -0.8048 -0.4695
 4653TIP3   OH238153   3.411   6.158   7.669  0.1639 -0.3988 -0.1639
 4653TIP3    H138154   3.428   6.216   7.595  0.3513 -0.2804 -0.0277
 4653TIP3    H238155   3.318   6.169   7.688  0.4109  0.6069  0.5031
 4654TIP3   OH238156   0.324   7.597   8.722 -0.1183 -0.0082  0.0096
 4654TIP3    H138157   0.262   7.563   8.786 -0.4556  0.9616  0.2204
 4654TIP3    H238158   0.277   7.670   8.680 -0.0306 -0.8102 -1.5627
 4655TIP3   OH238159   4.349   4.333   7.918  0.6394 -0.1084 -0.1456
 4655TIP3    H138160   4.404   4.411   7.920  0.2995  0.1311  1.4926
 4655TIP3    H238161   4.392   4.272   7.977 -0.6020 -0.0702  0.8353
 4656TIP3   OH238162   2.378   0.869   9.117 -0.3414 -0.9457 -0.2246
 4656TIP3    H138163   2.338   0.913   9.192  0.2602 -0.8675  0.0577
 4656TIP3    H238164   2.313   0.875   9.048 -0.4447  0.0034 -0.0555
 4657TIP3   OH238165   5.674   3.888   8.480  0.3260  0.2249  0.0217
 4657TIP3    H138166   5.767   3.892   8.501  0.3235 -0.9710  0.3131
 4657TIP3    H238167   5.639   3.972   8.511  1.0618  0.1250  1.1978
 4658TIP3   OH238168   3.170   6.738   9.485 -0.2073 -0.7401 -0.3350
 4658TIP3    H138169   3.088   6.692   9.471  0.1400 -1.7430  0.7645
 4658TIP3    H238170   3.151   6.801   9.554 -0.0297 -1.0683  0.0183
 4659TIP3   OH238171   3.071   6.570   7.825 -0.4063 -0.5021 -0.0960
 4659TIP3    H138172   3.086   6.597   7.915  0.3100 -1.4487  0.0812
 4659TIP3    H238173   3.062   6.652   7.776 -0.8131  0.0113  0.8279
 4660TIP3   OH238174   4.332   2.611   8.359 -0.0545 -0.4427  0.0484
 4660TIP3    H138175   4.426   2.592   8.360 -0.1411 -0.9004 -0.2873
 4660TIP3    H238176   4.292   2.538   8.406 -0.0965  0.6265  1.7354
 4661TIP3   OH238177   3.235   3.216   8.204  0.5000  0.3732 -0.4647
 4661TIP3    H138178   3.315   3.259   8.233  0.5485 -0.2556  0.3725
 4661TIP3    H238179   3.220   3.250   8.116  1.6365  0.5736 -0.6000
 4662TIP3   OH238180   4.128   1.423   6.619 -0.0888  0.1471  0.2524
 4662TIP3    H138181   4.051   1.445   6.672  0.0849  1.4903 -0.0254
 4662TIP3    H238182   4.132   1.327   6.622 -1.5765  0.0661  0.5390
 4663TIP3   OH238183   7.496   4.764   8.030 -0.1947  0.6897  0.1528
 4663TIP3    H138184   7.561   4.783   7.962 -0.8282  1.5670 -0.2304
 4663TIP3    H238185   7.412   4.764   7.983 -0.3694 -2.1091  0.3216
 4664TIP3   OH238186   6.336   6.334   6.681 -0.1530 -0.7082  0.1082
 4664TIP3    H138187   6.339   6.239   6.689 -2.2179 -0.9762 -1.4851
 4664TIP3    H238188   6.273   6.362   6.748 -0.3217 -0.5548 -0.1167
 4665TIP3   OH238189   5.021   0.556   8.682 -0.6059  0.1591 -0.1380
 4665TIP3    H138190   5.041   0.635   8.732  0.3807  0.0844 -0.3865
 4665TIP3    H238191   5.006   0.489   8.748 -0.2036  0.2750  0.0771
 4666TIP3   OH238192   5.305   4.432   9.451 -0.0865 -0.7158  0.3762
 4666TIP3    H138193   5.383   4.394   9.490  0.6602 -0.3958 -0.7650
 4666TIP3    H238194   5.264   4.361   9.402  1.5617 -0.0668 -2.1478
 4667TIP3   OH238195   0.663   0.975   7.604  0.5053  0.0724 -0.6459
 4667TIP3    H138196   0.737   1.036   7.612  1.0341 -0.6263 -0.0812
 4667TIP3    H238197   0.690   0.915   7.535  1.3336 -1.3402  0.8355
 4668TIP3   OH238198   2.516   2.275   8.150  0.5757  0.0164  0.2591
 4668TIP3    H138199   2.500   2.346   8.087 -0.4951 -0.5131 -0.0927
 4668TIP3    H238200   2.462   2.298   8.226  1.1512  0.1817  0.6212
 4669TIP3   OH238201   1.915   6.111   7.682  0.6110  0.1895  0.0913
 4669TIP3    H138202   1.935   6.129   7.774  1.2663 -1.6831  0.3731
 4669TIP3    H238203   1.895   6.017   7.681  0.3276  0.2485 -1.6293
 4670TIP3   OH238204   3.529   5.918   8.042 -0.3889  0.1330  0.1325
 4670TIP3    H138205   3.531   5.908   8.138 -0.8216 -1.6374 -0.0013
 4670TIP3    H238206   3.608   5.873   8.012  0.6034  2.0668 -0.2898
 4671TIP3   OH238207   6.126   1.583   8.348  0.0386  0.1106  0.2781
 4671TIP3    H138208   6.177   1.561   8.270 -1.0799  2.5471 -1.2348
 4671TIP3    H238209   6.087   1.500   8.374  1.7322 -1.0827 -0.7332
 4672TIP3   OH238210   0.724   4.700   7.678  0.0906  0.5036 -0.0524
 4672TIP3    H138211   0.676   4.771   7.719  2.1363  2.2161 -0.4285
 4672TIP3    H238212   0.779   4.664   7.748 -0.2981 -0.1605 -0.0734
 4673TIP3   OH238213   4.571   0.508   7.658  0.3117 -0.4361  0.3233
 4673TIP3    H138214   4.531   0.524   7.572  0.8578  0.6106  0.2456
 4673TIP3    H238215   4.569   0.413   7.668 -2.3319 -0.4521  0.4106
 4674TIP3   OH238216   4.393   4.962   9.635 -0.3671 -0.0874 -0.0308
 4674TIP3    H138217   4.353   4.886   9.594 -1.3278  0.0617  0.5964
 4674TIP3    H238218   4.328   5.031   9.625  0.2330  0.4871 -0.0352
 4675TIP3   OH238219   4.275   4.899   8.091  0.4338  0.4897 -0.6925
 4675TIP3    H138220   4.210   4.941   8.035  0.1604  2.5153  1.0199
 4675TIP3    H238221   4.298   4.818   8.045 -1.4221  0.9471 -2.5626
 4676TIP3   OH238222   0.310   2.536   8.499  0.0189  0.1832 -0.6977
 4676TIP3    H138223   0.271   2.592   8.566 -1.4122 -0.7896 -0.6548
 4676TIP3    H238224   0.279   2.448   8.521  2.2342 -0.6618 -0.7387
 4677TIP3   OH238225   4.215   5.077   9.308 -0.0615  0.4552  0.2177
 4677TIP3    H138226   4.123   5.104   9.309  0.3216  1.8820 -0.3215
 4677TIP3    H238227   4.259   5.144   9.361  0.9352  0.9258 -1.1461
 4678TIP3   OH238228   0.765   6.660   7.939 -0.6397  0.7671 -0.6277
 4678TIP3    H138229   0.805   6.596   7.998 -0.4140 -0.7601 -2.3487
 4678TIP3    H238230   0.738   6.731   7.996 -1.2271 -1.0134  1.4631
 4679TIP3   OH238231   5.117   3.270   7.825  0.3715  0.2007  0.3431
 4679TIP3    H138232   5.209   3.287   7.803  0.5159  0.6409  1.2503
 4679TIP3    H238233   5.070   3.347   7.793  0.1574 -0.4468 -0.9946
 4680TIP3   OH238234   5.838   5.514   8.031  0.3626 -0.3548 -0.2208
 4680TIP3    H138235   5.804   5.491   7.945  0.0963  1.2292 -0.5534
 4680TIP3    H238236   5.764   5.503   8.090  0.4206 -0.9678 -0.2479
 4681TIP3   OH238237   7.061   1.508   8.486  0.0416  0.0956  0.5635
 4681TIP3    H138238   7.014   1.432   8.453 -0.2836  0.6583 -0.2971
 4681TIP3    H238239   6.995   1.558   8.534 -0.0612  0.4799  0.0337
 4682TIP3   OH238240   5.424   3.062   7.643 -0.6839 -0.2916 -0.2078
 4682TIP3    H138241   5.462   3.138   7.688 -1.3763  0.9241 -1.5631
 4682TIP3    H238242   5.498   3.023   7.597 -0.4748  0.1243 -0.2364
 4683TIP3   OH238243   0.378   0.445   8.162  0.1078  0.2110 -0.2907
 4683TIP3    H138244   0.292   0.459   8.201  0.4213 -0.3647  0.6497
 4683TIP3    H238245   0.433   0.415   8.235  1.6570  2.4913 -0.4230
 4684TIP3   OH238246   5.629   0.795   8.730 -1.2178  0.3096 -0.5152
 4684TIP3    H138247   5.597   0.837   8.810  0.1008  0.6213 -0.1119
 4684TIP3    H238248   5.643   0.704   8.755  1.0310  0.7892  0.2481
 4685TIP3   OH238249   0.013   5.363   8.392  0.0106 -0.2860 -0.2056
 4685TIP3    H138250   0.094   5.400   8.428 -1.0001  3.0984 -1.0075
 4685TIP3    H238251   0.041   5.285   8.345  2.8859  0.8790 -0.6442
 4686TIP3   OH238252   0.030   2.609   8.308 -0.4889 -0.3544  0.5291
 4686TIP3    H138253   0.080   2.690   8.313 -1.4175  0.2463  0.2876
 4686TIP3    H238254   0.031   2.575   8.398  1.3394 -0.9990  0.3174
 4687TIP3   OH238255   7.110   6.032   9.794  0.1196 -0.2306 -0.1468
 4687TIP3    H138256   7.120   6.055   9.887  1.2018  3.7512 -1.0801
 4687TIP3    H238257   7.199   6.009   9.765  0.0114 -0.2400 -0.4762
 4688TIP3   OH238258   1.940   5.571   8.849 -0.0821 -0.0870  0.0051
 4688TIP3    H138259   1.872   5.639   8.855 -0.8041 -0.6403 -1.5001
 4688TIP3    H238260   1.902   5.495   8.893  0.0981 -0.0113  0.2979
 4689TIP3   OH238261   2.695   5.649   8.959 -0.5944  0.2042  0.2646
 4689TIP3    H138262   2.671   5.741   8.949 -0.2791  0.2364 -0.2404
 4689TIP3    H238263   2.656   5.606   8.882 -2.3123 -0.4090  1.4246
 4690TIP3   OH238264   1.714   3.541   9.624  0.8495  0.1497  0.5290
 4690TIP3    H138265   1.711   3.520   9.717 -1.9631  1.9627  0.9898
 4690TIP3    H238266   1.748   3.630   9.620  1.7712 -0.2235 -0.2834
 4691TIP3   OH238267   6.220   5.654   9.603 -0.6817 -0.4310 -0.1074
 4691TIP3    H138268   6.283   5.673   9.533  0.4187  1.6655  1.3478
 4691TIP3    H238269   6.254   5.576   9.646  1.6138  1.1901  1.2621
 4692TIP3   OH238270   2.159   7.300   8.811 -0.0923  0.2901 -0.1461
 4692TIP3    H138271   2.087   7.320   8.871 -0.1482  2.2499 -0.7799
 4692TIP3    H238272   2.119   7.248   8.741 -0.3019 -0.8689  0.8049
 4693TIP3   OH238273   3.129   5.598   9.546 -0.4379  0.3532 -0.5425
 4693TIP3    H138274   3.147   5.552   9.464  0.7918  0.9560 -0.6413
 4693TIP3    H238275   3.054   5.553   9.583 -1.9108  0.8910 -2.6504
 4694TIP3   OH238276   1.923   3.246   8.196  0.2721 -0.3328  0.6160
 4694TIP3    H138277   1.898   3.155   8.175 -0.2642  0.1447 -0.9975
 4694TIP3    H238278   1.947   3.283   8.111  0.0877  1.1549  1.1953
 4695TIP3   OH238279   3.233   3.772   7.103  0.5510 -0.3572 -0.0505
 4695TIP3    H138280   3.157   3.781   7.160 -0.3799  3.0331 -1.5738
 4695TIP3    H238281   3.196   3.764   7.015  1.8681  1.8528 -0.8911
 4696TIP3   OH238282   6.578   5.524   8.122  0.0340 -0.4708 -0.0307
 4696TIP3    H138283   6.623   5.593   8.171 -1.4868 -2.1552  4.2832
 4696TIP3    H238284   6.490   5.559   8.106  0.4231 -0.0549 -1.3331
 4697TIP3   OH238285   4.409   6.182   8.815  0.2394  0.3945  0.1703
 4697TIP3    H138286   4.348   6.109   8.829  1.8977 -1.0595  0.1009
 4697TIP3    H238287   4.385   6.216   8.728  0.7159 -1.3931 -0.7051
 4698TIP3   OH238288   2.976   6.998   8.299  0.0821 -0.9954 -0.1016
 4698TIP3    H138289   2.995   7.016   8.207  0.7929 -0.9265  0.0592
 4698TIP3    H238290   2.967   6.903   8.303 -0.5320 -0.9530 -0.3485
 4699TIP3   OH238291   6.044   5.788   7.476  0.2925  0.3188  0.0749
 4699TIP3    H138292   6.095   5.779   7.396 -0.5423  1.0578 -0.5654
 4699TIP3    H238293   6.022   5.881   7.480  1.0857  0.4774  1.6613
 4700TIP3   OH238294   4.025   2.177   8.908  0.1309  0.2186 -0.9101
 4700TIP3    H138295   3.992   2.141   8.826 -0.5451  1.8543 -1.3948
 4700TIP3    H238296   3.954   2.164   8.971 -0.0533  0.5324 -1.0484
 4701TIP3   OH238297   3.437   6.295   7.948  0.4314  0.4633  0.1199
 4701TIP3    H138298   3.529   6.318   7.937  1.2764 -1.5352  2.2113
 4701TIP3    H238299   3.418   6.238   7.873  0.5495  1.7020 -0.8801
 4702TIP3   OH238300   7.046   7.300   9.047  0.0220 -0.4765 -0.0289
 4702TIP3    H138301   7.057   7.369   8.982  0.2523 -0.0744  0.4353
 4702TIP3    H238302   7.126   7.303   9.100 -0.5256 -0.2381  0.8019
 4703TIP3   OH238303   6.085   4.227   8.067 -0.0326 -0.5238 -0.5744
 4703TIP3    H138304   6.143   4.220   8.143  0.7192  2.0785 -0.8309
 4703TIP3    H238305   6.004   4.265   8.101  0.0034 -0.1074 -0.9511
 4704TIP3   OH238306   7.131   4.936   8.929  0.2689  0.2590 -0.3101
 4704TIP3    H138307   7.072   4.869   8.896 -1.1387  1.6738 -0.7860
 4704TIP3    H238308   7.127   4.926   9.024 -1.3712  0.8066 -0.2890
 4705TIP3   OH238309   7.317   3.485   7.376 -0.1119 -0.4688  0.9457
 4705TIP3    H138310   7.278   3.572   7.371  1.5962  0.3101  0.6780
 4705TIP3    H238311   7.258   3.430   7.325  0.1409  1.0628 -1.1561
 4706TIP3   OH238312   2.938   5.110   9.230  0.5037 -0.4490 -0.6036
 4706TIP3    H138313   2.963   5.026   9.269  2.3534 -0.9205 -2.6445
 4706TIP3    H238314   2.843   5.116   9.246  0.8695 -1.2509  2.5374
 4707TIP3   OH238315   0.474   6.013   8.810  0.2273 -0.3905  0.2003
 4707TIP3    H138316   0.559   6.010   8.855 -0.1133 -1.5667  0.8199
 4707TIP3    H238317   0.434   5.928   8.829 -1.4846  0.4681  0.6903
 4708TIP3   OH238318   1.837   5.201   8.655  0.4072  0.0560  0.1351
 4708TIP3    H138319   1.762   5.257   8.673  0.3910  1.0786 -2.5710
 4708TIP3    H238320   1.826   5.176   8.563  2.3403 -1.3966  0.2507
 4709TIP3   OH238321   2.750   4.301   9.382  0.2117 -0.2197  0.2594
 4709TIP3    H138322   2.789   4.216   9.363  2.0018  0.7211 -0.5398
 4709TIP3    H238323   2.730   4.298   9.475 -0.1820 -1.6570  0.1575
 4710TIP3   OH238324   6.065   2.235   6.997 -0.0906 -0.1810  0.1113
 4710TIP3    H138325   5.998   2.201   6.938  0.3554  0.6834 -0.9335
 4710TIP3    H238326   6.120   2.290   6.942 -0.2355  1.4710  1.5356
 4711TIP3   OH238327   2.352   4.310   6.800  0.1401  0.3703  0.0201
 4711TIP3    H138328   2.411   4.366   6.749  1.0963 -1.1905 -0.6730
 4711TIP3    H238329   2.411   4.259   6.856  0.0657 -4.0185 -3.3435
 4712TIP3   OH238330   2.288   3.825   9.705  0.1610  0.0443 -0.1326
 4712TIP3    H138331   2.296   3.735   9.674 -0.4067  0.2124 -0.7998
 4712TIP3    H238332   2.202   3.828   9.747 -0.0833  0.4208 -0.6463
 4713TIP3   OH238333   2.041   5.837   9.631  0.1539 -0.9104  0.2055
 4713TIP3    H138334   2.008   5.857   9.543 -0.2285  1.8077  0.8838
 4713TIP3    H238335   1.963   5.839   9.686  0.6048 -0.9203  0.8536
 4714TIP3   OH238336   0.366   5.829   7.736  0.1038  0.1059 -0.0639
 4714TIP3    H138337   0.323   5.911   7.712  0.5336  0.7377  1.2669
 4714TIP3    H238338   0.318   5.798   7.812 -1.0050 -1.6846 -1.4033
 4715TIP3   OH238339   5.807   2.773   7.336 -0.6259  0.4533  0.0737
 4715TIP3    H138340   5.857   2.799   7.414  0.2184 -3.7878  1.2165
 4715TIP3    H238341   5.729   2.730   7.371 -1.3296  0.4061 -1.4997
 4716TIP3   OH238342   2.831   1.533   8.621  0.2309 -0.2500  0.9118
 4716TIP3    H138343   2.782   1.533   8.703 -0.4007 -0.5125  0.5457
 4716TIP3    H238344   2.859   1.442   8.610 -0.1696 -0.3336  0.5601
 4717TIP3   OH238345   6.145   3.847   9.038 -0.1988 -0.4628 -0.4133
 4717TIP3    H138346   6.196   3.869   9.117 -1.0598 -0.2234  0.0888
 4717TIP3    H238347   6.181   3.904   8.970  0.5302 -0.6467 -0.1952
 4718TIP3   OH238348   4.578   1.765   9.031 -0.3808  0.3194  0.6057
 4718TIP3    H138349   4.492   1.806   9.037 -0.5855  0.0652 -0.4264
 4718TIP3    H238350   4.560   1.673   9.015  0.0873  0.1758  0.8744
 4719TIP3   OH238351   5.223   1.970   8.442  0.3438 -0.0353 -0.3939
 4719TIP3    H138352   5.264   2.025   8.509 -2.9493  0.8520  1.0696
 4719TIP3    H238353   5.218   2.027   8.365 -0.4089  0.7413  0.2106
 4720TIP3   OH238354   0.865   0.055   9.266 -0.0518  0.6193 -0.0442
 4720TIP3    H138355   0.849   0.083   9.176  2.0795  1.2716 -0.2699
 4720TIP3    H238356   0.808   0.111   9.319 -1.7147 -0.1181 -0.9691
 4721TIP3   OH238357   3.289   5.567   8.415 -0.0087  0.2780  0.3352
 4721TIP3    H138358   3.195   5.580   8.401  0.1930  2.8731  0.9685
 4721TIP3    H238359   3.331   5.607   8.339  0.6254  1.4467  1.2598
 4722TIP3   OH238360   6.491   6.766   8.766 -0.3629  0.1240  0.3470
 4722TIP3    H138361   6.555   6.783   8.697 -2.3898  2.6309 -1.1080
 4722TIP3    H238362   6.542   6.769   8.847  1.3816  2.2493 -0.7015
 4723TIP3   OH238363   7.670   3.148   8.184  0.1968 -0.0101  0.2238
 4723TIP3    H138364   7.625   3.065   8.171 -0.3774 -0.1260  2.6375
 4723TIP3    H238365   7.644   3.177   8.271  0.0617  2.9263 -0.6780
 4724TIP3   OH238366   1.956   7.138   7.489 -0.1276  0.0659  0.0237
 4724TIP3    H138367   1.868   7.104   7.506 -1.3046  2.6844 -0.2775
 4724TIP3    H238368   1.968   7.126   7.394 -0.3062 -0.0324  0.0125
 4725TIP3   OH238369   1.557   2.942   8.032 -0.0903  0.0917  0.1789
 4725TIP3    H138370   1.573   3.010   7.967 -0.0597 -1.8263 -1.9256
 4725TIP3    H238371   1.496   2.982   8.094 -0.9706  1.6675 -1.6193
 4726TIP3   OH238372   4.273   1.343   7.427 -0.1087  0.1055 -0.2239
 4726TIP3    H138373   4.234   1.297   7.502 -1.4227 -0.7161 -1.3688
 4726TIP3    H238374   4.200   1.391   7.389  0.2474 -0.4869 -1.7088
 4727TIP3   OH238375   3.079   0.218   8.402  0.4111 -0.1065  0.8298
 4727TIP3    H138376   2.988   0.226   8.432 -0.0804 -1.1018 -0.2981
 4727TIP3    H238377   3.131   0.230   8.481 -0.6112  1.9483  1.2609
 4728TIP3   OH238378   0.536   4.232   8.238  0.2105 -0.5393  0.5713
 4728TIP3    H138379   0.507   4.188   8.159  1.6171 -0.3208 -0.0930
 4728TIP3    H238380   0.576   4.163   8.291  0.4007 -0.4544  0.5365
 4729TIP3   OH238381   5.664   5.166   9.301 -0.2740 -0.3161  0.4144
 4729TIP3    H138382   5.695   5.256   9.284  0.3357 -0.7167 -0.7007
 4729TIP3    H238383   5.572   5.168   9.276  0.5856 -0.9022 -3.4345
 4730TIP3   OH238384   5.343   7.074   8.384 -0.6720 -0.3442 -0.2150
 4730TIP3    H138385   5.404   7.002   8.401  0.7498  1.0116  0.7166
 4730TIP3    H238386   5.398   7.152   8.387 -2.2133  0.8041 -0.9801
 4731TIP3   OH238387   7.541   6.351   9.623 -0.1926  0.2031 -0.5912
 4731TIP3    H138388   7.619   6.388   9.581 -0.6255  0.4782 -1.1522
 4731TIP3    H238389   7.512   6.419   9.683 -1.1526  0.9198 -1.8259
 4732TIP3   OH238390   2.568   2.412   8.722  0.2438 -0.0777  0.1789
 4732TIP3    H138391   2.584   2.472   8.795  1.3217 -0.8808  0.6352
 4732TIP3    H238392   2.488   2.444   8.681 -0.6593  0.0925  2.0065
 4733TIP3   OH238393   0.690   4.977   7.566 -0.1226 -0.0628 -0.4660
 4733TIP3    H138394   0.659   5.028   7.492  0.6053 -1.4107 -1.7492
 4733TIP3    H238395   0.741   4.906   7.527  0.8394 -0.4373  1.3620
 4734TIP3   OH238396   7.018   1.985   6.695 -0.3684 -0.0756 -0.1154
 4734TIP3    H138397   7.107   1.998   6.662 -0.3847 -0.0168 -0.1364
 4734TIP3    H238398   6.999   2.064   6.745 -0.0975 -0.4610  0.5998
 4735TIP3   OH238399   7.314   2.969   7.593  0.1123  0.8142  0.0352
 4735TIP3    H138400   7.375   2.989   7.522 -0.2952  1.9662 -0.0197
 4735TIP3    H238401   7.296   2.876   7.585  1.7192  0.4904 -0.0558
 4736TIP3   OH238402   0.854   2.286   7.761  0.8879 -0.3080  0.3788
 4736TIP3    H138403   0.868   2.373   7.799  0.2079  0.2306 -0.5644
 4736TIP3    H238404   0.865   2.225   7.834  0.4735  0.6341  1.2410
 4737TIP3   OH238405   3.472   6.953   8.659  0.5000 -0.1234  0.1534
 4737TIP3    H138406   3.451   7.042   8.631  0.8133  0.1682  0.8487
 4737TIP3    H238407   3.543   6.926   8.600  0.3471  0.0555 -0.1142
 4738TIP3   OH238408   5.229   2.642   7.122  0.5100  0.6634 -0.1194
 4738TIP3    H138409   5.252   2.549   7.120  0.8810  0.7736 -1.2775
 4738TIP3    H238410   5.159   2.647   7.188 -1.2194 -0.8349 -1.7157
 4739TIP3   OH238411   6.736   4.464   7.995  0.2793 -0.1097 -0.6470
 4739TIP3    H138412   6.726   4.537   7.934 -0.1297 -0.1110 -0.5835
 4739TIP3    H238413   6.700   4.389   7.947 -1.2276  0.1304  0.0729
 4740TIP3   OH238414   4.549   6.366   7.966  0.3050 -0.0260 -0.2528
 4740TIP3    H138415   4.522   6.388   7.876 -0.9902  1.5932  0.4816
 4740TIP3    H238416   4.639   6.336   7.957  0.5855  1.1714 -1.9868
 4741TIP3   OH238417   3.330   3.609   8.176 -0.2714 -0.2177  0.3162
 4741TIP3    H138418   3.425   3.599   8.169 -0.1532  0.7906  0.4154
 4741TIP3    H238419   3.307   3.675   8.111 -0.8907 -0.3686  0.3726
 4742TIP3   OH238420   4.134   3.837   7.806 -0.1184  0.1753  0.3139
 4742TIP3    H138421   4.156   3.893   7.731  0.6074 -0.7662 -0.1988
 4742TIP3    H238422   4.045   3.805   7.787 -0.6507  1.3294  0.7437
 4743TIP3   OH238423   6.853   2.732   8.852 -0.3049  0.4957 -0.2307
 4743TIP3    H138424   6.831   2.808   8.906 -1.0084 -0.2082  0.5174
 4743TIP3    H238425   6.942   2.747   8.822 -0.0734  1.1233  0.7583
 4744TIP3   OH238426   6.003   5.978   8.684  0.2061  0.0950  0.3240
 4744TIP3    H138427   6.076   5.975   8.621  1.7089  2.1828  1.8219
 4744TIP3    H238428   5.932   6.020   8.636  0.3587 -0.9353 -0.8328
 4745TIP3   OH238429   2.216   5.633   9.575  0.0277 -0.6955  0.3642
 4745TIP3    H138430   2.164   5.568   9.528  0.8025 -0.5788 -0.6994
 4745TIP3    H238431   2.153   5.697   9.606 -0.3581  0.7195 -2.8974
 4746TIP3   OH238432   1.105   0.984   8.473 -0.0792 -0.3827 -0.0067
 4746TIP3    H138433   1.015   1.016   8.471 -1.1111 -3.0770 -0.3138
 4746TIP3    H238434   1.144   1.027   8.550 -2.0661 -0.3074  1.0200
 4747TIP3   OH238435   2.461   4.823   7.516 -0.3774  0.1124  0.1700
 4747TIP3    H138436   2.482   4.865   7.600 -1.4476  1.8353 -0.3792
 4747TIP3    H238437   2.432   4.735   7.540  1.9630 -0.4373  1.3608
 4748TIP3   OH238438   1.542   0.411   9.501 -0.4315 -0.0353  0.2616
 4748TIP3    H138439   1.576   0.476   9.439  0.6051 -0.5419  0.2802
 4748TIP3    H238440   1.458   0.385   9.464 -0.6334  0.9405 -0.0079
 4749TIP3   OH238441   7.186   4.214   8.811  0.2445 -0.5603 -0.1167
 4749TIP3    H138442   7.153   4.136   8.768 -2.2873  0.9931 -1.2222
 4749TIP3    H238443   7.258   4.243   8.754  0.1860 -1.2354 -0.5456
 4750TIP3   OH238444   0.383   5.018   8.841  0.0801 -0.3739 -0.1596
 4750TIP3    H138445   0.342   5.051   8.761  0.8575 -0.7000 -0.7025
 4750TIP3    H238446   0.320   4.953   8.874  0.5932 -1.6718 -1.5776
 4751TIP3   OH238447   4.969   4.945   8.448  0.5393 -0.3319  0.0778
 4751TIP3    H138448   4.924   4.919   8.528 -1.1161  1.1824 -0.2869
 4751TIP3    H238449   4.931   4.889   8.380  0.6878 -0.4465  0.0904
 4752TIP3   OH238450   6.580   6.888   6.774 -0.2273  0.0703  0.1816
 4752TIP3    H138451   6.563   6.807   6.822  0.7607 -0.3791 -0.1978
 4752TIP3    H238452   6.544   6.957   6.829 -0.8783 -0.6051  0.6180
 4753TIP3   OH238453   1.730   6.994   7.568 -0.1664 -0.0268  0.2179
 4753TIP3    H138454   1.748   6.912   7.614 -1.1876  0.3387  1.3183
 4753TIP3    H238455   1.643   6.983   7.530  0.1795  0.1213 -0.6454
 4754TIP3   OH238456   2.845   3.542   8.099  0.0311  0.7422 -0.5033
 4754TIP3    H138457   2.865   3.607   8.032 -0.4119 -0.3197 -1.7069
 4754TIP3    H238458   2.761   3.570   8.136  0.0018  1.0328 -0.7879
 4755TIP3   OH238459   3.278   0.202   8.918 -0.7179 -0.1818 -0.3026
 4755TIP3    H138460   3.303   0.272   8.978 -0.2276 -1.4794  1.0918
 4755TIP3    H238461   3.357   0.186   8.866 -1.1597  0.9827 -1.3565
 4756TIP3   OH238462   5.296   2.003   9.375 -0.5164  0.5527 -0.1701
 4756TIP3    H138463   5.298   1.923   9.428 -0.9950 -0.1263 -1.1353
 4756TIP3    H238464   5.387   2.032   9.373 -0.4834  0.5594  0.9579
 4757TIP3   OH238465   2.656   5.686   8.112 -0.4615  0.5756 -0.1168
 4757TIP3    H138466   2.606   5.606   8.124  1.3621 -0.5318  0.3633
 4757TIP3    H238467   2.625   5.745   8.181 -1.0331 -0.1041  0.2093
 4758TIP3   OH238468   3.061   2.396   7.747 -0.1289  0.8677 -0.0094
 4758TIP3    H138469   3.132   2.362   7.693 -0.9496  0.8252 -1.0914
 4758TIP3    H238470   3.008   2.319   7.767  0.1530  0.8870  0.8630
 4759TIP3   OH238471   5.325   6.492   7.424  0.0381  0.1266 -0.0017
 4759TIP3    H138472   5.310   6.489   7.518  1.1115 -2.1839  0.1488
 4759TIP3    H238473   5.328   6.401   7.396  1.1329  0.7127 -2.0608
 4760TIP3   OH238474   3.826   6.247   8.828  0.1189  0.0539 -0.4405
 4760TIP3    H138475   3.772   6.242   8.749 -0.0010 -1.5292 -0.2881
 4760TIP3    H238476   3.790   6.321   8.877 -3.6041 -2.2732  0.7950
 4761TIP3   OH238477   0.306   6.582   9.264  0.0286  0.1857  0.2065
 4761TIP3    H138478   0.374   6.523   9.230 -0.8759 -1.4622  1.1332
 4761TIP3    H238479   0.337   6.607   9.351  1.2432  2.5686 -0.8235
 4762TIP3   OH238480   0.908   5.011   7.745  0.5346  0.1772 -0.7264
 4762TIP3    H138481   0.942   5.099   7.731 -1.9142  1.2247 -0.6448
 4762TIP3    H238482   0.854   4.994   7.668 -1.3610  0.0153  0.5664
 4763TIP3   OH238483   4.863   4.300   8.023  0.4305  0.2311  0.4669
 4763TIP3    H138484   4.932   4.355   7.987  0.3688 -0.0639 -0.1147
 4763TIP3    H238485   4.906   4.216   8.041  0.4845  0.4069  1.1854
 4764TIP3   OH238486   0.508   4.658   9.577 -0.0383  0.2579  0.1692
 4764TIP3    H138487   0.471   4.743   9.600  1.2270  0.6736  0.7757
 4764TIP3    H238488   0.600   4.665   9.602  0.0370 -1.3736  0.4395
 4765TIP3   OH238489   7.347   1.608   8.698 -0.1634 -0.5375  0.3377
 4765TIP3    H138490   7.347   1.597   8.603  1.8813  1.2056  0.0654
 4765TIP3    H238491   7.299   1.532   8.731 -0.2707 -1.5809 -2.0376
 4766TIP3   OH238492   3.547   5.532   8.240  0.3510 -0.0731 -0.7191
 4766TIP3    H138493   3.637   5.505   8.223  0.6965  1.0987 -0.7741
 4766TIP3    H238494   3.542   5.544   8.335  0.0776 -0.7014 -0.6443
 4767TIP3   OH238495   5.524   0.744   7.404  0.2506  0.5771 -0.4566
 4767TIP3    H138496   5.602   0.734   7.350  1.8986 -1.6114  2.0815
 4767TIP3    H238497   5.554   0.788   7.483 -1.4209  0.9662  0.0152
 4768TIP3   OH238498   2.451   4.556   7.887 -0.3329 -0.0251  0.1543
 4768TIP3    H138499   2.425   4.473   7.847 -1.4151  0.8041 -0.9459
 4768TIP3    H238500   2.408   4.557   7.972 -1.7465  0.1385 -0.5367
 4769TIP3   OH238501   7.616   6.173   9.338  0.0119  0.0247 -0.2189
 4769TIP3    H138502   7.592   6.247   9.282 -0.5650  0.2888  0.3536
 4769TIP3    H238503   7.538   6.158   9.392 -0.2905 -1.7292 -1.0684
 4770TIP3   OH238504   3.177   3.341   7.947  0.8166  0.4040 -0.1560
 4770TIP3    H138505   3.153   3.426   7.910  3.1483  1.3417  0.2546
 4770TIP3    H238506   3.120   3.278   7.903 -1.3276  2.2064 -0.0967
 4771TIP3   OH238507   1.403   7.231   8.369  0.1290  0.2308  0.0803
 4771TIP3    H138508   1.309   7.233   8.353  0.1522 -0.1702 -0.1179
 4771TIP3    H238509   1.431   7.146   8.335  0.4876  0.1528  0.5718
 4772TIP3   OH238510   3.828   7.289   7.953  0.0652  0.5124  0.0850
 4772TIP3    H138511   3.764   7.237   7.903  0.1937  0.2807  0.1618
 4772TIP3    H238512   3.846   7.236   8.031 -1.2949  1.5620  1.1618
 4773TIP3   OH238513   4.462   1.183   8.762  0.1814  0.8204 -0.0543
 4773TIP3    H138514   4.450   1.197   8.668 -0.0814  0.3893 -0.0909
 4773TIP3    H238515   4.540   1.128   8.768 -0.6151 -0.3634 -0.1232
 4774TIP3   OH238516   0.299   3.552   7.390  0.4608 -0.4334  0.0469
 4774TIP3    H138517   0.241   3.601   7.448 -2.1066 -0.4821 -2.2200
 4774TIP3    H238518   0.274   3.460   7.403  1.6902 -0.6967  0.6673
 4775TIP3   OH238519   5.918   4.985   8.792  0.3162 -0.5886 -0.0524
 4775TIP3    H138520   5.878   4.989   8.879 -0.4845  1.8204 -0.4848
 4775TIP3    H238521   5.863   4.924   8.743  0.6733 -1.8347  1.0293
 4776TIP3   OH238522   2.356   4.955   8.041  0.6160 -0.1258  0.1586
 4776TIP3    H138523   2.324   5.021   8.104  0.7059 -0.3791  0.4733
 4776TIP3    H238524   2.451   4.967   8.039  0.6460 -0.3235  0.3093
 4777TIP3   OH238525   7.546   3.237   9.163 -0.2837  0.1966  0.5865
 4777TIP3    H138526   7.534   3.145   9.184 -0.5485  0.0947  0.0101
 4777TIP3    H238527   7.465   3.263   9.121  0.9777 -0.2049 -2.3425
 4778TIP3   OH238528   6.893   0.000   7.202 -0.5251 -0.4056  0.2119
 4778TIP3    H138529   6.977   0.042   7.217 -0.7661 -0.2887  1.2915
 4778TIP3    H238530   6.836   0.071   7.172 -0.2964 -0.4521 -0.3507
 4779TIP3   OH238531   0.027   2.399   7.169  0.1202 -0.8060 -0.6413
 4779TIP3    H138532   0.115   2.421   7.200 -0.3766 -0.8752  0.8886
 4779TIP3    H238533   0.032   2.307   7.145 -0.1028 -1.5146  1.7816
 4780TIP3   OH238534   5.218   1.789   9.573  0.8942 -0.4409  0.3511
 4780TIP3    H138535   5.287   1.793   9.639  0.2349  2.3178  1.0428
 4780TIP3    H238536   5.138   1.768   9.622  0.4821  1.1392  0.4142
 4781TIP3   OH238537   0.807   5.106   8.635  0.0294  0.2284 -0.5539
 4781TIP3    H138538   0.800   5.047   8.710  1.1479 -0.2486 -0.8016
 4781TIP3    H238539   0.822   5.192   8.673 -2.5543  0.5927 -0.1555
 4782TIP3   OH238540   7.134   2.575   8.247 -0.1457  0.2285 -0.1046
 4782TIP3    H138541   7.178   2.545   8.326  1.5949 -1.1868 -1.5209
 4782TIP3    H238542   7.181   2.655   8.222 -0.6614  0.6462  0.2213
 4783TIP3   OH238543   6.342   5.176   9.030 -0.5136  0.1450  0.3236
 4783TIP3    H138544   6.414   5.154   9.089  0.0168  0.2268 -0.2906
 4783TIP3    H238545   6.266   5.187   9.088 -0.4927 -1.9154  0.7906
 4784TIP3   OH238546   6.319   7.223   9.413  0.0230  0.0358  0.4913
 4784TIP3    H138547   6.366   7.140   9.418 -0.6449 -0.4258 -0.5248
 4784TIP3    H238548   6.385   7.288   9.389  0.3901 -0.3548  0.4436
 4785TIP3   OH238549   4.356   7.401   7.521  1.1026  0.5813  0.1954
 4785TIP3    H138550   4.287   7.387   7.456  3.0648  0.3556 -1.9895
 4785TIP3    H238551   4.327   7.476   7.573 -1.7004 -0.8070  0.7873
 4786TIP3   OH238552   6.424   4.373   8.318 -0.4603 -0.0404 -0.1467
 4786TIP3    H138553   6.442   4.456   8.362  0.7137  0.0599 -0.8017
 4786TIP3    H238554   6.509   4.342   8.288 -0.8097 -1.6873  0.4293
 4787TIP3   OH238555   0.514   7.645   7.068  0.1839  0.5777  0.1036
 4787TIP3    H138556   0.508   7.669   6.976 -0.6926  0.2471  0.0645
 4787TIP3    H238557   0.546   7.555   7.068  2.4365  1.3049  0.2195
 4788TIP3   OH238558   2.642   3.954   7.588 -0.1927 -0.0256  0.5424
 4788TIP3    H138559   2.580   4.018   7.553  0.2617 -0.1269 -0.5050
 4788TIP3    H238560   2.699   3.933   7.513 -0.7569 -2.1649  0.6520
 4789TIP3   OH238561   1.588   6.490   9.368  0.0729  0.1642  0.2933
 4789TIP3    H138562   1.598   6.501   9.273 -1.9306 -0.7212 -0.0799
 4789TIP3    H238563   1.521   6.554   9.393  1.7558  1.5779  1.4825
 4790TIP3   OH238564   6.716   7.117   8.297 -0.4323 -0.2379  0.0047
 4790TIP3    H138565   6.726   7.211   8.280  1.8251 -0.8312 -2.5329
 4790TIP3    H238566   6.785   7.096   8.360  0.3784 -0.5012 -0.9460
 4791TIP3   OH238567   0.441   6.250   7.642 -0.4493 -0.2342  0.2327
 4791TIP3    H138568   0.413   6.208   7.560 -1.7150 -1.0989  1.0733
 4791TIP3    H238569   0.510   6.193   7.676 -0.7958 -0.5602  0.3907
 4792TIP3   OH238570   3.309   4.616   8.890 -0.4572  0.2581 -0.1644
 4792TIP3    H138571   3.309   4.546   8.955 -2.0612  0.3364 -0.0376
 4792TIP3    H238572   3.266   4.690   8.933  0.4122  1.0513 -0.5976
 4793TIP3   OH238573   0.638   4.429   8.392  0.0117 -0.5059  0.1788
 4793TIP3    H138574   0.592   4.440   8.475 -3.1335  0.9104 -1.5786
 4793TIP3    H238575   0.596   4.354   8.351 -0.8260  0.8222 -1.4879
 4794TIP3   OH238576   5.174   4.754   9.040 -0.2372 -0.2481 -0.5458
 4794TIP3    H138577   5.168   4.833   8.987 -2.2001  0.5877  0.7821
 4794TIP3    H238578   5.085   4.742   9.075  1.0960 -0.0705  3.4120
 4795TIP3   OH238579   2.778   5.178   7.908 -0.3283 -0.2795 -0.3234
 4795TIP3    H138580   2.813   5.267   7.908 -0.9072 -0.0479  0.0433
 4795TIP3    H238581   2.849   5.125   7.945 -0.5345  0.2634  0.9006
 4796TIP3   OH238582   2.669   3.279   6.967 -0.2431 -0.1385  0.1235
 4796TIP3    H138583   2.627   3.195   6.983 -0.7017  0.0740  0.0556
 4796TIP3    H238584   2.738   3.260   6.904 -0.7506 -0.3593 -0.3702
 4797TIP3   OH238585   5.313   2.562   9.067 -0.3282 -0.0145  0.0584
 4797TIP3    H138586   5.273   2.542   8.983  1.6000 -1.0028 -0.6947
 4797TIP3    H238587   5.287   2.652   9.086  0.4903  0.8120 -2.4159
 4798TIP3   OH238588   3.897   2.979   7.805 -0.3367  0.0393  0.2803
 4798TIP3    H138589   3.851   2.902   7.841  0.0562 -0.6900 -0.7103
 4798TIP3    H238590   3.835   3.051   7.815 -1.0954 -0.6125  0.3764
 4799TIP3   OH238591   4.039   6.803   9.102  0.0712 -0.2641  0.4846
 4799TIP3    H138592   4.011   6.743   9.172 -0.1105 -1.9503 -0.9626
 4799TIP3    H238593   4.133   6.789   9.094 -0.2090 -1.6622 -0.9488
 4800TIP3   OH238594   0.687   5.238   7.364 -0.4289  0.2010  0.1725
 4800TIP3    H138595   0.663   5.322   7.404  0.2567 -0.1914  1.4397
 4800TIP3    H238596   0.770   5.255   7.321  0.3385 -0.1070  1.4762
 4801TIP3   OH238597   4.985   2.883   7.582 -0.2269 -0.2960 -0.1974
 4801TIP3    H138598   5.010   2.946   7.649  0.0112 -1.9432  1.3457
 4801TIP3    H238599   4.907   2.840   7.617 -0.2978 -0.9654 -1.1321
 4802TIP3   OH238600   0.991   6.861   7.325 -0.1979  0.1991  0.0771
 4802TIP3    H138601   0.955   6.901   7.404 -1.1268  0.3279 -0.3965
 4802TIP3    H238602   1.043   6.931   7.285 -1.7460  0.9571 -0.7058
 4803TIP3   OH238603   2.420   2.452   7.718  0.3002  0.2788 -0.1666
 4803TIP3    H138604   2.406   2.526   7.659 -0.2984 -0.4502 -0.9741
 4803TIP3    H238605   2.394   2.376   7.667  0.7574 -0.4812  0.7003
 4804TIP3   OH238606   2.759   6.488   8.721  0.4666 -0.4976 -0.7210
 4804TIP3    H138607   2.690   6.424   8.702  0.2153 -0.5774  0.3822
 4804TIP3    H238608   2.839   6.436   8.727  0.1506 -0.8488  0.9065
 4805TIP3   OH238609   3.397   4.348   7.759 -0.4219  0.5021  0.0842
 4805TIP3    H138610   3.413   4.434   7.721  3.2345 -0.7957 -1.8037
 4805TIP3    H238611   3.479   4.324   7.801 -1.4838 -1.8806  1.0016
 4806TIP3   OH238612   1.385   6.422   7.409 -0.4312  0.3445 -0.1634
 4806TIP3    H138613   1.338   6.371   7.474 -1.4070 -1.0249 -1.8637
 4806TIP3    H238614   1.320   6.441   7.341  1.7488 -3.7751 -3.8728
 4807TIP3   OH238615   6.138   4.526   6.723 -0.1050  0.0680  0.0400
 4807TIP3    H138616   6.056   4.573   6.737  0.4073  1.3404 -1.0502
 4807TIP3    H238617   6.112   4.434   6.714 -1.5253  0.5505 -1.1277
 4808TIP3   OH238618   7.605   5.325   8.697 -0.2206  0.0009 -0.2577
 4808TIP3    H138619   7.609   5.421   8.705  1.4999  0.0330 -0.9717
 4808TIP3    H238620   7.587   5.309   8.605  2.2108 -0.3089 -0.7526
 4809TIP3   OH238621   0.349   4.330   9.039 -0.2073  0.3606 -0.2021
 4809TIP3    H138622   0.373   4.247   8.999 -0.7181  0.6070 -1.0504
 4809TIP3    H238623   0.255   4.339   9.024 -0.1674  1.0758 -0.1058
 4810TIP3   OH238624   4.834   3.160   7.704 -0.1363  0.4623  0.3641
 4810TIP3    H138625   4.784   3.145   7.784  0.3760  1.0678  0.8129
 4810TIP3    H238626   4.915   3.110   7.716 -0.6210 -0.5038 -0.3519
 4811TIP3   OH238627   2.737   5.806   8.609 -0.0624 -0.7391  0.0458
 4811TIP3    H138628   2.829   5.794   8.632 -0.3730 -1.6145  0.8668
 4811TIP3    H238629   2.699   5.719   8.616 -0.8403 -0.4845 -0.8417
 4812TIP3   OH238630   7.040   6.135   8.684  0.0760 -0.1425 -0.1434
 4812TIP3    H138631   6.963   6.143   8.740  1.2213  1.2288  1.3189
 4812TIP3    H238632   7.042   6.042   8.659 -2.3568 -0.1015 -0.7418
 4813TIP3   OH238633   6.798   0.080   8.531 -0.1083  0.4877  0.3845
 4813TIP3    H138634   6.812   0.028   8.610 -1.3727  1.6398  1.4190
 4813TIP3    H238635   6.705   0.066   8.510 -1.3229  4.3030  2.3135
 4814TIP3   OH238636   2.026   7.635   7.933 -0.1622  0.3563 -0.2603
 4814TIP3    H138637   2.046   7.614   7.842  1.4475 -1.6236  0.4940
 4814TIP3    H238638   2.109   7.668   7.969 -0.9457  1.7537  0.3617
 4815TIP3   OH238639   0.368   5.057   7.918 -0.2822 -0.9860  0.5829
 4815TIP3    H138640   0.345   5.089   8.005  1.7220  0.1109  0.7710
 4815TIP3    H238641   0.304   5.096   7.859 -1.9860 -2.1748  1.5807
 4816TIP3   OH238642   1.959   6.488   8.703 -0.3675 -0.2188 -0.3118
 4816TIP3    H138643   1.935   6.397   8.687 -2.2233  0.3216 -0.9215
 4816TIP3    H238644   2.051   6.485   8.731 -0.2083 -2.1942 -0.9233
 4817TIP3   OH238645   2.725   4.465   7.861  0.0223 -0.0632 -0.5763
 4817TIP3    H138646   2.723   4.560   7.848 -0.6702 -0.0977 -0.7721
 4817TIP3    H238647   2.642   4.446   7.904  0.7815 -0.3924  0.8097
 4818TIP3   OH238648   6.845   2.768   9.295 -0.4333  0.6467  0.1359
 4818TIP3    H138649   6.778   2.744   9.231 -0.1190  1.6258 -0.5751
 4818TIP3    H238650   6.796   2.788   9.375 -0.9167  0.4537 -0.1094
 4819TIP3   OH238651   6.720   5.254   9.365  0.0206  0.1580 -0.3033
 4819TIP3    H138652   6.795   5.314   9.365  0.2338 -0.1113 -0.8384
 4819TIP3    H238653   6.733   5.200   9.443  0.1196  0.4418 -0.1206
 4820TIP3   OH238654   5.727   2.053   8.957  0.2724 -0.0562  0.0571
 4820TIP3    H138655   5.752   2.014   8.873  0.7057 -0.6687  0.4570
 4820TIP3    H238656   5.782   2.007   9.021 -1.1700 -0.7430  0.8513
 4821TIP3   OH238657   6.767   0.213   7.102  0.1099  0.3266  0.5386
 4821TIP3    H138658   6.711   0.192   7.028  0.4837 -0.8242  0.5631
 4821TIP3    H238659   6.819   0.289   7.073 -0.7651  0.7986  0.1742
 4822TIP3   OH238660   2.999   2.908   9.288  0.1487 -0.1736 -0.1430
 4822TIP3    H138661   3.074   2.852   9.267  0.6099  0.1625  0.5745
 4822TIP3    H238662   3.023   2.951   9.370 -0.7968  0.0033  0.0541
 4823TIP3   OH238663   1.496   1.648   8.665 -0.5732  0.3270  0.7770
 4823TIP3    H138664   1.508   1.569   8.718  0.3418  1.1995  1.9186
 4823TIP3    H238665   1.470   1.615   8.579 -2.6008 -1.1190  1.8497
 4824TIP3   OH238666   3.368   6.730   8.144 -0.4304  0.0161  0.4747
 4824TIP3    H138667   3.422   6.658   8.112 -0.4669 -0.8424  2.2161
 4824TIP3    H238668   3.344   6.778   8.066 -2.0416 -2.9694 -1.0456
 4825TIP3   OH238669   1.234   2.287   8.101  0.1759  0.0579  0.5523
 4825TIP3    H138670   1.320   2.297   8.059 -0.2269 -0.9194 -0.5547
 4825TIP3    H238671   1.171   2.311   8.033 -0.4653 -0.3546  0.9878
 4826TIP3   OH238672   7.079   5.617   8.668 -0.3187  0.3367  0.2537
 4826TIP3    H138673   6.985   5.633   8.670 -0.5243 -0.5709 -0.7809
 4826TIP3    H238674   7.116   5.697   8.630 -0.6961  0.5945  0.4236
 4827TIP3   OH238675   3.012   3.248   8.900  0.1713  0.0515  0.3177
 4827TIP3    H138676   3.039   3.324   8.950  1.1024  0.6143 -0.9939
 4827TIP3    H238677   2.996   3.180   8.966 -1.6474  1.6249  1.5777
 4828TIP3   OH238678   6.845   6.490   9.203  0.0713 -0.5720 -0.6332
 4828TIP3    H138679   6.886   6.416   9.248 -0.3991  0.2907  1.3457
 4828TIP3    H238680   6.762   6.456   9.172  0.4333 -1.2164 -0.9189
 4829TIP3   OH238681   7.168   3.690   8.992 -0.1877 -0.5058  0.4430
 4829TIP3    H138682   7.143   3.627   9.059  1.1974 -1.0479  0.4839
 4829TIP3    H238683   7.140   3.649   8.910 -0.3330 -0.6271  0.5518
 4830TIP3   OH238684   7.313   7.167   7.420 -0.0124 -0.2488  0.3110
 4830TIP3    H138685   7.223   7.142   7.400 -0.4885  1.4219  0.2149
 4830TIP3    H238686   7.366   7.116   7.359 -1.0348  0.2190 -1.0181
 4831TIP3   OH238687   0.208   7.303   9.643  0.0180  0.1335  0.3355
 4831TIP3    H138688   0.204   7.386   9.596 -0.2499 -0.5714 -0.9315
 4831TIP3    H238689   0.135   7.251   9.608  0.3730 -0.7520  0.8619
 4832TIP3   OH238690   3.061   1.981   7.785 -0.0772  0.6399  0.2747
 4832TIP3    H138691   3.054   1.893   7.822  1.5279  0.3942  0.0697
 4832TIP3    H238692   3.058   2.039   7.861 -1.2221  0.4330  0.4048
 4833TIP3   OH238693   6.971   2.206   9.004 -0.4339 -0.1513 -0.0075
 4833TIP3    H138694   7.033   2.188   8.934  0.8029  0.7132  0.8210
 4833TIP3    H238695   6.922   2.125   9.015  1.4696 -1.3380  0.2056
 4834TIP3   OH238696   7.330   4.422   7.647  0.4438  0.0143 -0.6110
 4834TIP3    H138697   7.379   4.363   7.705  0.0724  0.7978  0.5501
 4834TIP3    H238698   7.266   4.463   7.705 -0.1837  0.5634 -1.6776
 4835TIP3   OH238699   0.607   7.389   7.055  0.4235 -0.6846  0.1593
 4835TIP3    H138700   0.664   7.317   7.028  1.4293  0.5943 -1.2860
 4835TIP3    H238701   0.531   7.346   7.093 -0.1203 -2.6612 -2.7861
 4836TIP3   OH238702   4.324   0.778   8.569  0.2111 -0.3365 -0.4955
 4836TIP3    H138703   4.406   0.752   8.529 -0.1515 -2.7148  0.1366
 4836TIP3    H238704   4.294   0.700   8.615 -1.0224  1.2773  1.6523
 4837TIP3   OH238705   0.441   0.492   7.885  0.4219 -0.3729  0.0284
 4837TIP3    H138706   0.476   0.579   7.907  1.6982 -0.3992 -1.6358
 4837TIP3    H238707   0.411   0.456   7.968  0.4669  1.3980  0.8674
 4838TIP3   OH238708   1.801   5.007   9.407 -0.2080 -0.6608 -0.2096
 4838TIP3    H138709   1.843   4.952   9.341  0.3353 -1.7411  1.0023
 4838TIP3    H238710   1.869   5.024   9.472 -1.2386 -1.3646  1.1223
 4839TIP3   OH238711   3.454   6.824   7.722  0.0700 -0.0727  0.7806
 4839TIP3    H138712   3.442   6.900   7.665 -0.3681 -0.7861 -0.1086
 4839TIP3    H238713   3.547   6.827   7.746  0.3579  0.0304 -0.2950
 4840TIP3   OH238714   0.757   5.992   8.941  0.3956 -0.3617  0.5797
 4840TIP3    H138715   0.759   5.900   8.965 -0.8168 -0.3778  0.6493
 4840TIP3    H238716   0.849   6.017   8.934  0.8249 -2.3566 -2.5019
 4841TIP3   OH238717   4.763   1.329   7.662  0.3235 -0.1718 -0.1694
 4841TIP3    H138718   4.804   1.353   7.578  2.4830  1.5378  1.2726
 4841TIP3    H238719   4.670   1.327   7.642  0.8314 -1.7344 -3.0506
 4842TIP3   OH238720   6.945   4.260   7.813 -0.6971 -0.6241  0.1021
 4842TIP3    H138721   6.963   4.266   7.907  0.8042 -1.0036 -0.1307
 4842TIP3    H238722   6.930   4.350   7.785  1.8893 -0.1139  0.1760
 4843TIP3   OH238723   3.226   5.837   7.080  0.0253 -0.2485 -0.5867
 4843TIP3    H138724   3.253   5.928   7.091  0.9284 -0.5503 -0.1181
 4843TIP3    H238725   3.153   5.840   7.019 -0.6000  0.8776  0.1866
 4844TIP3   OH238726   0.140   1.867   8.649  0.1020  0.7405  0.2759
 4844TIP3    H138727   0.163   1.952   8.611  0.3442  0.7684  0.4850
 4844TIP3    H238728   0.119   1.812   8.574 -0.2226  1.0320  0.1481
 4845TIP3   OH238729   0.306   1.075   9.143 -0.4032  0.0619  0.2996
 4845TIP3    H138730   0.258   1.057   9.063  1.9890 -0.7883 -1.0636
 4845TIP3    H238731   0.361   1.150   9.121  0.8932 -0.6938  0.8184
 4846TIP3   OH238732   4.036   0.299   7.452 -0.1022  0.2820 -0.1553
 4846TIP3    H138733   4.019   0.329   7.541  0.9310 -1.4403  0.6714
 4846TIP3    H238734   3.998   0.367   7.396  2.3959  3.3395  1.5351
 4847TIP3   OH238735   6.554   4.366   9.242 -0.1211  0.0022 -0.2703
 4847TIP3    H138736   6.620   4.301   9.268 -0.0480  0.3035  0.3088
 4847TIP3    H238737   6.569   4.379   9.148  0.2631 -0.3648 -0.2618
 4848TIP3   OH238738   3.407   3.293   9.215 -0.2794 -0.0219 -0.3267
 4848TIP3    H138739   3.478   3.353   9.237 -0.6548  0.2977  0.0353
 4848TIP3    H238740   3.404   3.293   9.119  0.6292 -0.5442 -0.3710
 4849TIP3   OH238741   7.568   0.719   9.319  0.2066  0.2215  0.7614
 4849TIP3    H138742   7.629   0.761   9.380 -1.6026  0.9219  2.2059
 4849TIP3    H238743   7.481   0.748   9.349 -0.8423 -0.6756 -1.2305
 4850TIP3   OH238744   7.307   6.550   9.251 -0.2384  0.1556  0.1499
 4850TIP3    H138745   7.394   6.512   9.259 -0.3769  0.2241  4.0395
 4850TIP3    H238746   7.247   6.475   9.260 -0.4953  0.4774  1.4469
 4851TIP3   OH238747   0.506   4.108   8.974 -0.2309  0.1402  0.3877
 4851TIP3    H138748   0.551   4.025   8.991 -2.1335 -1.1678 -0.5711
 4851TIP3    H238749   0.505   4.115   8.878  0.9061  1.9126  0.4564
 4852TIP3   OH238750   2.400   4.877   7.256  0.3838  0.0879  0.1164
 4852TIP3    H138751   2.428   4.831   7.335  1.5883  1.1829  0.3724
 4852TIP3    H238752   2.333   4.821   7.218  1.6691 -1.8137  0.4815
 4853TIP3   OH238753   5.204   3.163   7.459  0.2060  0.6699  0.3530
 4853TIP3    H138754   5.263   3.141   7.532 -0.0203 -0.8822  0.0868
 4853TIP3    H238755   5.196   3.082   7.409 -2.0959  0.8594  0.3296
 4854TIP3   OH238756   3.819   4.999   7.891 -0.0220  0.3110  0.5277
 4854TIP3    H138757   3.911   5.015   7.914  0.6150 -0.1605 -1.4525
 4854TIP3    H238758   3.803   5.061   7.819 -0.8035 -0.5826 -0.0803
 4855TIP3   OH238759   1.609   0.316   8.593  0.3153  0.3700  0.1584
 4855TIP3    H138760   1.521   0.312   8.631 -0.0128  1.1432 -0.4816
 4855TIP3    H238761   1.663   0.261   8.650 -0.3358  0.8247  1.2344
 4856TIP3   OH238762   1.899   3.615   7.604 -0.2315 -0.2973  0.7808
 4856TIP3    H138763   1.946   3.547   7.654 -0.8950 -0.0809  1.7159
 4856TIP3    H238764   1.913   3.590   7.513  2.5802  0.3349  0.9495
 4857TIP3   OH238765   1.094   6.990   9.708 -1.0765 -0.3033  0.1367
 4857TIP3    H138766   1.179   7.015   9.745 -0.6932  0.3579 -1.1480
 4857TIP3    H238767   1.094   7.027   9.620 -2.9728  0.2438  0.3258
 4858TIP3   OH238768   6.911   7.144   6.699  0.0793 -0.0448 -0.2732
 4858TIP3    H138769   6.877   7.075   6.642 -2.1449  0.0381  0.8467
 4858TIP3    H238770   6.852   7.218   6.684 -1.1895 -0.3282  2.7216
 4859TIP3   OH238771   2.437   5.111   7.463  0.0261  0.0067  0.4047
 4859TIP3    H138772   2.461   5.027   7.424  0.1694 -0.9819  2.4875
 4859TIP3    H238773   2.518   5.141   7.505 -0.1856  0.8965  0.1896
 4860TIP3   OH238774   3.821   2.022   7.116  1.0123 -0.1840 -0.1502
 4860TIP3    H138775   3.910   1.994   7.137  0.3858 -3.9359 -1.6197
 4860TIP3    H238776   3.789   1.955   7.055 -2.4154  1.6690 -0.6226
 4861TIP3   OH238777   7.221   3.687   9.650  0.6285  0.4145 -0.0754
 4861TIP3    H138778   7.165   3.684   9.727 -0.4069 -0.5822 -0.8186
 4861TIP3    H238779   7.193   3.765   9.603  0.9365  0.7645  0.3188
 4862TIP3   OH238780   5.989   0.562   7.512  0.4397 -0.3040  0.1899
 4862TIP3    H138781   5.943   0.582   7.431 -0.4903  0.2945  0.8461
 4862TIP3    H238782   5.921   0.538   7.574  1.2737 -2.5847  0.3257
 4863TIP3   OH238783   4.485   4.418   8.254 -0.2113 -0.8905 -0.7528
 4863TIP3    H138784   4.395   4.442   8.235 -0.2400  2.1185  2.1588
 4863TIP3    H238785   4.478   4.339   8.309 -1.1298 -0.3885 -0.1327
 4864TIP3   OH238786   4.318   7.552   7.254  0.0671 -0.4461  0.2544
 4864TIP3    H138787   4.367   7.616   7.306  2.0407 -0.2496 -1.7132
 4864TIP3    H238788   4.356   7.558   7.167 -1.5902 -2.3649 -0.6681
 4865TIP3   OH238789   2.403   6.420   7.828  0.5430 -0.3018 -0.4487
 4865TIP3    H138790   2.446   6.376   7.902 -1.0838  0.1521  0.8434
 4865TIP3    H238791   2.320   6.373   7.818  0.7725 -0.4267 -2.1056
 4866TIP3   OH238792   7.105   3.438   7.191 -0.1857 -0.3903  0.1811
 4866TIP3    H138793   7.067   3.486   7.264  0.0823 -1.4449  1.0409
 4866TIP3    H238794   7.029   3.408   7.140 -0.3735  0.3152  0.0320
 4867TIP3   OH238795   3.964   4.294   8.816  0.3573  0.2915  0.2460
 4867TIP3    H138796   3.906   4.218   8.826  1.6191 -0.6409  0.6355
 4867TIP3    H238797   4.017   4.295   8.896  0.3605  1.5948  0.2454
 4868TIP3   OH238798   7.483   6.525   7.253  0.1284 -0.3262 -0.1128
 4868TIP3    H138799   7.552   6.459   7.244  1.0465  0.7902 -1.9929
 4868TIP3    H238800   7.530   6.606   7.274 -0.8236  0.0456  0.6445
 4869TIP3   OH238801   1.333   5.293   7.987  0.3396 -0.1289  0.1157
 4869TIP3    H138802   1.270   5.359   8.015  0.6479  1.1142 -1.8609
 4869TIP3    H238803   1.374   5.262   8.068 -1.2514  0.6206  1.2529
 4870TIP3   OH238804   6.610   4.559   9.415 -0.2644  0.0806 -0.1885
 4870TIP3    H138805   6.597   4.480   9.362  1.5622  0.7276 -1.6878
 4870TIP3    H238806   6.697   4.549   9.452 -0.6913  0.6384  1.0067
 4871TIP3   OH238807   7.512   0.699   8.286 -0.3441 -0.8206  0.0315
 4871TIP3    H138808   7.575   0.769   8.269 -1.9945  0.3652 -1.5075
 4871TIP3    H238809   7.508   0.693   8.382  0.4967  0.5529  0.1729
 4872TIP3   OH238810   6.407   2.917   8.756  0.1265 -0.1728  0.7281
 4872TIP3    H138811   6.364   2.935   8.672 -0.3371  1.3358  1.2551
 4872TIP3    H238812   6.334   2.897   8.816  0.4188 -0.7855  0.8854
 4873TIP3   OH238813   3.278   1.145   8.965  0.2469  0.0826  0.0116
 4873TIP3    H138814   3.311   1.229   8.935  1.0348 -0.5840 -1.0604
 4873TIP3    H238815   3.338   1.080   8.928  0.0526 -0.9213  1.3589
 4874TIP3   OH238816   6.977   7.383   7.321  0.2547 -0.2166  0.1500
 4874TIP3    H138817   6.997   7.303   7.370  0.6563 -0.1863  0.0336
 4874TIP3    H238818   6.930   7.438   7.384 -0.2720 -0.6543  0.1476
 4875TIP3   OH238819   6.559   3.947   7.825  0.2494  0.1732 -0.0615
 4875TIP3    H138820   6.555   3.851   7.822 -0.9988  0.2061  0.1480
 4875TIP3    H238821   6.496   3.971   7.893  2.1625  1.0582  1.4916
 4876TIP3   OH238822   1.866   0.038   7.583  0.2081 -0.6915  0.7116
 4876TIP3    H138823   1.839   0.050   7.492 -0.6518  0.9075  1.1344
 4876TIP3    H238824   1.953  -0.003   7.578  0.2217 -0.5176 -0.8167
 4877TIP3   OH238825   0.712   0.208   8.356 -0.0631 -0.0140 -0.5844
 4877TIP3    H138826   0.797   0.217   8.399  0.3542  0.9420 -1.5415
 4877TIP3    H238827   0.661   0.151   8.413  1.0272 -0.1307  0.2976
 4878TIP3   OH238828   6.700   1.482   8.949  0.4632 -0.3174 -0.1568
 4878TIP3    H138829   6.649   1.444   9.021  0.5730  0.3935  0.3093
 4878TIP3    H238830   6.789   1.488   8.983  0.5141  0.0327 -0.3457
 4879TIP3   OH238831   5.418   0.048   8.936 -0.3770 -0.7286  0.2126
 4879TIP3    H138832   5.447   0.051   9.027  3.3808  1.1672 -0.8353
 4879TIP3    H238833   5.430  -0.043   8.909 -1.7915 -1.3694  1.5912
 4880TIP3   OH238834   5.047   4.654   8.798 -0.7527 -0.0927 -0.3614
 4880TIP3    H138835   5.132   4.669   8.839 -0.9798 -1.0383  0.5073
 4880TIP3    H238836   4.997   4.733   8.815 -0.8443 -0.4726  1.2396
 4881TIP3   OH238837   5.646   2.331   9.113 -0.0796  0.4941 -0.1796
 4881TIP3    H138838   5.569   2.277   9.132 -0.6955  1.5992  0.5561
 4881TIP3    H238839   5.717   2.268   9.105 -0.8902 -0.4824  0.0363
 4882TIP3   OH238840   3.204   2.174   7.209  0.2711  0.5089 -0.1465
 4882TIP3    H138841   3.269   2.224   7.259 -0.1489 -0.8750  1.9114
 4882TIP3    H238842   3.215   2.205   7.119  2.9531  1.1647  0.3026
 4883TIP3   OH238843   5.787   1.215   8.134  0.1671  0.0806  0.0287
 4883TIP3    H138844   5.746   1.130   8.118  1.0462 -0.2138 -0.7185
 4883TIP3    H238845   5.738   1.251   8.209 -1.6677 -0.1072 -1.0153
 4884TIP3   OH238846   2.656   3.859   8.337  0.1221  0.3362  0.1496
 4884TIP3    H138847   2.567   3.883   8.313 -0.8325 -1.9443  1.0822
 4884TIP3    H238848   2.692   3.819   8.258  0.0674  0.6187 -0.0186
 4885TIP3   OH238849   7.215   1.911   7.731  0.3419  0.6722 -0.2037
 4885TIP3    H138850   7.157   1.984   7.752  0.6428  0.6722  0.6814
 4885TIP3    H238851   7.215   1.907   7.636 -0.7456  0.9611 -0.2341
 4886TIP3   OH238852   2.614   5.565   8.712  0.4928 -0.4666 -1.0299
 4886TIP3    H138853   2.543   5.554   8.649 -0.2064  0.4608 -0.4259
 4886TIP3    H238854   2.644   5.475   8.729 -1.7418 -1.0880  0.0381
 4887TIP3   OH238855   4.022   6.289   7.017 -0.7200  0.0845  0.1512
 4887TIP3    H138856   4.082   6.354   6.978  0.6170 -0.2387  1.5555
 4887TIP3    H238857   3.967   6.261   6.944 -0.1321  1.4792 -0.8866
 4888TIP3   OH238858   4.240   5.822   7.805  0.0051  0.2039  0.4626
 4888TIP3    H138859   4.296   5.745   7.811 -0.4931 -0.2742 -0.8449
 4888TIP3    H238860   4.224   5.846   7.897  2.6003  0.5813  0.8985
 4889TIP3   OH238861   2.982   6.935   8.007  0.4453 -0.5671 -0.7460
 4889TIP3    H138862   2.992   6.887   7.924 -0.1326  1.0922 -1.8380
 4889TIP3    H238863   2.971   7.026   7.980 -1.0291 -0.1364  1.1013
 4890TIP3   OH238864   5.500   0.176   7.018  0.1782  0.5181 -0.0095
 4890TIP3    H138865   5.499   0.200   7.111 -2.2950  0.0269  0.1443
 4890TIP3    H238866   5.423   0.121   7.006  1.0511 -0.3516 -2.1530
 4891TIP3   OH238867   6.659   5.334   8.837 -0.2454  1.1993  0.0672
 4891TIP3    H138868   6.639   5.418   8.877  0.5760  2.2590 -1.6106
 4891TIP3    H238869   6.575   5.305   8.799 -0.9837  0.2695  2.2298
 4892TIP3   OH238870   4.466   5.486   8.775  0.2043  0.3058 -0.0728
 4892TIP3    H138871   4.503   5.478   8.687 -0.8980 -0.4634 -0.5014
 4892TIP3    H238872   4.455   5.396   8.805  0.7950  0.5658  0.9659
 4893TIP3   OH238873   3.315   0.839   8.562  0.2910 -0.0024 -0.8042
 4893TIP3    H138874   3.287   0.814   8.474 -0.5452  0.9721 -0.8437
 4893TIP3    H238875   3.295   0.933   8.567  2.2474  0.4403 -0.2977
 4894TIP3   OH238876   7.566   0.356   8.142  0.0175  0.0428  0.2430
 4894TIP3    H138877   7.488   0.347   8.087  1.3904 -0.9290 -1.6784
 4894TIP3    H238878   7.616   0.275   8.127  1.6049  0.8194  1.0392
 4895TIP3   OH238879   0.861   4.911   9.233 -0.4423 -0.3527 -0.1474
 4895TIP3    H138880   0.861   4.901   9.137 -0.9739  1.5507 -0.3938
 4895TIP3    H238881   0.953   4.898   9.258  0.2796  1.8308 -1.3133
 4896TIP3   OH238882   3.406   5.224   8.612 -0.5131  0.1267 -0.4049
 4896TIP3    H138883   3.426   5.213   8.519  1.0058  1.0180 -0.2132
 4896TIP3    H238884   3.445   5.308   8.635 -0.3061 -0.3803  1.1980
 4897TIP3   OH238885   0.718   4.247   7.291  0.5751 -0.2288  0.1992
 4897TIP3    H138886   0.781   4.229   7.361  1.9570 -2.3256 -1.4520
 4897TIP3    H238887   0.771   4.248   7.211 -1.0925  1.1092 -0.9618
 4898TIP3   OH238888   5.771   3.054   7.324 -0.1910 -0.5100  0.7105
 4898TIP3    H138889   5.743   2.966   7.300 -0.6494 -0.3516  0.6475
 4898TIP3    H238890   5.764   3.105   7.243 -1.3259 -0.0789  1.0622
 4899TIP3   OH238891   7.321   3.489   6.996  0.0685  0.0214 -0.3121
 4899TIP3    H138892   7.234   3.494   7.035  0.6424  0.2409  1.0188
 4899TIP3    H238893   7.380   3.517   7.066  1.0852  1.7539 -1.7606
 4900TIP3   OH238894   1.184   1.512   7.484 -1.1509  0.0192 -0.0216
 4900TIP3    H138895   1.225   1.588   7.442  0.2486 -0.9793 -0.5555
 4900TIP3    H238896   1.102   1.500   7.436 -0.9675  0.6658 -0.5199
 4901TIP3   OH238897   5.367   2.393   9.275  0.1232  0.0284  0.6120
 4901TIP3    H138898   5.336   2.467   9.222 -0.2662  0.6317  1.6404
 4901TIP3    H238899   5.289   2.359   9.317  0.2446 -1.2479 -0.1504
 4902TIP3   OH238900   7.114   6.200   9.431 -0.2756  0.7292  0.1248
 4902TIP3    H138901   7.132   6.125   9.375  0.1990  1.0069 -0.0943
 4902TIP3    H238902   7.071   6.162   9.509  1.9229 -0.0407  1.0310
 4903TIP3   OH238903   0.171   0.285   8.577 -0.3647 -0.4135  0.2109
 4903TIP3    H138904   0.238   0.256   8.637 -0.3185 -1.9382 -0.5246
 4903TIP3    H238905   0.110   0.211   8.570 -1.0501  0.1938 -0.6356
 4904TIP3   OH238906   0.512   4.660   8.790  0.3309  0.0500 -0.1377
 4904TIP3    H138907   0.469   4.720   8.851  1.4379 -0.2196  0.9398
 4904TIP3    H238908   0.537   4.716   8.716  1.2035  0.9021  0.7784
 4905TIP3   OH238909   7.595   4.909   8.248  0.4354  0.3257  0.0255
 4905TIP3    H138910   7.563   4.857   8.175 -0.1319  1.0896 -0.2783
 4905TIP3    H238911   7.628   4.844   8.311 -0.2286 -0.3920 -0.3549
 4906TIP3   OH238912   2.267   5.506   7.368  0.2138 -0.0921  0.0688
 4906TIP3    H138913   2.223   5.588   7.392 -0.6514 -0.2941 -0.7578
 4906TIP3    H238914   2.319   5.528   7.291  0.6620 -0.1300  0.3545
 4907TIP3   OH238915   7.456   7.311   9.445  0.0911 -0.3005 -0.2088
 4907TIP3    H138916   7.494   7.305   9.533 -1.8559  0.3124  0.7296
 4907TIP3    H238917   7.464   7.222   9.409  0.3899 -0.6933  0.8017
 4908TIP3   OH238918   2.916   5.277   8.905  0.4944 -0.0001 -0.5393
 4908TIP3    H138919   2.962   5.210   8.955  0.3081 -0.5190 -1.0617
 4908TIP3    H238920   2.979   5.304   8.838  0.8481  0.8959  0.1177
 4909TIP3   OH238921   6.461   0.613   7.751 -0.5759 -0.3265  0.1067
 4909TIP3    H138922   6.503   0.634   7.834 -1.1996 -2.4142  1.0040
 4909TIP3    H238923   6.370   0.594   7.774 -1.0900  0.3821 -1.2587
 4910TIP3   OH238924   6.889   6.318   8.250 -0.4069 -0.2136  0.0560
 4910TIP3    H138925   6.938   6.358   8.322 -0.5244 -0.4528  0.2719
 4910TIP3    H238926   6.798   6.345   8.265 -0.0741  1.9626 -1.5123
 4911TIP3   OH238927   5.465   3.299   7.417 -0.2101 -0.3948 -0.6652
 4911TIP3    H138928   5.462   3.393   7.432  2.7705 -0.4698  1.0315
 4911TIP3    H238929   5.395   3.263   7.472  0.6730  0.6318  1.2186
 4912TIP3   OH238930   5.639   5.843   8.583 -0.6046  0.0855 -0.7984
 4912TIP3    H138931   5.677   5.789   8.513 -0.4919  1.0268 -1.4857
 4912TIP3    H238932   5.689   5.924   8.580 -2.0962  1.0207 -1.1443
 4913TIP3   OH238933   5.426   4.972   8.292 -0.7750 -0.0851 -0.2110
 4913TIP3    H138934   5.413   5.050   8.238 -0.7169  0.5909  0.7276
 4913TIP3    H238935   5.434   4.901   8.229 -1.9340  0.4966 -1.0591
 4914TIP3   OH238936   0.340   5.006   7.564  0.1279  0.0219 -0.0416
 4914TIP3    H138937   0.349   4.960   7.648  0.0475  0.0395 -0.0230
 4914TIP3    H238938   0.246   5.025   7.558  0.5243  2.8504  1.3464
 4915TIP3   OH238939   0.491   6.205   9.287  0.0932 -0.0306 -0.8943
 4915TIP3    H138940   0.464   6.233   9.375  1.6979 -0.9576 -0.0556
 4915TIP3    H238941   0.452   6.118   9.277 -0.0713  0.0662 -1.0919
 4916TIP3   OH238942   3.051   7.226   7.944  0.5978  0.0747  0.2281
 4916TIP3    H138943   3.114   7.230   8.015  0.5368 -0.7939  0.3373
 4916TIP3    H238944   3.027   7.318   7.928  1.6428  0.3831  0.3910
 4917TIP3   OH238945   5.431   1.607   7.722 -0.0912 -0.3508 -0.1729
 4917TIP3    H138946   5.393   1.642   7.642  2.0281  0.5818 -0.8459
 4917TIP3    H238947   5.438   1.683   7.780  1.7178 -0.2270 -0.4987
 4918TIP3   OH238948   1.314   0.276   9.441  0.6530 -0.0957  0.4123
 4918TIP3    H138949   1.357   0.225   9.373 -0.6624  0.7519 -1.1406
 4918TIP3    H238950   1.246   0.218   9.476  0.7071 -0.2023  0.3393
 4919TIP3   OH238951   7.102   2.973   8.963 -0.8435 -0.3216  0.1443
 4919TIP3    H138952   7.129   3.023   9.041 -0.6666  0.5359 -0.4569
 4919TIP3    H238953   7.115   2.882   8.988  0.9345 -0.0087  0.5120
 4920TIP3   OH238954   0.750   1.282   8.151  0.0295  0.6635 -0.1719
 4920TIP3    H138955   0.699   1.361   8.173 -1.0379 -0.4158  1.4676
 4920TIP3    H238956   0.792   1.258   8.233  1.7353  0.4681 -1.0762
 4921TIP3   OH238957   4.725   3.019   9.054  0.0110  0.6034  0.0179
 4921TIP3    H138958   4.814   3.021   9.090 -0.4127  0.7211  1.0987
 4921TIP3    H238959   4.699   2.927   9.061  0.0794  0.5532 -0.3833
 4922TIP3   OH238960   5.339   7.399   7.720 -0.0990  0.0096 -0.4062
 4922TIP3    H138961   5.407   7.334   7.736 -0.1170 -0.0489 -0.5685
 4922TIP3    H238962   5.308   7.424   7.807  0.3337  0.2495 -0.3188
 4923TIP3   OH238963   0.713   2.458   8.540  0.0690  0.0007 -0.0219
 4923TIP3    H138964   0.796   2.506   8.546  0.4530 -0.5389 -1.0085
 4923TIP3    H238965   0.706   2.413   8.624  1.2205 -0.6747 -0.2751
 4924TIP3   OH238966   5.083   7.129   7.251  0.2080  0.2650  0.0311
 4924TIP3    H138967   5.060   7.127   7.159  1.0145 -1.0088 -0.1732
 4924TIP3    H238968   5.150   7.197   7.259  0.6946 -0.1517 -0.4706
 4925TIP3   OH238969   4.242   4.422   7.561  0.1838  0.5657  0.0637
 4925TIP3    H138970   4.191   4.493   7.521  0.4029  2.0759  2.2658
 4925TIP3    H238971   4.307   4.399   7.495 -1.7720  0.2508 -1.8869
 4926TIP3   OH238972   5.674   5.073   7.278  0.0947  0.5209  0.1272
 4926TIP3    H138973   5.707   5.064   7.189  1.2352 -0.1595  0.5941
 4926TIP3    H238974   5.704   4.995   7.323 -0.3591  0.9133  1.1509
 4927TIP3   OH238975   5.949   2.003   8.747 -0.2397 -0.0443  0.1257
 4927TIP3    H138976   6.035   1.977   8.715 -1.6292 -1.5256 -2.7644
 4927TIP3    H238977   5.929   2.084   8.700 -1.6206 -1.3487 -1.6745
 4928TIP3   OH238978   0.224   6.439   7.997 -0.0149  0.8029 -0.2869
 4928TIP3    H138979   0.267   6.354   8.010  1.0673  1.1352 -1.5425
 4928TIP3    H238980   0.183   6.458   8.082  0.5421 -0.5175  0.3068
 4929TIP3   OH238981   7.409   1.251   7.891  0.5007  0.1999  0.1987
 4929TIP3    H138982   7.465   1.285   7.961 -0.6863  2.0005  0.3606
 4929TIP3    H238983   7.439   1.162   7.877  1.0289 -0.1091  2.7507
 4930TIP3   OH238984   1.979   0.626   8.082  0.3976 -0.4194  0.8456
 4930TIP3    H138985   1.980   0.722   8.074  0.0307 -0.4884 -0.0251
 4930TIP3    H238986   1.889   0.604   8.103  0.0268 -0.7200 -0.9265
 4931TIP3   OH238987   5.222   4.800   8.290  0.3536  0.2998  0.4130
 4931TIP3    H138988   5.276   4.870   8.327 -1.0130  1.1143  0.9415
 4931TIP3    H238989   5.169   4.844   8.224  1.6805 -0.8622 -1.5081
 4932TIP3   OH238990   7.205   4.860   6.374  0.1654 -0.0012  0.1645
 4932TIP3    H138991   7.120   4.900   6.352  0.9533  1.4429 -0.4083
 4932TIP3    H238992   7.209   4.862   6.469 -1.1703 -1.7136  0.3011
 4933TIP3   OH238993   4.453   3.524   9.285  0.0110 -0.0751 -0.3643
 4933TIP3    H138994   4.379   3.468   9.309 -0.1406  0.7235  1.1231
 4933TIP3    H238995   4.503   3.472   9.221  0.0812 -2.0808  1.2317
 4934TIP3   OH238996   0.906   2.603   8.871  0.4506  0.2330 -0.0908
 4934TIP3    H138997   0.858   2.635   8.947 -0.5512  2.2560 -1.4784
 4934TIP3    H238998   0.974   2.547   8.907 -2.2913 -1.9901  2.0539
 4935TIP3   OH238999   1.806   2.151   8.388 -0.0706 -0.1154  0.2246
 4935TIP3    H139000   1.827   2.245   8.384  1.0026 -0.3237  0.6187
 4935TIP3    H239001   1.879   2.108   8.344 -0.8252 -0.7481 -0.4425
 4936TIP3   OH239002   0.645   3.839   8.028  0.9364  0.2111 -0.1449
 4936TIP3    H139003   0.666   3.785   8.105 -1.3701 -1.2400 -0.4607
 4936TIP3    H239004   0.629   3.776   7.958  2.4785  1.4984 -1.7577
 4937TIP3   OH239005   4.130   2.306   9.333  0.4017 -0.1744  0.0266
 4937TIP3    H139006   4.182   2.256   9.396 -1.8115  0.0771  2.1641
 4937TIP3    H239007   4.072   2.241   9.292  0.9776 -0.1249 -0.9085
 4938TIP3   OH239008   5.207   0.366   8.166  0.0236  0.3976  0.3387
 4938TIP3    H139009   5.279   0.417   8.128 -1.2028  2.4475  0.6152
 4938TIP3    H239010   5.194   0.403   8.253 -0.6718 -0.6693  0.7094
 4939TIP3   OH239011   0.645   6.638   8.959 -0.2427  0.1570  0.6241
 4939TIP3    H139012   0.652   6.732   8.940 -1.6457  0.4608  1.4927
 4939TIP3    H239013   0.574   6.608   8.903 -0.1157 -0.2936  0.7047
 4940TIP3   OH239014   6.082   4.961   9.154  0.3596 -0.5071  0.1157
 4940TIP3    H139015   5.987   4.964   9.144  0.1632 -0.0830  1.7205
 4940TIP3    H239016   6.101   5.033   9.214  1.4158 -1.9143  1.5514
 4941TIP3   OH239017   6.521   6.342   7.857  0.5111  0.2537  0.3730
 4941TIP3    H139018   6.511   6.377   7.769  0.4168 -0.3825  0.1284
 4941TIP3    H239019   6.561   6.413   7.907  0.3090  0.7115 -0.1129
 4942TIP3   OH239020   3.066   6.779   8.835 -0.5297  0.0150  0.4283
 4942TIP3    H139021   3.072   6.858   8.889 -2.5417 -0.1205  0.9199
 4942TIP3    H239022   3.157   6.755   8.817  0.1519  1.1107  2.2152
 4943TIP3   OH239023   3.220   0.869   7.040  0.0339  0.9033  0.1929
 4943TIP3    H139024   3.171   0.859   7.122  1.1036  1.8737  0.9988
 4943TIP3    H239025   3.305   0.828   7.058 -0.3860 -0.6364 -1.1281
 4944TIP3   OH239026   6.609   5.261   8.193  0.7748  0.6690  0.0488
 4944TIP3    H139027   6.608   5.350   8.157  0.8562  1.0548  0.9532
 4944TIP3    H239028   6.589   5.274   8.286  1.1574 -0.2245  0.2608
 4945TIP3   OH239029   0.281   4.340   9.330 -0.1490 -0.7948 -0.0817
 4945TIP3    H139030   0.316   4.315   9.245 -0.4480 -3.9237  0.5955
 4945TIP3    H239031   0.293   4.435   9.334  1.7865 -0.8222 -2.7035
 4946TIP3   OH239032   7.394   2.286   8.232  0.0922 -0.2091  0.7295
 4946TIP3    H139033   7.465   2.243   8.185 -0.3749 -2.2095  1.7503
 4946TIP3    H239034   7.413   2.380   8.223  2.1138 -0.6402 -0.1231
 4947TIP3   OH239035   3.596   3.507   7.793 -0.3952 -0.7545  0.2387
 4947TIP3    H139036   3.560   3.530   7.707 -2.0357 -0.0933  1.0594
 4947TIP3    H239037   3.670   3.567   7.804 -0.7801 -0.1529 -0.3023
 4948TIP3   OH239038   2.867   4.508   8.560  0.0797  0.3407  0.1905
 4948TIP3    H139039   2.877   4.580   8.497  1.4174 -0.6052 -0.7294
 4948TIP3    H239040   2.791   4.459   8.529 -0.8916  1.3758  0.8684
 4949TIP3   OH239041   1.765   2.154   7.551 -0.0679  0.2256  0.0824
 4949TIP3    H139042   1.819   2.162   7.473  0.2593  2.5154  0.4710
 4949TIP3    H239043   1.702   2.086   7.530  0.9339 -0.2292 -1.6114
 4950TIP3   OH239044   4.422   4.651   8.051  0.2615 -0.0274  0.1639
 4950TIP3    H139045   4.501   4.619   8.007  0.3755  1.3116 -0.6545
 4950TIP3    H239046   4.357   4.658   7.981 -0.7797 -1.6360  0.9214
 4951TIP3   OH239047   4.075   2.427   7.824 -0.0288 -0.0552 -0.0094
 4951TIP3    H139048   4.084   2.479   7.744  0.3261 -0.4814 -0.2528
 4951TIP3    H239049   3.981   2.415   7.835 -0.0652 -0.3741 -0.6155
 4952TIP3   OH239050   0.385   1.620   9.482  0.1542 -0.3052  0.2589
 4952TIP3    H139051   0.413   1.542   9.435 -0.6450 -0.1622 -0.4910
 4952TIP3    H239052   0.393   1.597   9.574 -0.9403 -1.6279  0.0564
 4953TIP3   OH239053   1.029   5.161   6.809  0.3585  0.3335 -0.5494
 4953TIP3    H139054   0.985   5.225   6.865 -1.1341 -0.4517 -0.7651
 4953TIP3    H239055   1.116   5.198   6.794  0.2086  1.3620  0.8984
 4954TIP3   OH239056   1.436   7.625   7.681 -0.0698  0.4628  0.3511
 4954TIP3    H139057   1.527   7.603   7.701 -0.3264 -2.6184 -1.2719
 4954TIP3    H239058   1.385   7.552   7.717 -1.8479  1.6983  0.4850
 4955TIP3   OH239059   3.477   5.905   7.557  0.2613 -0.1194  0.1613
 4955TIP3    H139060   3.464   5.952   7.475 -0.0803 -0.3894  0.0575
 4955TIP3    H239061   3.440   5.963   7.624 -0.6076 -0.4482 -0.0223
 4956TIP3   OH239062   1.698   5.349   7.255 -0.4390 -0.0446  0.6985
 4956TIP3    H139063   1.693   5.414   7.184  0.0809  1.5498  2.0601
 4956TIP3    H239064   1.606   5.331   7.276 -0.6009 -0.4115 -0.2428
 4957TIP3   OH239065   0.028   4.413   8.024  0.0734  0.3381  0.0032
 4957TIP3    H139066   0.014   4.354   7.950  0.7809  0.0384  0.0975
 4957TIP3    H239067   0.053   4.496   7.984  1.6297 -0.1421 -0.0981
 4958TIP3   OH239068   5.463   5.433   7.328 -0.2339 -0.4676  0.0556
 4958TIP3    H139069   5.445   5.514   7.280 -0.8703 -0.8863 -0.4351
 4958TIP3    H239070   5.537   5.454   7.384  1.2094 -0.2181 -1.8346
 4959TIP3   OH239071   1.744   1.630   8.107  0.5102 -0.1663 -0.0324
 4959TIP3    H139072   1.783   1.679   8.179  1.9593  0.2922 -1.0778
 4959TIP3    H239073   1.803   1.556   8.093 -1.6729 -2.3463  1.5490
 4960TIP3   OH239074   3.811   2.795   7.978 -0.5183  0.8526  0.3446
 4960TIP3    H139075   3.758   2.716   7.974  2.7862 -1.5623 -0.0333
 4960TIP3    H239076   3.798   2.829   8.067 -0.8362 -1.0153  1.0496
 4961TIP3   OH239077   2.060   2.364   8.422  0.5626 -0.0860 -0.2892
 4961TIP3    H139078   2.135   2.398   8.374  0.5061 -1.5183 -1.4796
 4961TIP3    H239079   1.984   2.407   8.383  0.6735  0.3926  0.0239
 4962TIP3   OH239080   7.329   6.130   7.649 -0.1048  0.5779 -0.0571
 4962TIP3    H139081   7.329   6.213   7.602 -1.1904  0.8024  0.3221
 4962TIP3    H239082   7.248   6.130   7.698 -0.6671 -1.1903 -0.9122
 4963TIP3   OH239083   5.493   6.264   8.294 -0.7156 -0.8787  0.0482
 4963TIP3    H139084   5.434   6.263   8.219 -0.6721 -1.0302  0.0153
 4963TIP3    H239085   5.452   6.206   8.358  0.1084 -2.1450 -0.5348
 4964TIP3   OH239086   6.209   5.732   6.764  0.1811  0.5858  0.0617
 4964TIP3    H139087   6.288   5.762   6.720  1.4570 -1.0106  1.1667
 4964TIP3    H239088   6.141   5.736   6.696  1.6286  0.1907 -1.4642
 4965TIP3   OH239089   2.026   3.252   7.878  0.5881 -0.3456 -0.8214
 4965TIP3    H139090   2.025   3.283   7.787  1.3016 -1.5519 -1.2676
 4965TIP3    H239091   2.043   3.330   7.930 -1.6809  0.7362 -1.5407
 4966TIP3   OH239092   6.594   1.137   8.782  0.1476 -0.4354 -0.0294
 4966TIP3    H139093   6.671   1.112   8.834  0.3959  0.1779 -0.0877
 4966TIP3    H239094   6.630   1.192   8.712 -0.5141  1.2038  0.8804
 4967TIP3   OH239095   6.889   1.204   8.594 -0.0725 -0.1238 -0.8567
 4967TIP3    H139096   6.865   1.200   8.502  0.4090  0.8595 -1.0414
 4967TIP3    H239097   6.945   1.128   8.608 -0.6294 -0.6076 -1.2180
 4968TIP3   OH239098   0.773   4.022   7.873 -0.0175 -0.2121  0.5243
 4968TIP3    H139099   0.728   3.952   7.921  0.6580  0.0081  1.5088
 4968TIP3    H239100   0.712   4.045   7.802 -1.6841  0.3818  2.0503
 4969TIP3   OH239101   5.608   4.715   9.339  0.1309  0.6228 -0.0388
 4969TIP3    H139102   5.529   4.734   9.390 -0.0226  0.4692 -0.2187
 4969TIP3    H239103   5.679   4.757   9.388 -0.2415  1.9696 -0.6260
 4970TIP3   OH239104   1.053   4.726   8.789  1.5525 -0.3915  0.5765
 4970TIP3    H139105   1.137   4.724   8.742  1.7222 -0.0644  0.8588
 4970TIP3    H239106   0.990   4.691   8.727  1.9322 -0.8135  0.4231
 4971TIP3   OH239107   5.540   1.253   8.644 -0.4138  0.1038 -0.1491
 4971TIP3    H139108   5.582   1.299   8.717 -1.9206 -0.7021  1.2817
 4971TIP3    H239109   5.596   1.177   8.628 -1.0663 -0.7536  1.4768
 4972TIP3   OH239110   4.460   1.618   7.503  0.0105 -0.5718 -0.2408
 4972TIP3    H139111   4.378   1.655   7.469  1.2785  2.2725 -0.5270
 4972TIP3    H239112   4.505   1.585   7.425 -0.2640 -0.8623 -0.2772
 4973TIP3   OH239113   1.223   7.446   7.455  0.1767  0.0301  0.1163
 4973TIP3    H139114   1.195   7.440   7.363 -0.4905 -0.6098  0.3492
 4973TIP3    H239115   1.149   7.488   7.499 -0.1390 -1.0479  0.6249
 4974TIP3   OH239116   3.747   2.060   8.992 -0.4372 -0.0377 -0.1263
 4974TIP3    H139117   3.707   2.133   8.945 -0.2388  0.0562 -0.1496
 4974TIP3    H239118   3.678   2.029   9.051  0.0085  1.2517  1.1226
 4975TIP3   OH239119   4.820   1.902   9.026  0.1440  0.5022 -0.5803
 4975TIP3    H139120   4.743   1.845   9.025 -1.6517  2.7587 -1.3931
 4975TIP3    H239121   4.836   1.922   8.934  0.5786  1.4902 -0.3002
 4976TIP3   OH239122   2.041   1.663   7.768 -0.4840  0.2326  0.2393
 4976TIP3    H139123   1.947   1.658   7.753 -0.5318 -1.1467  0.7808
 4976TIP3    H239124   2.078   1.691   7.684 -1.4095  1.3778  0.2010
 4977TIP3   OH239125   5.650   5.144   8.910 -0.5862  0.4436  0.0988
 4977TIP3    H139126   5.627   5.230   8.947 -0.0099  1.5214 -1.8762
 4977TIP3    H239127   5.657   5.160   8.815  3.3667 -0.8603 -0.0158
 4978TIP3   OH239128   7.101   5.021   8.340  0.2175 -0.0202 -0.2076
 4978TIP3    H139129   7.092   4.958   8.269  1.2677 -0.1295 -0.2617
 4978TIP3    H239130   7.046   5.094   8.314  0.3926 -0.1615 -1.0210
 4979TIP3   OH239131   4.500   7.577   9.783 -0.3588  0.1414  0.0163
 4979TIP3    H139132   4.450   7.590   9.863 -0.8210 -1.2582 -0.0279
 4979TIP3    H239133   4.445   7.520   9.729  1.3030 -1.5840  0.0308
 4980TIP3   OH239134   5.075   0.582   7.475  0.2186 -0.0089  0.4747
 4980TIP3    H139135   5.046   0.650   7.536 -1.1844  0.3565 -0.5473
 4980TIP3    H239136   5.155   0.617   7.437 -0.1020  0.7652  0.4866
 4981TIP3   OH239137   4.996   1.018   8.953  0.0930 -0.2790 -0.5242
 4981TIP3    H139138   4.921   1.070   8.922  0.1647 -0.0612 -0.3282
 4981TIP3    H239139   4.986   0.934   8.908 -0.4990 -0.3954 -0.1872
 4982TIP3   OH239140   5.858   2.066   8.392 -0.0265 -0.0599  0.0515
 4982TIP3    H139141   5.895   1.979   8.379 -0.5424 -0.6126  1.9891
 4982TIP3    H239142   5.931   2.118   8.426 -0.0928 -0.1427  0.3206
 4983TIP3   OH239143   6.853   0.565   8.067 -0.3929  0.5777  0.1507
 4983TIP3    H139144   6.802   0.639   8.034 -2.6468 -0.6243  0.7156
 4983TIP3    H239145   6.861   0.507   7.991 -1.5564 -0.0800  0.5032
 4984TIP3   OH239146   1.467   2.205   8.427  0.0755 -0.4558 -0.0346
 4984TIP3    H139147   1.520   2.129   8.451 -0.1643 -1.0325 -1.2726
 4984TIP3    H239148   1.386   2.168   8.393 -0.0610  0.3536 -0.6058
 4985TIP3   OH239149   1.053   4.834   7.158  0.3691  1.1404 -0.6582
 4985TIP3    H139150   1.090   4.775   7.093  1.7219  0.3190  0.7759
 4985TIP3    H239151   1.118   4.904   7.166 -0.7425  2.3145 -1.6097
 4986TIP3   OH239152   0.764   6.992   7.886 -0.2512  0.3351  0.0437
 4986TIP3    H139153   0.694   6.944   7.929  0.1501 -0.3842 -0.0862
 4986TIP3    H239154   0.842   6.940   7.901 -0.0006  0.3572 -1.0590
 4987TIP3   OH239155   1.804   0.836   9.071  0.3954 -0.0309  0.3754
 4987TIP3    H139156   1.857   0.792   9.138  0.7789 -0.2822 -0.0829
 4987TIP3    H239157   1.785   0.922   9.108 -0.2090 -0.5039  1.2176
 4988TIP3   OH239158   6.910   4.559   8.495  0.1320 -0.1661 -0.6675
 4988TIP3    H139159   6.901   4.627   8.429  0.1778  1.1126  0.5829
 4988TIP3    H239160   6.990   4.512   8.472  0.5150  0.6987 -1.1091
 4989TIP3   OH239161   6.560   1.770   7.384 -0.1751  0.2820 -0.6254
 4989TIP3    H139162   6.577   1.769   7.478 -1.3980 -0.4396 -0.3939
 4989TIP3    H239163   6.491   1.836   7.373  0.4168  0.8353 -1.1176
 4990TIP3   OH239164   1.348   5.193   8.248 -0.4819 -0.1780  0.1273
 4990TIP3    H139165   1.266   5.144   8.256 -1.1843  1.2567  2.8314
 4990TIP3    H239166   1.416   5.129   8.272 -0.9927 -0.8369 -0.1492
 4991TIP3   OH239167   2.843   0.228   9.498  0.2910  0.4222  0.0146
 4991TIP3    H139168   2.917   0.203   9.442  1.5775  1.7447  1.0401
 4991TIP3    H239169   2.852   0.323   9.507 -1.5407  0.6060  0.1968
 4992TIP3   OH239170   4.863   3.268   7.060  0.6154  0.3953  0.7839
 4992TIP3    H139171   4.949   3.308   7.066  0.5284  0.9380 -0.9569
 4992TIP3    H239172   4.807   3.324   7.114  0.9194  1.4179  0.0773
 4993TIP3   OH239173   0.846   2.085   7.958 -0.7478  0.1781  0.3988
 4993TIP3    H139174   0.835   2.114   8.049 -0.4956 -1.6026  1.0310
 4993TIP3    H239175   0.854   1.990   7.964 -0.3163  0.0647 -1.4628
 4994TIP3   OH239176   3.690   2.614   7.553 -0.4109 -0.0363 -0.1625
 4994TIP3    H139177   3.776   2.635   7.518  0.0050 -0.6853  0.4543
 4994TIP3    H239178   3.670   2.687   7.612  0.0152 -0.2290  0.2175
 4995TIP3   OH239179   1.774   3.240   8.988  0.6038  0.3114 -0.5292
 4995TIP3    H139180   1.820   3.316   9.024  1.2630  0.1422 -0.9977
 4995TIP3    H239181   1.843   3.183   8.956  0.1851 -1.0192  0.8215
 4996TIP3   OH239182   1.381   0.304   8.760  0.5382  0.1819  0.5538
 4996TIP3    H139183   1.314   0.235   8.766  0.8148 -0.1055  0.3452
 4996TIP3    H239184   1.346   0.376   8.813 -0.9976  0.9040 -1.3052
 4997TIP3   OH239185   0.209   4.564   8.225  0.0502 -0.5302 -0.4803
 4997TIP3    H139186   0.200   4.586   8.318  0.8390  2.3459 -0.9962
 4997TIP3    H239187   0.123   4.531   8.200 -0.3415 -0.7960  1.1225
 4998TIP3   OH239188   4.867   0.325   9.143 -0.0066 -0.6837 -0.1305
 4998TIP3    H139189   4.917   0.403   9.167  0.0876 -0.5076 -0.8605
 4998TIP3    H239190   4.927   0.252   9.158 -0.0540 -0.6084  0.4406
 4999TIP3   OH239191   2.155   4.940   9.514  0.2418  0.0706 -0.0093
 4999TIP3    H139192   2.231   4.982   9.553 -0.5030  1.3624  0.1150
 4999TIP3    H239193   2.186   4.854   9.486  1.1897 -0.2967  2.0082
 5000TIP3   OH239194   1.907   2.569   8.067  0.3347  0.2572 -0.0189
 5000TIP3    H139195   1.980   2.624   8.040 -0.1777 -0.0945 -2.3776
 5000TIP3    H239196   1.829   2.618   8.041 -0.1404 -1.0469 -1.2273
 5001TIP3   OH239197   6.057   1.520   8.803  0.7983  0.0181 -0.4849
 5001TIP3    H139198   5.978   1.516   8.749  1.3088  0.1308 -1.2485
 5001TIP3    H239199   6.058   1.610   8.837 -0.5278 -0.5706  1.2822
 5002TIP3   OH239200   5.294   2.934   7.870  0.2517 -0.1452  0.4212
 5002TIP3    H139201   5.292   3.006   7.933  2.4881 -0.8648  1.4376
 5002TIP3    H239202   5.338   2.970   7.793  0.9542 -0.2652  0.7551
 5003TIP3   OH239203   4.567   2.211   7.509 -0.6696  0.0106  0.1346
 5003TIP3    H139204   4.516   2.209   7.590  0.9978  0.9654  1.2748
 5003TIP3    H239205   4.646   2.160   7.528  0.0204  0.7348 -0.6673
 5004TIP3   OH239206   0.551   3.192   8.360  0.5637 -0.0355  0.2514
 5004TIP3    H139207   0.512   3.124   8.305  0.9132  0.1540 -0.2399
 5004TIP3    H239208   0.500   3.190   8.441  2.1797 -2.6524  1.3037
 5005TIP3   OH239209   6.573   1.743   8.857  0.2415  0.2165  0.2616
 5005TIP3    H139210   6.591   1.654   8.889  0.3140  0.4288  0.8038
 5005TIP3    H239211   6.513   1.729   8.783 -0.0271 -0.2613  0.5618
 5006TIP3   OH239212   4.041   4.173   7.386 -0.1484 -0.1256 -0.0158
 5006TIP3    H139213   4.023   4.122   7.307  0.0809  0.6764 -0.5922
 5006TIP3    H239214   4.046   4.264   7.356  0.1451  0.1679  0.8890
 5007TIP3   OH239215   1.236   4.920   9.627  0.1918 -0.1908 -0.4480
 5007TIP3    H139216   1.270   4.995   9.579 -1.3556  0.7971 -0.0722
 5007TIP3    H239217   1.243   4.946   9.719 -0.3742 -0.4896 -0.3177
 5008TIP3   OH239218   6.407   5.439   9.663 -0.6542  0.0539  0.2247
 5008TIP3    H139219   6.473   5.507   9.650 -2.4027  1.6472 -0.7771
 5008TIP3    H239220   6.456   5.366   9.702  1.7957  0.8959 -1.0359
 5009TIP3   OH239221   7.100   1.551   6.862 -0.3820 -0.1887 -0.6541
 5009TIP3    H139222   7.081   1.526   6.953 -1.7756  1.1480 -0.5320
 5009TIP3    H239223   7.179   1.503   6.840  1.3849  1.2031  2.0568
 5010TIP3   OH239224   6.910   1.700   8.715 -0.2512  0.2177 -0.0669
 5010TIP3    H139225   6.985   1.744   8.676  0.3240 -1.8549 -1.4497
 5010TIP3    H239226   6.865   1.769   8.765  0.7911  2.2268 -1.7516
 5011TIP3   OH239227   3.774   5.136   8.182 -0.3990 -0.1672  0.5230
 5011TIP3    H139228   3.788   5.074   8.254  0.0313 -0.5863  0.0898
 5011TIP3    H239229   3.747   5.081   8.108  0.5655  0.0816 -0.0374
 5012TIP3   OH239230   5.554   0.865   9.062 -0.1247  0.2978 -0.4258
 5012TIP3    H139231   5.647   0.846   9.077 -0.5406 -0.7560  0.9241
 5012TIP3    H239232   5.546   0.959   9.079  0.7406  0.4651 -0.8570
 5013TIP3   OH239233   1.757   0.173   8.768 -0.0324  0.6461  0.3895
 5013TIP3    H139234   1.768   0.259   8.810 -0.0048 -0.0612  1.9175
 5013TIP3    H239235   1.692   0.129   8.823 -1.0760  0.1792 -1.1755
 5014TIP3   OH239236   2.311   0.472   9.210  0.2568  0.2474 -0.3865
 5014TIP3    H139237   2.367   0.539   9.251  0.3655 -0.4442  0.6342
 5014TIP3    H239238   2.329   0.480   9.116  2.1739 -0.0180 -0.0949
 5015TIP3   OH239239   5.359   3.735   7.616 -0.1097  0.0968  0.1047
 5015TIP3    H139240   5.445   3.775   7.606 -1.0123  1.9233 -0.9437
 5015TIP3    H239241   5.323   3.773   7.696 -0.5655  0.6298 -0.3411
 5016TIP3   OH239242   4.797   7.075   7.239 -0.2483  0.5627 -0.1930
 5016TIP3    H139243   4.751   7.155   7.262  0.6200  2.2167 -3.6057
 5016TIP3    H239244   4.883   7.084   7.281 -0.5657  0.8211  0.4112
 5017TIP3   OH239245   7.423   3.437   8.810  0.1232 -0.1132  0.0462
 5017TIP3    H139246   7.357   3.429   8.879  1.2366 -0.8671  1.0683
 5017TIP3    H239247   7.378   3.405   8.731 -0.6815 -0.8000  0.7514
 5018TIP3   OH239248   0.177   2.799   8.782 -0.3492 -0.3103 -0.3198
 5018TIP3    H139249   0.175   2.843   8.697 -1.0953  2.9858  1.2711
 5018TIP3    H239250   0.270   2.795   8.804 -0.1196 -1.4867 -1.3498
 5019TIP3   OH239251   0.168   2.928   8.211  0.0110  0.0162 -0.5893
 5019TIP3    H139252   0.107   2.886   8.151  0.2554  0.1105 -0.9078
 5019TIP3    H239253   0.177   3.017   8.177  0.2627  0.0264 -0.4969
 5020TIP3   OH239254   0.548   5.583   7.866 -0.7149 -0.2860  1.0404
 5020TIP3    H139255   0.520   5.667   7.829  0.1154 -0.4557 -0.0091
 5020TIP3    H239256   0.475   5.524   7.849 -0.8202 -0.0695  0.7292
 5021TIP3   OH239257   7.394   4.879   7.250 -1.0401  0.8812 -0.1332
 5021TIP3    H139258   7.301   4.879   7.228 -1.8988  0.2963  3.0390
 5021TIP3    H239259   7.428   4.797   7.214 -2.0938  0.4184 -0.0961
 5022TIP3   OH239260   7.374   6.982   7.616  0.2494 -0.0015  0.0173
 5022TIP3    H139261   7.469   6.969   7.616  0.2663  0.1084  0.7240
 5022TIP3    H239262   7.361   7.062   7.564  0.4964 -0.3174 -0.5398
 5023TIP3   OH239263   5.203   5.812   6.862  0.2342 -0.6285  0.1366
 5023TIP3    H139264   5.216   5.718   6.850  0.0007 -0.6733  0.2274
 5023TIP3    H239265   5.109   5.821   6.876  0.4884 -0.5990  2.1573
 5024TIP3   OH239266   2.848   4.163   8.622 -0.1006  0.3533  0.2322
 5024TIP3    H139267   2.919   4.225   8.637  1.1862 -1.2172  0.8491
 5024TIP3    H239268   2.769   4.213   8.644  0.7967  2.0491 -0.1819
 5025TIP3   OH239269   5.357   3.722   6.992 -0.0213 -0.0392 -0.4156
 5025TIP3    H139270   5.274   3.678   7.010 -1.3830  1.7774 -1.7113
 5025TIP3    H239271   5.384   3.688   6.907  0.2991 -0.2448 -0.2337
 5026TIP3   OH239272   2.338   2.505   8.609  0.0711 -0.0470  0.6739
 5026TIP3    H139273   2.357   2.578   8.550 -1.5996  0.7159  1.0188
 5026TIP3    H239274   2.255   2.528   8.650  0.9789 -0.7076  3.0776
 5027TIP3   OH239275   5.605   4.278   8.305 -0.2176 -0.3288 -0.1372
 5027TIP3    H139276   5.540   4.265   8.375  1.5753 -0.4873  1.5790
 5027TIP3    H239277   5.558   4.254   8.225 -0.9309 -5.5185  1.4512
 5028TIP3   OH239278   4.644   7.379   9.294  0.3537 -0.0969 -0.2703
 5028TIP3    H139279   4.678   7.462   9.329  0.7530 -0.3324 -0.0980
 5028TIP3    H239280   4.551   7.381   9.316  0.6584 -0.4073  1.1607
 5029TIP3   OH239281   6.040   4.806   9.496  0.2201  0.5212  0.0223
 5029TIP3    H139282   6.078   4.891   9.476  0.1259  0.8044  0.9699
 5029TIP3    H239283   6.099   4.768   9.561  1.3627 -1.0245 -1.8463
 5030TIP3   OH239284   6.666   3.797   7.421 -0.1961 -0.0897 -0.3709
 5030TIP3    H139285   6.705   3.772   7.337 -2.8117 -0.6827 -1.5255
 5030TIP3    H239286   6.627   3.717   7.455 -0.7463  0.5298  0.5052
 5031TIP3   OH239287   0.040   0.260   9.176 -0.3141 -0.6429 -0.4213
 5031TIP3    H139288  -0.036   0.256   9.233  0.1780 -0.4001  0.2652
 5031TIP3    H239289   0.062   0.353   9.172  0.8813 -0.8399  0.6718
 5032TIP3   OH239290   5.726   7.623   6.661  0.1119 -0.5428  0.0861
 5032TIP3    H139291   5.671   7.598   6.586  1.4862  1.2607 -1.6290
 5032TIP3    H239292   5.688   7.706   6.691 -0.4516 -1.2785  1.4625
 5033TIP3   OH239293   0.982   1.035   8.736  0.3911 -0.0334  0.4930
 5033TIP3    H139294   1.004   1.128   8.738 -0.7132  0.2947 -0.7026
 5033TIP3    H239295   1.059   0.991   8.771  0.1513  1.4178  3.0996
 5034TIP3   OH239296   6.386   6.500   9.205  0.4455 -0.1029  0.5080
 5034TIP3    H139297   6.309   6.463   9.162  1.9845 -1.7088 -1.0607
 5034TIP3    H239298   6.358   6.516   9.295 -1.2289 -2.2864  0.4544
 5035TIP3   OH239299   4.185   1.636   7.361  0.3418  0.2089 -0.7401
 5035TIP3    H139300   4.103   1.594   7.334  0.8638 -0.6430 -1.0201
 5035TIP3    H239301   4.157   1.703   7.424 -0.8902  2.1415 -3.1393
 5036TIP3   OH239302   1.192   1.529   9.712  0.4518  0.1596 -0.1437
 5036TIP3    H139303   1.163   1.509   9.623 -0.6008 -2.5214  0.7032
 5036TIP3    H239304   1.113   1.560   9.757 -0.3046 -3.1871  1.0668
 5037TIP3   OH239305   1.033   7.579   9.498 -0.2830 -0.4285 -0.1828
 5037TIP3    H139306   0.943   7.547   9.489 -0.0716 -0.5421 -2.1754
 5037TIP3    H239307   1.064   7.540   9.580 -1.4715 -1.7712 -0.3341
 5038TIP3   OH239308   2.686   7.651   8.942  0.1491  0.3273  0.1837
 5038TIP3    H139309   2.710   7.622   8.854 -0.2723 -0.6352  0.3766
 5038TIP3    H239310   2.746   7.723   8.960 -2.0291  2.9804 -2.2741
 5039TIP3   OH239311   4.570   5.972   8.702  0.2906  0.2526 -0.1827
 5039TIP3    H139312   4.576   5.913   8.776 -2.4203 -0.6376 -0.5309
 5039TIP3    H239313   4.524   6.049   8.736  1.2119  0.9250 -0.4118
 5040TIP3   OH239314   1.673   5.165   6.602 -0.3150 -0.6146  1.0882
 5040TIP3    H139315   1.636   5.194   6.685  1.4882  1.7988  1.1732
 5040TIP3    H239316   1.763   5.199   6.603  0.1970 -1.7072 -1.2578
 5041TIP3   OH239317   5.551   7.322   7.875 -0.1852  0.1084 -0.0106
 5041TIP3    H139318   5.552   7.371   7.794  2.5858 -1.6713 -1.2082
 5041TIP3    H239319   5.563   7.387   7.944 -2.3672  1.6208 -0.9768
 5042TIP3   OH239320   1.087   0.904   9.591  0.3478 -0.2101  0.2611
 5042TIP3    H139321   1.104   0.850   9.668 -1.5995 -0.7362  0.3731
 5042TIP3    H239322   1.141   0.982   9.604  0.0639 -0.2864  2.1566
 5043TIP3   OH239323   2.941   6.403   7.428 -0.0486  0.3924 -0.1002
 5043TIP3    H139324   2.921   6.440   7.514  1.0896 -1.4104  0.9864
 5043TIP3    H239325   2.866   6.347   7.408 -0.1871  0.6027 -0.1836
 5044TIP3   OH239326   3.819   3.369   7.988 -0.5151 -0.2667 -0.0892
 5044TIP3    H139327   3.748   3.321   8.030  0.1188 -0.4842  0.7675
 5044TIP3    H239328   3.778   3.448   7.953 -1.2126 -0.4940  0.2051
 5045TIP3   OH239329   6.359   3.904   8.580  0.3667 -0.2371  0.0377
 5045TIP3    H139330   6.389   3.922   8.491 -3.0749  0.3480 -1.1588
 5045TIP3    H239331   6.317   3.818   8.574 -0.2345 -0.0249  0.9987
 5046TIP3   OH239332   0.025   6.278   6.916  0.1353 -0.1197  0.0670
 5046TIP3    H139333   0.016   6.361   6.869 -0.8044  0.2031  0.7812
 5046TIP3    H239334   0.029   6.303   7.008 -1.3277 -0.9013  0.3865
 5047TIP3   OH239335   0.224   5.831   7.975 -0.0379 -0.3684  0.3921
 5047TIP3    H139336   0.199   5.918   8.005  1.9786 -0.5021  2.8289
 5047TIP3    H239337   0.141   5.786   7.960 -1.1186  1.7737 -0.4543
 5048TIP3   OH239338   0.899   1.531   9.708 -0.2725 -0.3071  0.2616
 5048TIP3    H139339   0.841   1.465   9.745 -0.3323 -0.0484  0.6274
 5048TIP3    H239340   0.915   1.501   9.618 -1.1997 -0.2345  0.0599
 5049TIP3   OH239341   1.324   7.137   8.805 -0.9046  0.1377  0.7648
 5049TIP3    H139342   1.262   7.136   8.733 -0.2835 -0.6065  0.2245
 5049TIP3    H239343   1.331   7.046   8.833  2.6796 -0.5259 -1.6511
 5050TIP3   OH239344   3.016   4.538   6.982  0.5592 -0.0241 -0.0740
 5050TIP3    H139345   3.097   4.588   6.983  0.1171  0.7349 -0.6645
 5050TIP3    H239346   2.972   4.562   7.064  0.5485  0.2196 -0.1501
 5051TIP3   OH239347   4.414   2.079   9.087 -0.5363  0.3231 -0.0113
 5051TIP3    H139348   4.482   2.101   9.023 -0.6783  0.3868 -0.1412
 5051TIP3    H239349   4.368   2.005   9.047  0.2114 -0.4964  0.6134
 5052TIP3   OH239350   0.290   4.008   9.285 -0.1790 -0.4574 -0.4075
 5052TIP3    H139351   0.223   4.077   9.282 -0.5161 -0.7884 -0.5995
 5052TIP3    H239352   0.282   3.963   9.201 -0.0972 -0.8611 -0.2014
 5053TIP3   OH239353   7.481   3.478   8.159  0.7721 -0.1582  0.6671
 5053TIP3    H139354   7.445   3.468   8.070  0.9182  0.8982  0.4679
 5053TIP3    H239355   7.430   3.418   8.212  1.4390 -1.6573 -0.3258
 5054TIP3   OH239356   1.339   3.644   7.279 -0.4261 -0.3439 -0.0339
 5054TIP3    H139357   1.376   3.732   7.277  2.3361 -1.3582  1.3049
 5054TIP3    H239358   1.291   3.640   7.361 -1.0341  0.0424 -0.3586
 5055TIP3   OH239359   0.943   4.335   8.738 -0.2778 -1.0980 -0.1364
 5055TIP3    H139360   0.861   4.361   8.780 -0.5005 -1.8277 -0.1149
 5055TIP3    H239361   0.945   4.386   8.657  0.4799  0.8337  1.0207
 5056TIP3   OH239362   6.664   4.281   7.592  0.4219 -0.2932 -0.0730
 5056TIP3    H139363   6.688   4.374   7.590 -0.4480 -0.0662 -0.5185
 5056TIP3    H239364   6.571   4.280   7.568  0.3972 -1.2745  0.0295
 5057TIP3   OH239365   1.040   3.241   8.658  0.1237  0.0965 -0.3489
 5057TIP3    H139366   1.125   3.235   8.613 -0.4551 -0.4228 -1.4091
 5057TIP3    H239367   0.983   3.180   8.610 -1.3205  1.6884 -0.7604
 5058TIP3   OH239368   0.964   5.283   7.747  0.2296 -0.0169 -0.4963
 5058TIP3    H139369   0.890   5.308   7.804  1.5166  0.4319  1.0569
 5058TIP3    H239370   0.947   5.330   7.665  0.1319  2.2818  0.7366
 5059TIP3   OH239371   5.721   6.501   7.642  0.2211 -0.7913  0.2225
 5059TIP3    H139372   5.767   6.548   7.711 -0.2923 -2.7517  2.0005
 5059TIP3    H239373   5.737   6.552   7.563  1.5183  1.0954  1.6272
 5060TIP3   OH239374   6.708   2.963   9.004 -0.1095 -0.5752  0.2299
 5060TIP3    H139375   6.646   2.896   9.034  1.7034 -2.5160 -0.1051
 5060TIP3    H239376   6.743   3.002   9.084 -2.4738  1.3400  0.4246
 5061TIP3   OH239377   4.458   2.500   7.877  0.1725  0.3048  0.0594
 5061TIP3    H139378   4.391   2.567   7.869 -0.4846 -0.4139 -0.6335
 5061TIP3    H239379   4.433   2.450   7.955 -2.5379 -2.5165 -2.3715
 5062TIP3   OH239380   2.598   5.054   8.312  0.0900  0.4925 -0.1617
 5062TIP3    H139381   2.602   4.963   8.283 -0.4387  0.1379  0.8427
 5062TIP3    H239382   2.668   5.098   8.263 -0.8582 -0.0291 -2.0905
 5063TIP3   OH239383   4.866   6.903   7.779  0.0202  0.0368  0.3724
 5063TIP3    H139384   4.798   6.912   7.712  0.7797  2.5350 -0.1713
 5063TIP3    H239385   4.828   6.945   7.857 -0.2435 -1.4386  1.0792
 5064TIP3   OH239386   0.454   1.319   9.506 -0.1459  0.5837 -0.7118
 5064TIP3    H139387   0.409   1.243   9.470 -0.0969  0.3285 -0.2505
 5064TIP3    H239388   0.404   1.341   9.585 -0.2129  1.0867 -0.8914
 5065TIP3   OH239389   0.477   2.083   7.591  0.1877  0.2264 -0.0196
 5065TIP3    H139390   0.507   2.006   7.639  2.6469  0.7653 -0.5901
 5065TIP3    H239391   0.425   2.132   7.655  0.7584 -0.6028  1.1185
 5066TIP3   OH239392   7.438   4.218   9.424 -0.3740 -0.0938  0.0355
 5066TIP3    H139393   7.408   4.160   9.494 -0.8232 -0.9019 -0.7969
 5066TIP3    H239394   7.513   4.172   9.386  0.2342  0.6167  0.3435
 5067TIP3   OH239395   0.938   4.477   8.492 -0.6237  0.5927  1.0448
 5067TIP3    H139396   0.916   4.554   8.545 -0.9388  1.4014 -0.2206
 5067TIP3    H239397   0.859   4.460   8.441  0.1038  0.6317 -0.1132
 5068TIP3   OH239398   1.674   3.466   8.391  0.5467 -0.8036  0.0337
 5068TIP3    H139399   1.748   3.497   8.443  1.4148 -0.9187 -1.1052
 5068TIP3    H239400   1.652   3.381   8.429  0.4818 -0.4313  0.8602
 5069TIP3   OH239401   6.855   5.108   9.748 -0.6277  0.7061  0.1585
 5069TIP3    H139402   6.864   5.054   9.827  0.5160  0.3998 -0.1496
 5069TIP3    H239403   6.910   5.064   9.683 -1.4335  1.0352 -0.7691
 5070TIP3   OH239404   4.542   6.406   9.538 -0.0792  0.0812  0.2207
 5070TIP3    H139405   4.499   6.358   9.609  0.4951 -0.3972  0.2444
 5070TIP3    H239406   4.522   6.498   9.557  1.9130  0.1801  2.2934
 5071TIP3   OH239407   2.475   2.767   8.048  0.0669 -0.1397  0.4548
 5071TIP3    H139408   2.465   2.862   8.057  0.3644 -0.2294  2.0172
 5071TIP3    H239409   2.547   2.744   8.107  0.1029 -1.3143 -0.0169
 5072TIP3   OH239410   0.141   4.729   9.348 -0.2944  0.4773 -0.3892
 5072TIP3    H139411   0.226   4.685   9.346 -0.2457  0.6075 -1.3625
 5072TIP3    H239412   0.077   4.657   9.352 -0.1354  0.3885  1.3462
 5073TIP3   OH239413   0.362   0.298   7.699 -0.7557  0.2968  0.7125
 5073TIP3    H139414   0.353   0.361   7.770 -0.4577  0.1094  0.9199
 5073TIP3    H239415   0.398   0.348   7.626  0.4424  0.1658  1.1895
 5074TIP3   OH239416   0.677   2.911   8.919 -0.1818  0.7463  0.2518
 5074TIP3    H139417   0.740   2.978   8.891 -0.6006  0.5496 -1.2423
 5074TIP3    H239418   0.732   2.837   8.947  0.2724  0.7210 -0.6709
 5075TIP3   OH239419   1.838   5.371   8.243  0.3248 -0.6212 -0.1847
 5075TIP3    H139420   1.795   5.323   8.314  1.1240 -1.0178  0.0334
 5075TIP3    H239421   1.923   5.329   8.232  0.7041  0.2125 -0.5573
 5076TIP3   OH239422   5.011   6.043   8.043  0.3108 -0.1533 -0.3736
 5076TIP3    H139423   5.106   6.048   8.033  0.7964 -0.6020  2.9109
 5076TIP3    H239424   4.991   5.949   8.041  0.2099 -0.1646  0.6011
 5077TIP3   OH239425   2.777   2.118   7.628  0.0025 -0.0612  0.6722
 5077TIP3    H139426   2.734   2.076   7.554  0.9939 -0.3229  0.2360
 5077TIP3    H239427   2.870   2.116   7.607  0.1659  1.5644  1.0464
 5078TIP3   OH239428   3.803   5.822   8.480  0.4650  0.1890  0.0595
 5078TIP3    H139429   3.767   5.763   8.546 -0.1903  0.6227  0.0956
 5078TIP3    H239430   3.890   5.787   8.462  0.8546  0.3282  1.5082
 5079TIP3   OH239431   0.793   6.499   8.157 -0.7313  0.0751 -0.2119
 5079TIP3    H139432   0.819   6.537   8.240  3.6390 -1.8772 -0.3684
 5079TIP3    H239433   0.817   6.406   8.165  4.3364  0.4844 -4.8007
 5080TIP3   OH239434   0.620   4.948   9.408  0.5361 -0.5409 -0.5217
 5080TIP3    H139435   0.551   4.991   9.357 -0.3505 -1.3089 -0.0009
 5080TIP3    H239436   0.693   4.939   9.347  0.6906  1.4838 -0.7212
 5081TIP3   OH239437   1.804   1.882   8.006 -0.2737 -0.2260 -0.5737
 5081TIP3    H139438   1.746   1.808   8.027 -0.7529  0.3648  0.2400
 5081TIP3    H239439   1.879   1.870   8.065 -1.3322  1.0880  1.1261
 5082TIP3   OH239440   0.104   4.284   7.355  0.1366 -0.1352 -0.6012
 5082TIP3    H139441   0.188   4.266   7.312  0.8663  0.8875  0.3186
 5082TIP3    H239442   0.038   4.263   7.289  1.0423 -2.0219 -0.9924
 5083TIP3   OH239443   4.846   1.230   8.791 -0.1192  0.1310  0.1098
 5083TIP3    H139444   4.846   1.319   8.755 -0.2325 -0.0429 -0.3378
 5083TIP3    H239445   4.918   1.187   8.746 -1.2902 -0.5739 -1.1708
 5084TIP3   OH239446   2.404   3.666   7.611  0.2240  0.0843 -0.9813
 5084TIP3    H139447   2.337   3.707   7.666  0.3042  0.2520 -1.0076
 5084TIP3    H239448   2.373   3.576   7.599 -0.4083  0.3815 -1.6724
 5085TIP3   OH239449   6.090   4.801   7.154  0.0444 -0.3656  0.1949
 5085TIP3    H139450   6.120   4.822   7.066 -0.7391  2.2507  0.4619
 5085TIP3    H239451   6.163   4.824   7.211  0.0065 -0.5819  0.3306
 5086TIP3   OH239452   1.991   3.674   9.141  0.4511  0.0888 -0.0870
 5086TIP3    H139453   2.085   3.690   9.148  0.7208 -0.5560 -1.7758
 5086TIP3    H239454   1.964   3.723   9.063 -1.1490  2.3386  1.7447
 5087TIP3   OH239455   7.063   2.421   8.697  0.2160  0.2354  0.0357
 5087TIP3    H139456   7.004   2.422   8.773  0.7198  1.6103  0.4510
 5087TIP3    H239457   7.061   2.331   8.666 -0.6911 -0.1549  1.1440
 5088TIP3   OH239458   4.122   7.450   7.835 -0.6503 -0.5797  0.2418
 5088TIP3    H139459   4.182   7.489   7.772 -0.1788  0.4181  1.2610
 5088TIP3    H239460   4.173   7.446   7.916 -1.2888 -1.6732  0.6053
 5089TIP3   OH239461   2.910   0.886   7.564 -0.5162 -0.7257  0.8425
 5089TIP3    H139462   2.848   0.929   7.622 -1.3113  0.1770 -0.6176
 5089TIP3    H239463   2.857   0.857   7.490  0.6375 -0.8702  0.0485
 5090TIP3   OH239464   1.272   0.536   7.969 -0.0091  0.8118 -0.0152
 5090TIP3    H139465   1.228   0.564   7.889 -0.3637  1.4717  0.4058
 5090TIP3    H239466   1.363   0.521   7.942 -0.7567 -2.2135 -1.2790
 5091TIP3   OH239467   3.338   7.633   8.594  0.2461  0.4094 -0.1372
 5091TIP3    H139468   3.387   7.710   8.622  0.2456  1.3319 -2.4675
 5091TIP3    H239469   3.385   7.601   8.517 -0.8748 -0.7404 -0.3842
 5092TIP3   OH239470   4.927   5.000   9.159 -0.1703  0.0431 -0.0552
 5092TIP3    H139471   4.897   4.911   9.140 -0.4324  0.0106  0.4759
 5092TIP3    H239472   4.887   5.021   9.244 -1.7534  1.4162 -1.0654
 5093TIP3   OH239473   4.103   0.789   7.962 -0.1448  0.3268 -0.6399
 5093TIP3    H139474   4.149   0.864   7.925  0.4255  0.2614 -0.0621
 5093TIP3    H239475   4.156   0.713   7.936 -0.3112  0.1887 -0.5791
 5094TIP3   OH239476   7.608   1.262   7.657 -0.5856  0.2799  0.6390
 5094TIP3    H139477   7.617   1.188   7.717  0.0688  0.2744  0.5416
 5094TIP3    H239478   7.667   1.329   7.694 -0.7461  0.5468  0.4132
 5095TIP3   OH239479   3.428   7.659   8.086 -0.0778  0.2830  0.6546
 5095TIP3    H139480   3.452   7.680   8.176 -0.0009  0.3941  0.6094
 5095TIP3    H239481   3.465   7.572   8.070 -0.6428 -0.0170  0.9382
 5096TIP3   OH239482   0.831   4.088   7.483 -0.5476 -0.1394 -0.2193
 5096TIP3    H139483   0.752   4.037   7.500 -1.5721  1.3330 -0.4129
 5096TIP3    H239484   0.829   4.158   7.548 -1.3080  1.9787 -2.3491
 5097TIP3   OH239485   0.560   0.577   8.796 -0.0960  0.5162 -0.4594
 5097TIP3    H139486   0.528   0.636   8.729  0.0309 -0.0562 -1.0308
 5097TIP3    H239487   0.492   0.576   8.863  0.5500  2.4813  0.3058
 5098TIP3   OH239488   0.684   1.529   9.147 -0.2904  0.2825  0.0973
 5098TIP3    H139489   0.698   1.621   9.168 -1.5099  0.6974 -0.8214
 5098TIP3    H239490   0.702   1.522   9.054  2.6070 -1.0405  0.6285
 5099TIP3   OH239491   0.765   1.237   9.206 -0.4441 -0.2600 -0.2934
 5099TIP3    H139492   0.770   1.188   9.123  3.8424  0.1045 -0.4463
 5099TIP3    H239493   0.745   1.327   9.179 -0.7280 -0.4439 -0.7247
 5100TIP3   OH239494   0.038   7.193   8.463 -0.9301 -0.7230 -0.3362
 5100TIP3    H139495   0.091   7.145   8.400  1.1849 -0.4767  1.1530
 5100TIP3    H239496   0.102   7.236   8.520 -2.7571  0.2527  1.0723
 5101TIP3   OH239497   3.181   4.885   8.446 -0.2650 -0.0705 -0.0389
 5101TIP3    H139498   3.119   4.926   8.507 -0.9312 -1.9316  0.6055
 5101TIP3    H239499   3.216   4.811   8.495  1.8623  0.4155 -0.7080
 5102TIP3   OH239500   5.454   1.388   9.040 -0.0363  0.6105  0.6311
 5102TIP3    H139501   5.370   1.349   9.013 -0.3380  1.7853 -0.2111
 5102TIP3    H239502   5.430   1.467   9.088  0.5899  0.7438  0.7349
 5103TIP3   OH239503   6.902   5.035   8.000  0.7121  0.2367 -0.7824
 5103TIP3    H139504   6.871   5.084   8.076  0.5236 -0.4221 -0.4325
 5103TIP3    H239505   6.959   5.097   7.954  0.2441  0.8810 -0.5077
 5104TIP3   OH239506   5.299   5.345   7.816  0.2759  0.1880 -0.5415
 5104TIP3    H139507   5.325   5.389   7.735  0.6537  1.4085  0.2286
 5104TIP3    H239508   5.238   5.406   7.858  0.7002 -0.0777  0.4846
 5105TIP3   OH239509   4.666   5.263   9.383 -0.3096  0.2502  0.2423
 5105TIP3    H139510   4.595   5.312   9.424 -0.7821  0.4337 -0.7783
 5105TIP3    H239511   4.635   5.243   9.295 -0.0063 -1.6258  0.5244
 5106TIP3   OH239512   1.603   2.990   7.205  0.7984 -0.2247  0.2241
 5106TIP3    H139513   1.638   2.987   7.116  2.0548 -2.8728  0.7105
 5106TIP3    H239514   1.528   2.931   7.203  0.4189  0.2238  0.7848
 5107TIP3   OH239515   2.814   5.755   7.683 -0.4353 -0.2676  0.4904
 5107TIP3    H139516   2.797   5.838   7.639  0.4129  0.1126  0.8571
 5107TIP3    H239517   2.834   5.694   7.612  3.2038  0.8583  0.2968
 5108TIP3   OH239518   5.226   3.933   8.842  0.4114 -0.3032 -0.1827
 5108TIP3    H139519   5.167   3.955   8.770 -0.5546 -0.7112  0.4597
 5108TIP3    H239520   5.278   4.012   8.856  0.3104 -0.0752 -1.0367
 5109TIP3   OH239521   6.171   4.506   7.998 -0.0834 -0.0540 -0.0382
 5109TIP3    H139522   6.111   4.502   8.072 -0.1685  0.3443 -0.0857
 5109TIP3    H239523   6.212   4.419   7.995 -0.4234 -0.2219  0.1878
 5110TIP3   OH239524   7.031   6.008   7.500  0.4118  0.0412 -0.4416
 5110TIP3    H139525   6.975   5.936   7.527  0.8779 -0.2585 -0.2579
 5110TIP3    H239526   7.035   6.066   7.576 -0.3309  0.5001 -0.7435
 5111TIP3   OH239527   7.212   2.403   7.829 -0.1128 -0.7042  0.0798
 5111TIP3    H139528   7.163   2.387   7.909  0.5320 -0.6811  0.4912
 5111TIP3    H239529   7.214   2.319   7.784 -0.5225 -0.7047  0.0638
 5112TIP3   OH239530   7.271   2.566   9.224 -0.0612 -0.0572 -0.1730
 5112TIP3    H139531   7.312   2.480   9.222  1.9957  0.8361  0.8451
 5112TIP3    H239532   7.185   2.551   9.264  1.4925 -1.2644  3.0904
 5113TIP3   OH239533   7.078   2.652   6.661 -0.0970 -0.1686  0.1997
 5113TIP3    H139534   7.053   2.560   6.658  0.5531 -0.3994  1.4321
 5113TIP3    H239535   7.173   2.652   6.647 -0.0471  0.2911  0.5192
 5114TIP3   OH239536   5.751   2.718   7.747  0.1479 -0.2719 -0.1288
 5114TIP3    H139537   5.772   2.657   7.676  1.4323  0.3259 -0.2925
 5114TIP3    H239538   5.773   2.669   7.826 -1.1247 -0.8776 -0.1272
 5115TIP3   OH239539   4.786   0.584   8.947  0.5294 -0.0289 -0.4749
 5115TIP3    H139540   4.822   0.532   9.019  1.1372 -0.5417 -1.1423
 5115TIP3    H239541   4.749   0.520   8.887 -0.0655  0.4046 -0.5767
 5116TIP3   OH239542   4.506   1.350   7.626  0.7554  0.3384 -0.7441
 5116TIP3    H139543   4.419   1.317   7.651  1.1556  0.7646  1.4046
 5116TIP3    H239544   4.488   1.411   7.555 -0.4102 -1.4714 -2.0917
 5117TIP3   OH239545   5.142   3.873   8.195 -0.4985  0.5247  0.4578
 5117TIP3    H139546   5.235   3.891   8.210  0.0971 -0.1279 -1.9476
 5117TIP3    H239547   5.109   3.840   8.278  1.7782 -0.5612  0.9873
 5118TIP3   OH239548   2.707   7.325   8.267  0.1236 -0.2082 -0.3588
 5118TIP3    H139549   2.747   7.290   8.347  1.3865 -2.3869 -1.8665
 5118TIP3    H239550   2.779   7.368   8.221 -0.4405  0.3735 -0.7142
 5119TIP3   OH239551   4.116   4.244   7.756  0.5606  0.2539  0.1982
 5119TIP3    H139552   4.200   4.262   7.798  0.1028  1.3470  0.6881
 5119TIP3    H239553   4.116   4.298   7.677  0.3874  0.1169  0.1018
 5120TIP3   OH239554   4.912   6.277   8.855 -0.0388 -0.3065 -0.2635
 5120TIP3    H139555   4.817   6.261   8.862 -0.2939  1.4320  0.8772
 5120TIP3    H239556   4.924   6.312   8.767 -0.1205 -2.3091 -1.1332
 5121TIP3   OH239557   6.408   5.620   7.387 -1.0025  0.0009 -0.2361
 5121TIP3    H139558   6.317   5.639   7.366 -0.5099  1.2051 -1.4295
 5121TIP3    H239559   6.456   5.699   7.361  0.5890 -1.1766 -1.1111
 5122TIP3   OH239560   5.133   0.374   9.242  0.1087 -0.1978  0.3157
 5122TIP3    H139561   5.203   0.385   9.177  0.0820  0.6806  0.4360
 5122TIP3    H239562   5.179   0.349   9.322  0.2317 -0.1874  0.2486
 5123TIP3   OH239563   1.660   1.888   7.675  0.4221  0.8023  0.0997
 5123TIP3    H139564   1.656   1.955   7.743  0.1754  0.2297  0.6494
 5123TIP3    H239565   1.574   1.891   7.633 -0.0965 -0.1120  1.0421
 5124TIP3   OH239566   6.641   1.070   7.954  0.2845 -0.3021 -0.8139
 5124TIP3    H139567   6.556   1.034   7.930 -0.6285  1.3445 -0.2873
 5124TIP3    H239568   6.620   1.139   8.018  2.0862 -0.4029 -0.0477
 5125TIP3   OH239569   0.130   0.523   8.720 -0.2467 -0.1137 -0.2465
 5125TIP3    H139570   0.124   0.453   8.786 -0.6802 -1.3707 -1.5730
 5125TIP3    H239571   0.095   0.483   8.640  0.4019  1.3323 -1.2794
 5126TIP3   OH239572   0.065   4.083   8.148 -0.1569  0.3871 -0.3934
 5126TIP3    H139573   0.112   4.136   8.084  0.7568 -1.0109 -0.9191
 5126TIP3    H239574   0.017   4.019   8.096 -2.1403  1.3218  0.1690
 5127TIP3   OH239575   6.032   3.454   8.665  0.0626  0.5696 -0.2541
 5127TIP3    H139576   6.087   3.490   8.596 -0.0019  1.2772  0.0575
 5127TIP3    H239577   5.944   3.452   8.627  0.4715 -1.7596 -1.2119
 5128TIP3   OH239578   1.134   3.913   6.407 -0.2254 -0.0934  0.2598
 5128TIP3    H139579   1.150   3.832   6.456  1.0215  0.8816  1.5433
 5128TIP3    H239580   1.067   3.889   6.343  1.9748 -2.8758 -1.2642
 5129TIP3   OH239581   3.472   7.216   8.598 -0.6934  0.1556  0.2053
 5129TIP3    H139582   3.449   7.206   8.691 -1.7492  0.7714  0.0250
 5129TIP3    H239583   3.564   7.241   8.599 -0.2930 -1.2233  1.0150
 5130TIP3   OH239584   0.550   4.824   8.559 -0.5855  0.0886 -0.2403
 5130TIP3    H139585   0.524   4.914   8.542 -0.6974 -0.0026 -0.5611
 5130TIP3    H239586   0.538   4.779   8.476 -1.8781 -0.5525  0.2661
 5131TIP3   OH239587   7.585   0.689   7.895 -0.4295  0.4928 -0.2570
 5131TIP3    H139588   7.548   0.776   7.886 -0.4281  0.6943  1.4210
 5131TIP3    H239589   7.678   0.700   7.873 -0.2759  1.0801  0.6432
 5132TIP3   OH239590   2.130   6.403   8.344 -0.3527  0.0835  0.0640
 5132TIP3    H139591   2.068   6.453   8.397  1.8991  0.1462  2.9182
 5132TIP3    H239592   2.177   6.349   8.407  1.6570 -0.8486 -2.0838
 5133TIP3   OH239593   0.164   0.775   8.586 -0.3379  0.3080  0.0879
 5133TIP3    H139594   0.166   0.831   8.663 -0.6061 -0.0048  0.3277
 5133TIP3    H239595   0.160   0.686   8.621  1.5270  0.0528 -0.2835
 5134TIP3   OH239596   0.341   4.086   6.436  0.6613 -0.3407 -0.3198
 5134TIP3    H139597   0.427   4.047   6.452  0.9288  0.4135  0.1147
 5134TIP3    H239598   0.357   4.153   6.370  0.2678 -0.7073 -0.7923
 5135TIP3   OH239599   2.398   6.900   8.631 -0.1085  0.4337  0.1876
 5135TIP3    H139600   2.352   6.818   8.651  0.7680  0.0872  0.8229
 5135TIP3    H239601   2.489   6.875   8.620 -0.0115  1.1614 -0.7782
 5136TIP3   OH239602   4.375   6.289   9.736  0.1139  0.2129  0.0593
 5136TIP3    H139603   4.339   6.377   9.739  0.3681  0.2852  1.6009
 5136TIP3    H239604   4.303   6.232   9.763 -0.3531 -0.2043 -1.8558
 5137TIP3   OH239605   0.851   4.975   6.706 -0.0978 -0.0124  0.0961
 5137TIP3    H139606   0.906   5.042   6.745 -0.7000 -0.4994  1.8855
 5137TIP3    H239607   0.898   4.893   6.721  0.3527 -0.1036 -1.5514
 5138TIP3   OH239608   1.715   3.742   7.798  0.0173  0.3376  0.2042
 5138TIP3    H139609   1.743   3.797   7.872  1.0425  0.3836 -0.1985
 5138TIP3    H239610   1.796   3.722   7.751 -0.8555  2.8287 -2.6895
 5139TIP3   OH239611   6.029   0.217   7.493 -0.6195 -0.2486  0.0114
 5139TIP3    H139612   6.073   0.135   7.471 -0.1009  0.1035 -0.2814
 5139TIP3    H239613   6.072   0.282   7.438  0.3194  0.5609  1.6377
 5140TIP3   OH239614   6.524   3.072   7.927  0.4633 -0.3184  0.2353
 5140TIP3    H139615   6.474   3.011   7.981  1.7178 -0.9879  0.6863
 5140TIP3    H239616   6.581   3.118   7.989  0.1982  0.6409 -0.2238
 5141TIP3   OH239617   3.921   2.808   9.352  1.0703  0.4994 -0.1459
 5141TIP3    H139618   3.898   2.814   9.259  1.6939  1.1312 -0.2571
 5141TIP3    H239619   3.973   2.728   9.359  2.0207  1.0669 -0.5550
 5142TIP3   OH239620   7.312   6.319   8.552  0.1899 -0.3609 -0.8468
 5142TIP3    H139621   7.403   6.342   8.534  0.3357 -1.1618 -1.1507
 5142TIP3    H239622   7.276   6.397   8.595  0.2524  1.0393 -3.1450
 5143TIP3   OH239623   2.745   0.689   9.241  0.0905 -0.3449 -0.2998
 5143TIP3    H139624   2.762   0.768   9.293  0.0275  0.0831 -0.9078
 5143TIP3    H239625   2.807   0.696   9.168 -1.5367  0.4129 -1.6806
 5144TIP3   OH239626   6.864   4.537   9.517  0.6495  0.1110  0.4367
 5144TIP3    H139627   6.892   4.465   9.574  0.8490 -0.1371  0.0322
 5144TIP3    H239628   6.900   4.616   9.559  1.4964 -0.1488  0.2262
 5145TIP3   OH239629   1.317   5.768   8.141  0.1682  0.2764  0.3332
 5145TIP3    H139630   1.312   5.691   8.197 -4.1436  1.6897  2.3730
 5145TIP3    H239631   1.313   5.842   8.201 -0.0025  2.0184 -1.6901
 5146TIP3   OH239632   1.729   0.594   8.147 -0.1326 -0.0593  0.4616
 5146TIP3    H139633   1.729   0.500   8.166 -0.5823  0.1837  1.7736
 5146TIP3    H239634   1.658   0.630   8.200  1.0007  1.2348  1.1713
 5147TIP3   OH239635   0.987   2.422   8.367 -0.0577 -0.3974 -0.1340
 5147TIP3    H139636   0.958   2.505   8.406  0.4555 -0.0536 -0.4710
 5147TIP3    H239637   1.082   2.425   8.373  0.2887  0.9077 -3.7494
 5148TIP3   OH239638   1.082   0.419   7.783 -0.2765  0.2333  0.1772
 5148TIP3    H139639   1.161   0.366   7.777 -0.6068 -0.1911 -0.5099
 5148TIP3    H239640   1.044   0.395   7.868  1.3501  1.9229  1.4787
 5149TIP3   OH239641   1.774   2.628   9.217  0.3700  0.2337  0.0380
 5149TIP3    H139642   1.803   2.553   9.165  2.8931 -0.2799  2.0032
 5149TIP3    H239643   1.695   2.597   9.261 -0.1862 -0.2738 -1.2513
 5150TIP3   OH239644   6.171   0.619   7.737 -0.0939  0.5845  0.4139
 5150TIP3    H139645   6.094   0.627   7.681  0.0441  0.7997  0.2541
 5150TIP3    H239646   6.158   0.684   7.806  0.6473  1.6850 -0.4423
 5151TIP3   OH239647   4.148   2.363   7.495  0.2134 -0.2043 -0.6785
 5151TIP3    H139648   4.224   2.401   7.538 -0.6663  0.3108  0.4567
 5151TIP3    H239649   4.177   2.276   7.466  1.9358  0.8795 -2.4172
 5152TIP3   OH239650   6.840   7.501   7.562 -0.2361  0.3875  0.3934
 5152TIP3    H139651   6.776   7.572   7.556 -0.4067  0.2464  0.5119
 5152TIP3    H239652   6.787   7.422   7.565 -0.0970  0.3284  1.6175
 5153TIP3   OH239653   2.084   7.180   9.384 -0.3298 -0.5731 -0.0140
 5153TIP3    H139654   2.080   7.260   9.437 -0.5758 -1.0513  0.7126
 5153TIP3    H239655   2.155   7.195   9.322 -1.0842  0.6416 -0.6193
 5154TIP3   OH239656   6.794   5.447   8.593  0.6248 -0.1828  0.1275
 5154TIP3    H139657   6.785   5.529   8.641 -0.2095  1.0606 -2.0389
 5154TIP3    H239658   6.778   5.379   8.659  2.4271  1.3020  2.2029
 5155TIP3   OH239659   5.280   1.147   8.663  0.0946  0.5224 -0.0720
 5155TIP3    H139660   5.361   1.196   8.646 -1.0161  2.6738  0.4789
 5155TIP3    H239661   5.308   1.070   8.713  1.6773  1.9081  1.2902
 5156TIP3   OH239662   6.754   5.891   9.008  0.1735 -0.0179  0.2933
 5156TIP3    H139663   6.832   5.939   8.979  0.0003 -0.2341 -0.5444
 5156TIP3    H239664   6.685   5.957   9.012  0.2099  0.0206  0.2882
 5157TIP3   OH239665   3.408   1.961   9.058 -0.5479 -0.2081  0.7567
 5157TIP3    H139666   3.328   1.948   9.110 -0.8994 -0.3817  0.1872
 5157TIP3    H239667   3.394   1.909   8.979 -0.4789  0.8480  0.0146
 5158TIP3   OH239668   7.426   5.988   8.245 -0.3652  0.3789  0.0405
 5158TIP3    H139669   7.352   5.999   8.305 -0.1701  0.8167  0.2104
 5158TIP3    H239670   7.452   5.897   8.254  0.3190  0.6886  1.4033
 5159TIP3   OH239671   3.427   4.319   8.284  0.2603  0.0855 -0.1326
 5159TIP3    H139672   3.445   4.239   8.235  1.6828  0.0455  0.4033
 5159TIP3    H239673   3.363   4.366   8.230 -1.0760 -1.6661 -0.1559
 5160TIP3   OH239674   1.294   1.311   7.597  0.0831  0.4866 -0.9136
 5160TIP3    H139675   1.243   1.383   7.560  1.5297  1.2938 -1.4015
 5160TIP3    H239676   1.300   1.330   7.690 -2.9682 -1.1812 -0.2269
 5161TIP3   OH239677   6.536   3.766   9.296 -0.2503 -0.1828  0.3215
 5161TIP3    H139678   6.603   3.713   9.339 -0.1461 -0.3630 -0.0597
 5161TIP3    H239679   6.572   3.785   9.209 -1.0860 -1.0877 -0.2483
 5162TIP3   OH239680   0.674   2.333   7.538 -0.0896 -0.2944  0.4043
 5162TIP3    H139681   0.749   2.312   7.594  1.5222  0.4952 -1.3215
 5162TIP3    H239682   0.617   2.256   7.544  0.3243 -0.5032  2.5499
 5163TIP3   OH239683   4.652   5.515   6.860  0.2208  0.2503  0.4176
 5163TIP3    H139684   4.702   5.586   6.819  1.3023 -0.2314  0.8810
 5163TIP3    H239685   4.707   5.438   6.851 -0.4114 -0.2837  1.0055
 5164TIP3   OH239686   6.685   0.035   7.587 -0.0130 -0.0132  0.1542
 5164TIP3    H139687   6.736   0.101   7.541 -1.3947  0.4650 -0.7217
 5164TIP3    H239688   6.613   0.083   7.627 -0.2148 -0.7890  0.7542
 5165TIP3   OH239689   3.512   0.929   9.526  0.3759  1.2354  0.2798
 5165TIP3    H139690   3.442   0.941   9.591 -0.2988  1.9296 -0.5406
 5165TIP3    H239691   3.478   0.972   9.447  1.2017  0.4735 -0.5125
 5166TIP3   OH239692   4.710   2.977   7.935 -0.7368  0.9726 -0.1801
 5166TIP3    H139693   4.691   3.067   7.962  0.0303  1.0852 -0.0108
 5166TIP3    H239694   4.625   2.933   7.940 -1.3264  1.9321 -1.2676
 5167TIP3   OH239695   0.863   2.756   9.097  0.3353 -0.2559  0.1279
 5167TIP3    H139696   0.887   2.713   9.179 -1.7759 -0.3091  0.7731
 5167TIP3    H239697   0.945   2.794   9.065  0.9287  1.3184  3.1734
 5168TIP3   OH239698   0.624   0.642   9.165 -0.1292  0.5902  0.4392
 5168TIP3    H139699   0.584   0.559   9.138  0.1125  0.7769 -0.5269
 5168TIP3    H239700   0.695   0.615   9.224 -1.5284  0.2541  2.0416
 5169TIP3   OH239701   0.745   0.804   8.872 -0.0055  0.0954  0.1229
 5169TIP3    H139702   0.749   0.793   8.777 -0.5488  0.5207  0.0440
 5169TIP3    H239703   0.679   0.740   8.900  1.2159 -1.0992  0.4131
 5170TIP3   OH239704   5.565   2.882   7.183 -0.4949  0.3425 -0.2185
 5170TIP3    H139705   5.532   2.972   7.182 -0.6423  0.3105  0.9763
 5170TIP3    H239706   5.528   2.843   7.262 -0.1745 -0.6799 -0.5505
 5171TIP3   OH239707   5.629   4.435   9.304  0.9931 -0.5639 -0.2256
 5171TIP3    H139708   5.724   4.426   9.298  1.1467  0.6170  0.1616
 5171TIP3    H239709   5.614   4.529   9.319 -0.2392 -0.7057 -0.4268
 5172TIP3   OH239710   0.307   1.036   7.650 -0.3141 -0.3197 -0.2989
 5172TIP3    H139711   0.379   0.980   7.624 -0.9133 -0.5956 -1.4294
 5172TIP3    H239712   0.276   0.999   7.733  0.3059 -0.6920 -0.2287
 5173TIP3   OH239713   5.103   6.240   9.597  0.1452  0.4160 -0.1781
 5173TIP3    H139714   5.035   6.183   9.633  0.2907 -0.3185 -1.0397
 5173TIP3    H239715   5.146   6.187   9.530  3.2722 -0.0884  2.0041
 5174TIP3   OH239716   5.183   4.846   7.676 -0.5606 -0.3931 -0.6146
 5174TIP3    H139717   5.161   4.779   7.611 -1.0239  0.3891 -1.2722
 5174TIP3    H239718   5.101   4.865   7.720 -0.8615  1.1834 -1.8004
 5175TIP3   OH239719   0.689   7.513   7.494 -0.1775 -0.2247 -0.1080
 5175TIP3    H139720   0.596   7.503   7.512 -0.4916  2.0079 -0.2374
 5175TIP3    H239721   0.703   7.464   7.413 -1.4273  0.0582 -0.5228
 5176TIP3   OH239722   0.448   6.975   8.781  0.4098 -0.1576 -0.1244
 5176TIP3    H139723   0.522   6.934   8.827  0.5365  2.0384  1.7975
 5176TIP3    H239724   0.461   7.069   8.794 -1.9359  0.3537 -1.0231
 5177TIP3   OH239725   7.419   1.062   8.251 -0.1991 -0.1183 -0.3434
 5177TIP3    H139726   7.512   1.058   8.232 -0.4402 -1.1434 -1.4168
 5177TIP3    H239727   7.378   1.012   8.181 -1.5746  0.4466  0.0245
 5178TIP3   OH239728   5.161   2.886   7.368  0.0683 -0.5966 -0.3240
 5178TIP3    H139729   5.153   2.810   7.310 -0.4448  0.3421 -1.5283
 5178TIP3    H239730   5.086   2.879   7.427 -1.2066  0.0714 -1.8003
 5179TIP3   OH239731   0.590   0.018   9.514 -0.2371  0.7122  0.7325
 5179TIP3    H139732   0.601   0.080   9.442  1.6556  1.1785  1.3468
 5179TIP3    H239733   0.674   0.020   9.560 -0.9691 -0.4905  2.2278
 5180TIP3   OH239734   0.725   2.441   9.097 -0.7656  0.1789 -0.2529
 5180TIP3    H139735   0.709   2.424   9.004 -2.4116 -0.7360  0.1503
 5180TIP3    H239736   0.648   2.491   9.125 -0.2253  0.5491  0.5904
 5181TIP3   OH239737   4.819   1.703   7.834 -0.0218  0.2553  0.9412
 5181TIP3    H139738   4.784   1.747   7.756  0.1351  1.7020  1.6385
 5181TIP3    H239739   4.913   1.718   7.830  0.4084 -2.3558 -0.1647
 5182TIP3   OH239740   6.090   3.440   7.046 -0.0275  0.0784  0.7048
 5182TIP3    H139741   6.085   3.409   7.136 -1.9831 -0.4600  0.4563
 5182TIP3    H239742   6.035   3.380   6.997  1.8820 -0.3091 -1.0892
 5183TIP3   OH239743   3.622   7.158   7.834 -0.2202  0.0340  0.2340
 5183TIP3    H139744   3.526   7.163   7.836 -0.1836  0.5867  1.6756
 5183TIP3    H239745   3.643   7.134   7.744 -1.7525 -0.9609  0.1133
 5184TIP3   OH239746   0.532   5.925   7.953  0.0453 -0.2087 -0.3980
 5184TIP3    H139747   0.449   5.878   7.946  0.8099 -2.0674  1.8157
 5184TIP3    H239748   0.545   5.964   7.866 -2.6455 -0.6508 -1.0833
 5185TIP3   OH239749   4.626   6.783   8.866 -0.4516  0.5146 -0.1490
 5185TIP3    H139750   4.612   6.861   8.919 -0.9781  2.7288 -3.2112
 5185TIP3    H239751   4.541   6.738   8.866 -0.6251  0.8406  0.3894
 5186TIP3   OH239752   7.384   0.135   7.104 -0.2205 -0.3406 -0.4391
 5186TIP3    H139753   7.309   0.176   7.061 -0.8706 -1.6271 -0.5886
 5186TIP3    H239754   7.447   0.120   7.034 -0.2670 -0.2225 -0.5055
 5187TIP3   OH239755   0.468   7.358   7.924 -0.7328  0.3515 -0.1099
 5187TIP3    H139756   0.502   7.314   7.846 -0.7920 -1.4539  0.8154
 5187TIP3    H239757   0.533   7.424   7.945  1.6359 -2.0740  0.8204
 5188TIP3   OH239758   3.161   7.041   8.753 -0.0567 -0.3394  0.6390
 5188TIP3    H139759   3.185   7.039   8.661 -1.0645 -2.8146  0.3359
 5188TIP3    H239760   3.187   7.128   8.784  1.1728  0.1938 -1.7157
 5189TIP3   OH239761   2.897   6.702   6.667 -0.0791 -0.5359 -0.1453
 5189TIP3    H139762   2.876   6.783   6.621  1.8667 -0.2511 -0.6534
 5189TIP3    H239763   2.813   6.668   6.697 -0.9195  1.9586  0.6105
 5190TIP3   OH239764   2.243   2.168   7.856  0.0212  0.1434 -0.0635
 5190TIP3    H139765   2.274   2.182   7.766  0.9654  0.2365  0.2556
 5190TIP3    H239766   2.323   2.144   7.904 -0.6511 -0.9731  0.5338
 5191TIP3   OH239767   2.304   0.027   8.023  0.7144  0.2624 -0.3651
 5191TIP3    H139768   2.250   0.016   8.102 -0.5025  0.4069 -1.1458
 5191TIP3    H239769   2.370  -0.042   8.030 -1.5170 -2.1267 -0.9229
 5192TIP3   OH239770   7.432   1.268   7.444 -0.5905  0.0365 -0.1678
 5192TIP3    H139771   7.489   1.288   7.519 -0.7376 -0.1437 -0.0050
 5192TIP3    H239772   7.479   1.200   7.396  0.4925  1.5782 -1.4031
 5193TIP3   OH239773   2.520   2.879   8.380  0.0190 -0.1539 -0.0302
 5193TIP3    H139774   2.461   2.803   8.373 -1.4424  0.7890  1.4751
 5193TIP3    H239775   2.595   2.846   8.429 -0.2965 -0.7961  0.0403
 5194TIP3   OH239776   7.468   2.553   8.943 -1.4861  0.7696  0.0224
 5194TIP3    H139777   7.481   2.515   9.030 -2.2963  2.2383  0.8216
 5194TIP3    H239778   7.469   2.478   8.884 -1.0943 -0.2796  1.3155
 5195TIP3   OH239779   5.775   1.521   8.277 -0.3638  0.1205 -0.0117
 5195TIP3    H139780   5.703   1.459   8.293 -1.1276  1.4503  2.1783
 5195TIP3    H239781   5.736   1.589   8.221 -0.4372  0.1835  0.1155
 5196TIP3   OH239782   4.875   7.290   9.497 -0.3760 -0.4997  0.4873
 5196TIP3    H139783   4.844   7.272   9.409 -0.8572  0.2874  0.4791
 5196TIP3    H239784   4.802   7.337   9.539  0.0278 -0.4397  1.1433
 5197TIP3   OH239785   3.062   5.139   8.029 -0.3440  0.5810 -0.2157
 5197TIP3    H139786   3.126   5.077   8.063 -2.4329 -0.8140  1.4429
 5197TIP3    H239787   3.087   5.223   8.067 -2.2159 -0.7639  4.7894
 5198TIP3   OH239788   0.631   6.665   7.687 -0.0604  0.4418 -0.3430
 5198TIP3    H139789   0.636   6.623   7.773 -0.0980  2.1107  0.5156
 5198TIP3    H239790   0.578   6.606   7.634  0.0930 -0.6913  0.7247
 5199TIP3   OH239791   3.946   5.979   8.644 -0.2143 -0.0545 -0.5621
 5199TIP3    H139792   4.015   6.035   8.608 -1.2208  1.1870 -0.6720
 5199TIP3    H239793   3.891   5.957   8.568 -1.0225  0.6120 -0.1924
 5200TIP3   OH239794   5.546   1.568   9.305  0.2677  0.0152 -0.2290
 5200TIP3    H139795   5.456   1.591   9.284 -0.0900 -1.4755 -0.4186
 5200TIP3    H239796   5.542   1.477   9.334  1.7078 -0.0825 -0.2472
 5201TIP3   OH239797   1.306   2.305   7.095 -0.8912 -0.2113 -0.1196
 5201TIP3    H139798   1.344   2.356   7.023 -2.7689 -2.5651 -3.0634
 5201TIP3    H239799   1.265   2.370   7.152 -0.8711  1.7316 -2.1638
 5202TIP3   OH239800   0.034   4.181   7.020  0.4768  0.0747 -0.0512
 5202TIP3    H139801   0.080   4.258   6.985 -0.1831  0.8407  0.7040
 5202TIP3    H239802  -0.057   4.210   7.029  0.6831  0.1287  2.7779
 5203TIP3   OH239803   3.289   6.441   9.063 -0.6199  0.2073  0.0275
 5203TIP3    H139804   3.289   6.375   9.133  3.0019 -1.0313 -0.8858
 5203TIP3    H239805   3.302   6.524   9.109 -0.6109 -0.2911  0.9652
 5204TIP3   OH239806   1.380   5.988   8.892 -0.1959  0.0401  0.2034
 5204TIP3    H139807   1.301   5.990   8.838  0.1214 -0.9593 -0.2986
 5204TIP3    H239808   1.355   6.038   8.971 -1.1829  0.1038 -0.1341
 5205TIP3   OH239809   6.473   7.007   9.353 -0.1703  0.5305 -0.2360
 5205TIP3    H139810   6.535   6.986   9.423 -2.4910 -1.0619  1.4972
 5205TIP3    H239811   6.524   6.995   9.272  2.2546  1.1801  1.0786
 5206TIP3   OH239812   5.908   6.284   7.861 -0.0262 -0.1175 -0.7323
 5206TIP3    H139813   5.845   6.219   7.891 -1.3199  0.6187 -1.7275
 5206TIP3    H239814   5.855   6.361   7.842  1.7109  2.2589  2.9782
 5207TIP3   OH239815   4.370   1.591   8.226  0.5673  0.0517  0.6232
 5207TIP3    H139816   4.378   1.684   8.204 -0.5970  0.2739  1.0722
 5207TIP3    H239817   4.456   1.555   8.206  0.7277  1.0113 -0.5499
 5208TIP3   OH239818   6.261   6.250   7.577  0.5563  0.0188 -0.0631
 5208TIP3    H139819   6.286   6.273   7.487  0.7856  0.1744  0.0419
 5208TIP3    H239820   6.313   6.172   7.597 -0.0737 -0.4891 -0.3465
 5209TIP3   OH239821   4.329   6.588   9.714 -0.2041  0.5979  0.4585
 5209TIP3    H139822   4.368   6.659   9.662  1.1335 -0.4301 -0.0067
 5209TIP3    H239823   4.235   6.605   9.710  0.0030  1.6739 -0.6343
 5210TIP3   OH239824   1.493   6.842   7.809  0.0994  0.4711 -0.0542
 5210TIP3    H139825   1.424   6.883   7.757 -0.3309  0.8507  0.7919
 5210TIP3    H239826   1.527   6.772   7.753  0.5132  1.6405 -1.3504
 5211TIP3   OH239827   5.386   3.909   8.517 -0.4472  0.3540 -0.2336
 5211TIP3    H139828   5.418   3.984   8.567  1.0833  1.3644 -2.5524
 5211TIP3    H239829   5.465   3.859   8.496 -1.2794 -1.1027 -0.0510
 5212TIP3   OH239830   3.619   1.214   9.089 -0.0617  0.0528  0.3221
 5212TIP3    H139831   3.630   1.121   9.070 -0.6470 -0.3211  1.6675
 5212TIP3    H239832   3.697   1.238   9.140  0.2116  0.3691 -0.2381
 5213TIP3   OH239833   2.436   1.540   8.894  0.3971  0.0101  0.4685
 5213TIP3    H139834   2.371   1.494   8.947  1.2328  1.6097  3.0594
 5213TIP3    H239835   2.514   1.483   8.896  0.5100  0.1833  1.2189
 5214TIP3   OH239836   2.118   3.170   9.376  0.7163  0.2049  0.6719
 5214TIP3    H139837   2.055   3.227   9.420 -0.4495  0.5284 -1.2815
 5214TIP3    H239838   2.148   3.221   9.301  2.2333 -0.5107  0.7613
 5215TIP3   OH239839   1.456   3.454   7.588  0.2555 -0.1639 -0.0563
 5215TIP3    H139840   1.384   3.505   7.552  0.2359 -0.0227  0.1809
 5215TIP3    H239841   1.534   3.488   7.543  0.1786 -0.2884 -0.2815
 5216TIP3   OH239842   4.116   3.087   7.274 -0.0183 -0.0990  0.1451
 5216TIP3    H139843   4.059   3.106   7.348 -0.5659  0.4429 -0.4060
 5216TIP3    H239844   4.156   3.171   7.251 -0.0657 -0.2030 -0.3452
 5217TIP3   OH239845   6.108   3.789   8.718 -0.5723 -0.2447  0.0649
 5217TIP3    H139846   6.167   3.716   8.698 -0.5913  0.0992 -1.3401
 5217TIP3    H239847   6.167   3.859   8.748 -0.0606  0.4429 -2.2850
 5218TIP3   OH239848   4.403   2.956   8.408 -0.2948 -0.5037 -0.2628
 5218TIP3    H139849   4.445   2.870   8.403 -0.3716 -0.5555 -0.0465
 5218TIP3    H239850   4.338   2.955   8.338 -0.8632 -0.9368  0.2608
 5219TIP3   OH239851   1.937   4.281   8.472  0.1920  0.0500  0.1454
 5219TIP3    H139852   2.026   4.310   8.454  1.1226 -3.6226 -2.4430
 5219TIP3    H239853   1.942   4.239   8.558  0.9168  0.1064  0.1341
 5220TIP3   OH239854   7.174   3.402   7.676  0.0992  0.1371 -0.4346
 5220TIP3    H139855   7.164   3.325   7.621  0.4939 -0.3407  0.1415
 5220TIP3    H239856   7.221   3.465   7.621 -0.0027 -0.1273 -0.8247
 5221TIP3   OH239857   4.207   6.029   9.587  0.1943 -0.0318  0.1908
 5221TIP3    H139858   4.142   5.973   9.543 -0.3861  0.7642  0.0075
 5221TIP3    H239859   4.283   5.973   9.598  0.0354 -0.5250 -1.0314
 5222TIP3   OH239860   4.085   1.657   8.689  0.5452 -0.4985 -0.3275
 5222TIP3    H139861   4.053   1.608   8.764  1.3673 -3.4221 -1.7302
 5222TIP3    H239862   4.172   1.687   8.715  0.1352  0.0292  0.4667
 5223TIP3   OH239863   1.759   3.812   9.575  0.2457  1.0080  0.8382
 5223TIP3    H139864   1.711   3.894   9.571  1.6510  1.8854 -3.1205
 5223TIP3    H239865   1.847   3.833   9.542  0.2610 -2.1604 -1.7537
 5224TIP3   OH239866   0.901   2.193   6.990 -0.3844  0.4341  0.0218
 5224TIP3    H139867   0.976   2.158   7.037 -0.0564  1.6743  0.4333
 5224TIP3    H239868   0.846   2.116   6.973  0.3839 -0.3011  0.7774
 5225TIP3   OH239869   7.096   1.871   8.617 -0.1845 -0.5877 -0.3617
 5225TIP3    H139870   7.168   1.875   8.681 -0.3245  1.1939 -0.2770
 5225TIP3    H239871   7.140   1.865   8.532  0.0868  0.5679 -0.3146
 5226TIP3   OH239872   4.313   7.063   6.653  0.5888 -0.3376 -0.6782
 5226TIP3    H139873   4.284   7.154   6.640 -0.4160 -0.7910 -1.7534
 5226TIP3    H239874   4.397   7.072   6.698  0.9775  1.1700 -1.5937
 5227TIP3   OH239875   6.437   6.449   8.620  0.2142  0.3110 -0.5410
 5227TIP3    H139876   6.399   6.532   8.594  0.2598  1.0159  1.5094
 5227TIP3    H239877   6.379   6.383   8.582 -1.5818  1.3232  0.3127
 5228TIP3   OH239878   3.753   2.850   8.251 -0.5043  0.1014 -0.7993
 5228TIP3    H139879   3.688   2.843   8.320 -0.1256  0.3827 -0.4027
 5228TIP3    H239880   3.828   2.800   8.283 -0.9496 -1.2388 -1.7805
 5229TIP3   OH239881   5.741   3.398   9.144  0.1554  0.2374  0.1029
 5229TIP3    H139882   5.662   3.451   9.146  0.4850  0.7316  0.4676
 5229TIP3    H239883   5.795   3.438   9.076  0.4797  0.4943  0.5019
 5230TIP3   OH239884   4.789   2.566   8.831  0.3100  0.0098 -0.0913
 5230TIP3    H139885   4.818   2.496   8.888 -0.4416  0.3812  0.7858
 5230TIP3    H239886   4.765   2.637   8.891  1.2921  1.1122 -0.9600
 5231TIP3   OH239887   7.379   4.504   8.159  0.1627  0.5213 -0.0793
 5231TIP3    H139888   7.367   4.562   8.234  0.7848 -0.2298  0.6149
 5231TIP3    H239889   7.466   4.526   8.125  0.0112  0.6424 -0.3922
 5232TIP3   OH239890   5.423   2.772   7.389  0.8784  1.0344  0.7037
 5232TIP3    H139891   5.442   2.736   7.476  0.7775  0.9732  0.6998
 5232TIP3    H239892   5.342   2.820   7.399  0.9164  1.1071  0.6648
 5233TIP3   OH239893   2.553   0.085   8.577  0.5906 -0.2050 -0.4756
 5233TIP3    H139894   2.576  -0.007   8.590  0.7065 -0.2919 -1.2399
 5233TIP3    H239895   2.632   0.124   8.541  0.9503  0.4844  0.9665
 5234TIP3   OH239896   5.773   1.803   7.713  0.1268  0.1007 -0.6235
 5234TIP3    H139897   5.855   1.764   7.744 -0.8499 -0.7276  1.1399
 5234TIP3    H239898   5.710   1.783   7.783 -1.5523  0.8021 -1.8668
 5235TIP3   OH239899   2.220   1.207   9.183 -0.5927  0.3720 -0.3637
 5235TIP3    H139900   2.233   1.142   9.114  1.6937 -0.1963  0.4940
 5235TIP3    H239901   2.285   1.184   9.250 -1.3163  2.1465  1.0330
 5236TIP3   OH239902   7.448   6.835   8.365 -0.3236 -0.1396 -0.3104
 5236TIP3    H139903   7.433   6.764   8.303 -0.6598 -0.5454  0.2275
 5236TIP3    H239904   7.470   6.911   8.311 -2.2300 -0.0585 -1.0341
 5237TIP3   OH239905   2.571   7.265   8.587  0.2973 -1.2040  0.6491
 5237TIP3    H139906   2.503   7.220   8.537 -0.1234 -0.4216  0.4985
 5237TIP3    H239907   2.653   7.228   8.555  0.2743  1.2338 -2.8042
 5238TIP3   OH239908   6.980   3.549   7.425 -0.1402 -0.4346 -0.2902
 5238TIP3    H139909   6.904   3.494   7.446  0.7305 -1.2385  0.9181
 5238TIP3    H239910   6.957   3.590   7.342 -1.9136 -0.6129  0.0620
 5239TIP3   OH239911   6.016   2.821   8.133 -0.1787 -0.1767  0.3306
 5239TIP3    H139912   6.050   2.894   8.081 -0.4984  0.5402  1.1027
 5239TIP3    H239913   6.084   2.804   8.198 -1.1655  1.1604  1.7821
 5240TIP3   OH239914   6.663   5.662   9.618 -0.5038  0.3904 -0.0080
 5240TIP3    H139915   6.745   5.620   9.642 -0.7782 -0.8449 -1.1270
 5240TIP3    H239916   6.668   5.749   9.657  0.3043 -0.4908  1.9567
 5241TIP3   OH239917   3.821   1.320   8.429  0.3500 -0.2743 -0.6583
 5241TIP3    H139918   3.914   1.317   8.454  0.4991  1.3858 -0.9563
 5241TIP3    H239919   3.777   1.268   8.497  1.3553 -0.1627  0.1097
 5242TIP3   OH239920   4.616   3.900   8.548 -0.8590 -0.0834  0.3095
 5242TIP3    H139921   4.692   3.843   8.533 -1.4958 -0.9840  0.4384
 5242TIP3    H239922   4.602   3.944   8.464 -1.2357 -1.2045 -0.2283
 5243TIP3   OH239923   7.082   2.144   7.055  0.9449 -0.2688  0.2152
 5243TIP3    H139924   7.038   2.116   6.975  0.2062  0.4624  0.3505
 5243TIP3    H239925   7.060   2.237   7.063 -0.3433 -0.6983  2.1308
 5244TIP3   OH239926   2.018   7.091   7.214 -0.3382  0.1127 -0.3871
 5244TIP3    H139927   2.075   7.028   7.257 -1.7014 -1.0279 -0.1725
 5244TIP3    H239928   2.057   7.105   7.128  1.0503  0.5055  0.2867
 5245TIP3   OH239929   3.813   1.936   8.458 -0.7304 -0.9771 -0.1110
 5245TIP3    H139930   3.803   1.864   8.396  0.1541 -1.8504  0.7270
 5245TIP3    H239931   3.768   1.906   8.537 -2.8867  0.6062 -0.6345
 5246TIP3   OH239932   0.246   2.223   7.050  0.4531  0.0793 -0.2601
 5246TIP3    H139933   0.193   2.216   6.970  2.1693  0.3689 -1.4799
 5246TIP3    H239934   0.237   2.138   7.092 -0.1244 -0.2382 -1.0054
 5247TIP3   OH239935   0.665   7.372   8.587 -0.5686 -0.1583  0.0919
 5247TIP3    H139936   0.613   7.353   8.509  0.0024  1.3507 -0.6876
 5247TIP3    H239937   0.740   7.313   8.582 -1.2984 -1.1274  0.3167
 5248TIP3   OH239938   0.132   1.903   6.910 -0.1917  0.3195  0.3526
 5248TIP3    H139939   0.165   1.817   6.885 -1.1563  0.5350 -1.8981
 5248TIP3    H239940   0.196   1.965   6.875 -1.6829  0.6398 -2.0201
 5249TIP3   OH239941   5.035   2.356   7.732 -0.5614  0.1389  0.4126
 5249TIP3    H139942   5.045   2.443   7.694 -2.5135  0.2745  0.1116
 5249TIP3    H239943   5.116   2.311   7.709 -0.1994  1.3490 -0.8582
 5250TIP3   OH239944   5.790   4.914   8.448  0.3793  0.7084 -0.1896
 5250TIP3    H139945   5.825   4.870   8.371 -0.3902  0.3202 -0.3288
 5250TIP3    H239946   5.759   4.843   8.504  0.2496  1.0209  0.1382
 5251TIP3   OH239947   4.318   0.258   8.265  0.2841  0.3190  0.6346
 5251TIP3    H139948   4.296   0.298   8.350  0.4427  0.6489  0.5235
 5251TIP3    H239949   4.393   0.308   8.234  1.5075 -1.1048  1.2190
 5252TIP3   OH239950   5.724   0.532   9.429  0.0503  0.3858  0.0930
 5252TIP3    H139951   5.676   0.576   9.358 -0.3977  1.2719  0.9249
 5252TIP3    H239952   5.816   0.535   9.401 -0.1989 -0.0248 -0.8304
 5253TIP3   OH239953   0.270   2.963   9.338 -0.5303 -0.3029  0.0138
 5253TIP3    H139954   0.331   3.032   9.363 -1.0741  0.2455 -0.1336
 5253TIP3    H239955   0.206   2.961   9.409 -0.7044 -0.4268 -0.1459
 5254TIP3   OH239956   1.318   2.279   8.795  0.0782  0.6909 -0.5354
 5254TIP3    H139957   1.249   2.336   8.760  0.4224  1.3791 -0.1141
 5254TIP3    H239958   1.272   2.199   8.819 -1.1135  2.0669  2.1934
 5255TIP3   OH239959   5.909   3.769   8.923 -0.0066  0.1509  0.1353
 5255TIP3    H139960   5.977   3.809   8.977  0.6417 -1.2223  0.3676
 5255TIP3    H239961   5.952   3.750   8.840 -0.5705  0.7778 -0.3160
 5256TIP3   OH239962   6.169   7.485   8.445  0.0185  0.3516  0.2355
 5256TIP3    H139963   6.104   7.414   8.444  0.1685  0.2175 -0.5718
 5256TIP3    H239964   6.254   7.440   8.450  0.1780  0.4068 -1.4930
 5257TIP3   OH239965   3.579   1.013   7.898 -0.3213  0.0578  0.1717
 5257TIP3    H139966   3.551   1.071   7.828 -1.4712 -1.0180 -0.3075
 5257TIP3    H239967   3.517   1.030   7.970 -0.1671 -0.0007  0.3190
 5258TIP3   OH239968   2.249   3.760   9.183  0.3654 -0.0146 -0.5816
 5258TIP3    H139969   2.275   3.811   9.260  0.3770 -0.0576 -0.5566
 5258TIP3    H239970   2.329   3.756   9.130  0.1815  0.5822 -0.9109
 5259TIP3   OH239971   1.148   4.268   7.406 -0.1159  0.3694 -0.4432
 5259TIP3    H139972   1.203   4.253   7.328 -1.3866 -0.2709 -1.2547
 5259TIP3    H239973   1.105   4.352   7.389 -1.4029 -0.3908 -1.0855
 5260TIP3   OH239974   3.496   6.512   7.149  0.0174 -0.5183  1.0980
 5260TIP3    H139975   3.453   6.597   7.157  1.3304  0.1589  1.1808
 5260TIP3    H239976   3.505   6.498   7.055  0.1707 -0.3840  1.0935
 5261TIP3   OH239977   2.074   2.244   8.647 -0.1786 -0.3966 -0.6979
 5261TIP3    H139978   2.083   2.292   8.565  2.2737 -0.3962 -0.4874
 5261TIP3    H239979   2.075   2.152   8.622  1.4719 -0.4134 -0.6284
 5262TIP3   OH239980   4.453   5.620   7.877  0.4517  0.8005  0.3865
 5262TIP3    H139981   4.444   5.644   7.969  1.2477 -0.6776  0.8630
 5262TIP3    H239982   4.540   5.651   7.853  0.6616  0.2418  0.4269
 5263TIP3   OH239983   6.793   0.422   8.933 -0.2397  0.3144 -0.4009
 5263TIP3    H139984   6.849   0.428   8.855 -0.7187 -0.6374 -0.8298
 5263TIP3    H239985   6.855   0.412   9.005  0.2283  1.6288 -0.5933
 5264TIP3   OH239986   6.391   7.652   7.802  0.1236 -0.0142  0.0815
 5264TIP3    H139987   6.402   7.698   7.885  2.6849 -1.7048  0.8234
 5264TIP3    H239988   6.392   7.720   7.736 -0.3548  1.2621  1.3412
 5265TIP3   OH239989   1.352   0.241   7.817 -0.1418  0.5920 -0.2664
 5265TIP3    H139990   1.426   0.293   7.848 -0.0118  0.0867  0.2845
 5265TIP3    H239991   1.368   0.231   7.723  0.0999  1.1033 -0.2855
 5266TIP3   OH239992   0.003   4.963   6.422  0.1366 -0.2199 -0.5080
 5266TIP3    H139993   0.091   4.928   6.406 -0.1388 -1.1648 -0.0178
 5266TIP3    H239994  -0.050   4.928   6.350  0.4419  1.5291 -1.6377
 5267TIP3   OH239995   1.388   3.502   8.080 -0.1081  0.4246 -0.0386
 5267TIP3    H139996   1.293   3.517   8.078 -0.3675 -1.0149  0.1852
 5267TIP3    H239997   1.408   3.465   7.994 -0.1967 -1.5028  0.7105
 5268TIP3   OH239998   2.810   4.547   9.254 -0.5824 -0.2867 -0.0159
 5268TIP3    H139999   2.819   4.543   9.159 -0.9067  0.4209 -0.0886
 5268TIP3    H240000   2.757   4.470   9.277 -2.7994  0.9099 -0.7403
 5269TIP3   OH240001   0.963   0.745   7.795 -0.0066  0.6491  0.1133
 5269TIP3    H140002   0.926   0.827   7.827 -0.3212  0.5989 -0.1152
 5269TIP3    H240003   1.054   0.747   7.823 -0.2412  0.6608  0.9089
 5270TIP3   OH240004   3.337   5.636   7.233 -0.4557 -0.6807 -0.4028
 5270TIP3    H140005   3.429   5.625   7.208 -0.0644 -0.4009  0.8765
 5270TIP3    H240006   3.305   5.705   7.175  0.1467 -0.7565 -0.8340
 5271TIP3   OH240007   1.279   4.313   8.025 -0.2901 -0.1815  0.4136
 5271TIP3    H140008   1.290   4.336   7.932  0.0985 -2.3227 -0.1246
 5271TIP3    H240009   1.232   4.388   8.062  1.1594  1.5703 -1.0684
 5272TIP3   OH240010   5.797   6.720   8.354 -0.1338  0.4199 -0.2547
 5272TIP3    H140011   5.876   6.671   8.331  0.7048  0.3959  2.3564
 5272TIP3    H240012   5.745   6.659   8.406 -2.0973  0.3353 -2.1774
 5273TIP3   OH240013   0.089   2.359   7.834 -0.6781  0.7753  0.1387
 5273TIP3    H140014   0.006   2.317   7.813  0.1175 -0.5691 -0.4140
 5273TIP3    H240015   0.086   2.443   7.787 -1.8537  0.9123  0.4254
 5274TIP3   OH240016   6.797   5.408   7.617  0.4823  0.3908 -0.1483
 5274TIP3    H140017   6.744   5.466   7.563  0.6920  2.6544  1.8654
 5274TIP3    H240018   6.739   5.381   7.688  1.6336  2.1535  1.5793
 5275TIP3   OH240019   5.291   1.648   9.359  0.3629 -0.7547 -0.2497
 5275TIP3    H140020   5.246   1.564   9.368  1.7327 -1.3935  1.0314
 5275TIP3    H240021   5.262   1.699   9.434  0.8631 -0.7208 -0.0818
 5276TIP3   OH240022   4.172   3.374   7.715 -0.0249 -0.5561  0.3205
 5276TIP3    H140023   4.193   3.445   7.655 -1.6765  0.0856  0.4511
 5276TIP3    H240024   4.212   3.400   7.798  0.1828 -0.2542  0.1277
 5277TIP3   OH240025   4.215   4.682   9.226 -0.2500 -0.3147 -0.1806
 5277TIP3    H140026   4.241   4.723   9.308 -0.1087  0.7681 -0.7580
 5277TIP3    H240027   4.150   4.741   9.189  0.5462 -0.1860 -1.4181
 5278TIP3   OH240028   2.375   4.282   7.192 -0.1214  0.3748  0.2922
 5278TIP3    H140029   2.328   4.331   7.259 -1.6313  0.8281 -1.0430
 5278TIP3    H240030   2.323   4.202   7.181 -0.9282  1.0888 -1.5249
 5279TIP3   OH240031   6.366   5.847   8.295 -0.2179 -0.0774 -0.6241
 5279TIP3    H140032   6.448   5.882   8.260 -0.1618 -0.2918 -0.7094
 5279TIP3    H240033   6.343   5.775   8.236 -0.7353  0.3023 -0.8953
 5280TIP3   OH240034   5.455   0.094   9.456  0.1331  0.1599  0.3108
 5280TIP3    H140035   5.368   0.054   9.455 -0.4083  1.3030  0.3391
 5280TIP3    H240036   5.460   0.139   9.540  1.6957 -1.8395  1.3751
 5281TIP3   OH240037   0.560   2.440   7.207 -0.4037 -0.1756 -0.2227
 5281TIP3    H140038   0.639   2.440   7.153 -1.3075  0.3066 -1.6232
 5281TIP3    H240039   0.549   2.350   7.235  0.5643 -0.2715 -0.1410
 5282TIP3   OH240040   3.013   7.297   9.104 -0.5943 -0.0782  0.5271
 5282TIP3    H140041   3.057   7.289   9.019 -0.1043  1.6076  0.5880
 5282TIP3    H240042   2.922   7.274   9.085 -0.2910 -0.7466 -0.2197
 5283TIP3   OH240043   0.462   2.542   9.034 -0.2059  0.6609  0.4137
 5283TIP3    H140044   0.423   2.480   8.972  0.5181 -0.9998  1.5551
 5283TIP3    H240045   0.461   2.626   8.987 -0.3116 -0.3798 -1.5826
 5284TIP3   OH240046   0.598   1.170   8.386 -0.1158  0.0686  0.1236
 5284TIP3    H140047   0.613   1.263   8.375 -0.2293  0.1951  1.0251
 5284TIP3    H240048   0.625   1.151   8.476 -0.2622 -0.7314  0.0068
 5285TIP3   OH240049   3.308   2.590   7.533 -0.6650  0.0874  0.3121
 5285TIP3    H140050   3.266   2.676   7.532 -3.1838 -1.0508 -0.8732
 5285TIP3    H240051   3.359   2.586   7.453  0.8263  1.0373  1.1731
 5286TIP3   OH240052   5.457   4.842   7.757 -0.1095 -0.2467  0.0873
 5286TIP3    H140053   5.457   4.938   7.752 -0.1342 -0.3152 -1.8160
 5286TIP3    H240054   5.364   4.818   7.754 -0.0472 -0.3766 -1.2166
 5287TIP3   OH240055   0.602   2.579   7.424 -0.7281 -0.2882  0.1729
 5287TIP3    H140056   0.638   2.497   7.456  0.8583  0.2586 -0.1224
 5287TIP3    H240057   0.566   2.558   7.338  2.2675 -0.1604 -1.2285
 5288TIP3   OH240058   7.258   4.371   7.289  0.3885  0.8670 -0.1194
 5288TIP3    H140059   7.350   4.382   7.315  0.8696  1.7182 -2.0366
 5288TIP3    H240060   7.250   4.419   7.207 -1.5473 -0.0236 -0.5078
 5289TIP3   OH240061   3.404   7.573   7.153  0.6461 -0.1666 -0.3645
 5289TIP3    H140062   3.499   7.575   7.156  0.6514  0.9565 -0.6727
 5289TIP3    H240063   3.379   7.660   7.120 -0.4885 -0.3456 -0.0325
 5290TIP3   OH240064   3.185   3.658   7.416  0.1974  0.1730 -0.8426
 5290TIP3    H140065   3.171   3.569   7.382 -0.8733 -0.2064  0.4640
 5290TIP3    H240066   3.107   3.706   7.389 -0.4010  0.0160  0.4745
 5291TIP3   OH240067   0.318   0.621   8.909  0.4583  0.0641 -0.1815
 5291TIP3    H140068   0.236   0.590   8.869 -0.4449 -1.0449  2.3304
 5291TIP3    H240069   0.313   0.716   8.903  0.7962  0.0007 -3.3376
 5292TIP3   OH240070   1.605   3.956   8.674 -0.2978 -0.1042 -0.0939
 5292TIP3    H140071   1.572   3.920   8.592  0.5006 -0.2413 -0.3647
 5292TIP3    H240072   1.529   4.000   8.713 -0.5815  0.3545 -1.1192
 5293TIP3   OH240073   2.799   5.416   9.356  0.3002  0.2653 -0.0037
 5293TIP3    H140074   2.769   5.325   9.369  2.2493 -0.4902 -0.4709
 5293TIP3    H240075   2.803   5.427   9.261  1.5393  0.3076  0.0430
 5294TIP3   OH240076   3.615   2.196   7.914  0.0678 -0.1392  0.1220
 5294TIP3    H140077   3.651   2.285   7.911 -1.5437  0.5236 -0.3474
 5294TIP3    H240078   3.692   2.139   7.915  1.1685  1.1396 -2.5847
 5295TIP3   OH240079   0.341   7.339   8.252 -0.5651 -0.0811 -0.0021
 5295TIP3    H140080   0.343   7.356   8.346  1.3322  1.6837 -0.2874
 5295TIP3    H240081   0.393   7.259   8.241  1.1141  0.9095  0.3102
 5296TIP3   OH240082   5.092   7.104   6.967  0.5014 -0.4432  0.5882
 5296TIP3    H140083   5.148   7.141   6.898 -0.0801  0.1476  0.4258
 5296TIP3    H240084   5.092   7.010   6.950 -0.2991 -0.2221 -0.7239
 5297TIP3   OH240085   5.984   0.451   8.534 -0.2820  0.3213  0.0182
 5297TIP3    H140086   5.966   0.536   8.574 -1.5569  0.9334 -1.7062
 5297TIP3    H240087   6.015   0.396   8.606 -3.0654  1.1468  1.9991
 5298TIP3   OH240088   0.104   1.833   8.175 -0.6240 -0.1827 -0.5472
 5298TIP3    H140089   0.194   1.809   8.151 -0.4038 -0.3513  0.3983
 5298TIP3    H240090   0.071   1.756   8.222 -1.1182  0.0433 -0.5255
 5299TIP3   OH240091   7.078   2.163   7.724 -0.3056  0.2380  0.0674
 5299TIP3    H140092   6.994   2.122   7.743  0.0070  0.0624  1.1675
 5299TIP3    H240093   7.075   2.184   7.631 -1.1864 -0.6329 -0.1128
 5300TIP3   OH240094   2.468   2.062   7.199  0.0920 -0.6718  0.0103
 5300TIP3    H140095   2.373   2.073   7.208  0.2429  1.1746 -0.3439
 5300TIP3    H240096   2.478   1.998   7.129 -0.8965  0.1151 -0.8830
 5301TIP3   OH240097   3.797   2.811   9.106  0.5794 -0.1223 -0.6077
 5301TIP3    H140098   3.705   2.824   9.085  0.1477  0.0274  1.2357
 5301TIP3    H240099   3.840   2.804   9.020 -1.2909 -1.4644 -1.5112
 5302TIP3   OH240100   4.391   7.029   9.317  0.0801 -0.1074  0.4361
 5302TIP3    H140101   4.304   7.009   9.352 -0.6477  2.0117 -0.0050
 5302TIP3    H240102   4.446   7.042   9.394 -0.9321  2.1692  0.8462
 5303TIP3   OH240103   0.430   3.658   6.989 -0.0485  0.5441  0.2100
 5303TIP3    H140104   0.495   3.694   7.049  0.8657 -0.1002 -0.3824
 5303TIP3    H240105   0.347   3.666   7.037  0.4504  1.3872  0.9626
 5304TIP3   OH240106   6.344   6.877   8.496 -0.1260 -0.1860  0.3388
 5304TIP3    H140107   6.309   6.905   8.580  0.2007 -1.2449  0.8426
 5304TIP3    H240108   6.283   6.810   8.465 -0.2860  0.2499 -0.3062
 5305TIP3   OH240109   0.845   6.987   7.535  0.2953 -0.2301 -0.3665
 5305TIP3    H140110   0.863   6.904   7.580  1.3406  0.4151  0.4571
 5305TIP3    H240111   0.799   7.039   7.601 -3.0515 -1.1337 -1.8019
 5306TIP3   OH240112   4.669   6.909   8.461 -0.2073  0.5324  0.8199
 5306TIP3    H140113   4.746   6.956   8.493  0.2054  0.5207 -0.1172
 5306TIP3    H240114   4.687   6.894   8.369 -0.4524 -1.2252  1.0267
 5307TIP3   OH240115   6.856   7.548   8.709  0.8347 -0.0528  1.2680
 5307TIP3    H140116   6.909   7.476   8.674  0.5689 -0.5944  1.9462
 5307TIP3    H240117   6.867   7.542   8.804 -0.1594  0.0334  1.4047
 5308TIP3   OH240118   1.235   5.522   8.700  0.1249 -0.6659 -0.8464
 5308TIP3    H140119   1.312   5.487   8.745 -0.0677  2.0356  1.9442
 5308TIP3    H240120   1.164   5.463   8.724  0.2210  0.1912  1.8117
 5309TIP3   OH240121   3.070   7.055   7.219 -0.4949 -0.3609  0.2707
 5309TIP3    H140122   3.040   7.146   7.223 -1.5849 -0.6712 -0.4633
 5309TIP3    H240123   3.155   7.060   7.176 -0.8441  0.2565 -0.3726
 5310TIP3   OH240124   4.095   7.402   7.284  0.4098  0.2978 -0.9338
 5310TIP3    H140125   4.158   7.466   7.253  0.6576  0.2593 -0.5200
 5310TIP3    H240126   4.015   7.420   7.234 -0.4870  2.8530  1.1982
 5311TIP3   OH240127   3.230   7.262   8.164  0.5315  0.9316  0.3302
 5311TIP3    H140128   3.253   7.297   8.250  0.2919 -0.5632  1.0232
 5311TIP3    H240129   3.253   7.169   8.169 -1.7069  0.2953 -0.4056
 5312TIP3   OH240130   1.088   1.716   7.663 -0.1904  0.0683  0.0432
 5312TIP3    H140131   1.129   1.681   7.584  0.6704  1.0254  0.0376
 5312TIP3    H240132   1.104   1.650   7.730  0.0151 -0.2633 -0.3287
 5313TIP3   OH240133   1.588   5.779   8.037 -0.3674  0.0880 -0.2287
 5313TIP3    H140134   1.645   5.801   8.111  0.4059 -0.5090 -0.6369
 5313TIP3    H240135   1.503   5.761   8.078  0.3349 -1.4177  0.6656
 5314TIP3   OH240136   7.078   7.436   8.548  0.0601  1.1355 -0.0138
 5314TIP3    H140137   7.079   7.518   8.500 -0.8860  0.3208 -1.5197
 5314TIP3    H240138   7.090   7.369   8.481  2.0021  0.0544  1.3096
 5315TIP3   OH240139   3.599   4.691   8.802 -0.0103 -0.5948  0.0886
 5315TIP3    H140140   3.672   4.632   8.787  0.0761 -0.0877 -1.6806
 5315TIP3    H240141   3.523   4.646   8.765 -0.2332 -0.2571  0.1242
 5316TIP3   OH240142   1.051   5.988   8.055  0.1090 -0.6079  0.0669
 5316TIP3    H140143   1.048   5.902   8.096  1.5813 -0.4092  0.6498
 5316TIP3    H240144   1.143   6.015   8.062  0.2504 -0.1726 -2.5656
 5317TIP3   OH240145   7.500   2.324   7.850  0.4499 -0.0397  0.1615
 5317TIP3    H140146   7.416   2.366   7.828 -0.2949 -0.9506  1.1792
 5317TIP3    H240147   7.481   2.273   7.928  1.8619 -0.6179  0.1417
 5318TIP3   OH240148   7.621   6.274   8.898  0.1236  0.4301 -0.0796
 5318TIP3    H140149   7.712   6.290   8.926 -0.2287  1.0662  0.7278
 5318TIP3    H240150   7.589   6.208   8.959  0.5772 -1.1340 -1.4598
 5319TIP3   OH240151   1.119   5.254   8.464 -0.4558 -0.2453  0.2955
 5319TIP3    H140152   1.068   5.271   8.385 -0.0173 -2.2570 -0.4885
 5319TIP3    H240153   1.057   5.270   8.536 -1.1556  0.6447 -0.4684
 5320TIP3   OH240154   5.816   4.976   7.831 -0.6225 -0.3744 -0.2270
 5320TIP3    H140155   5.728   4.958   7.864 -0.6230 -0.1139 -0.0833
 5320TIP3    H240156   5.871   4.909   7.871 -0.9900 -1.4168 -1.4384
 5321TIP3   OH240157   4.227   1.052   7.599 -0.0258 -0.4334 -0.1635
 5321TIP3    H140158   4.160   1.074   7.534 -0.0334  0.0752  0.0118
 5321TIP3    H240159   4.240   0.958   7.589 -3.2511 -1.2874  2.1053
 5322TIP3   OH240160   2.180   4.093   7.462  0.6646 -0.1465 -0.0951
 5322TIP3    H140161   2.152   4.080   7.371  1.8087  0.2242 -0.5228
 5322TIP3    H240162   2.166   4.008   7.504  2.0906 -0.9766 -1.1788
 5323TIP3   OH240163   4.198   5.193   8.279 -0.7599  0.4013  0.1349
 5323TIP3    H140164   4.273   5.138   8.299 -1.4165 -0.4465  0.3474
 5323TIP3    H240165   4.166   5.224   8.364  0.3569  2.1878 -0.0438
 5324TIP3   OH240166   0.928   2.255   9.419 -0.0408 -0.2146  0.4124
 5324TIP3    H140167   0.893   2.320   9.480 -0.3311  0.4228 -0.4087
 5324TIP3    H240168   0.978   2.195   9.473  0.3890  0.8072  1.1701
 5325TIP3   OH240169   4.269   7.329   6.700  0.5766 -0.8527 -0.0930
 5325TIP3    H140170   4.344   7.388   6.710 -1.4426  1.7989  0.6871
 5325TIP3    H240171   4.250   7.299   6.789  0.5713 -1.3491 -0.2586
 5326TIP3   OH240172   6.684   2.786   7.969 -0.4245 -0.2889  0.3370
 5326TIP3    H140173   6.691   2.855   7.903  0.4193  0.9843  1.6770
 5326TIP3    H240174   6.596   2.749   7.956 -1.5579  2.1125  0.5357
 5327TIP3   OH240175   4.280   6.386   7.804 -0.2874  0.4259 -0.4835
 5327TIP3    H140176   4.287   6.409   7.711  3.9896  0.1923 -0.4170
 5327TIP3    H240177   4.270   6.470   7.848 -1.5334  0.6018 -1.0447
 5328TIP3   OH240178   3.860   4.161   8.520  0.1339 -0.1035  0.2120
 5328TIP3    H140179   3.768   4.135   8.513 -1.1268  3.2398  2.1145
 5328TIP3    H240180   3.893   4.113   8.597  0.0476 -1.2667 -0.4431
 5329TIP3   OH240181   6.468   5.741   8.685  0.0134  0.2953 -0.1436
 5329TIP3    H140182   6.402   5.694   8.633 -0.7216 -0.0982  1.1098
 5329TIP3    H240183   6.433   5.740   8.774  2.2166 -0.8932  0.7763
 5330TIP3   OH240184   2.409   6.127   8.835  0.2194 -0.0663  0.5022
 5330TIP3    H140185   2.392   6.049   8.782 -2.0434  0.9923 -0.4874
 5330TIP3    H240186   2.371   6.107   8.920 -1.3651  0.3013 -0.0822
 5331TIP3   OH240187   6.755   0.512   7.346 -0.1184  0.6863  0.0191
 5331TIP3    H140188   6.776   0.482   7.258 -0.1192  1.9211 -0.4169
 5331TIP3    H240189   6.779   0.604   7.347 -0.4995  0.7961  1.1873
 5332TIP3   OH240190   4.499   4.919   9.169 -0.2163  0.0096 -0.5026
 5332TIP3    H140191   4.422   4.912   9.226  1.1480  0.8593  1.5508
 5332TIP3    H240192   4.534   4.830   9.165 -0.7112 -0.1842 -0.5952
 5333TIP3   OH240193   3.970   3.158   9.279  0.4956  0.4628 -0.1991
 5333TIP3    H140194   4.026   3.104   9.223  0.0801 -0.1333 -0.0520
 5333TIP3    H240195   3.985   3.124   9.367  1.5211  1.7163  0.1560
 5334TIP3   OH240196   4.163   1.060   9.411  0.4122 -0.1905  0.2228
 5334TIP3    H140197   4.206   0.975   9.400 -1.1365 -0.7872 -2.0235
 5334TIP3    H240198   4.087   1.041   9.466  0.1949 -0.2338 -0.0879
 5335TIP3   OH240199   4.618   1.014   7.673  0.3863 -0.1975 -0.1184
 5335TIP3    H140200   4.672   0.942   7.642  0.2570 -0.7361  0.8909
 5335TIP3    H240201   4.584   0.985   7.757  0.9387  1.3383  0.6713
 5336TIP3   OH240202   6.904   1.785   7.551 -0.5507  0.5869 -0.2313
 5336TIP3    H140203   6.960   1.861   7.535 -0.5403  1.3981  3.0020
 5336TIP3    H240204   6.959   1.710   7.531  0.2934  1.4000 -1.0644
 5337TIP3   OH240205   6.381   6.004   7.113  0.0010  0.5213 -0.1058
 5337TIP3    H140206   6.365   6.023   7.206  1.0352 -1.8669  0.6444
 5337TIP3    H240207   6.424   6.082   7.079 -0.5184  1.4952  1.3877
 5338TIP3   OH240208   2.781   6.407   9.306  0.2777 -0.3239 -0.8851
 5338TIP3    H140209   2.721   6.401   9.232 -0.3336  0.8481 -0.5082
 5338TIP3    H240210   2.807   6.317   9.323  0.2907 -0.6403 -2.4002
 5339TIP3   OH240211   5.391   6.511   8.280  0.1729  0.4844 -0.1611
 5339TIP3    H140212   5.298   6.495   8.298  0.1338  0.5928 -0.2706
 5339TIP3    H240213   5.431   6.424   8.289 -0.3039 -0.0248 -2.4070
 5340TIP3   OH240214   3.238   2.969   9.488  0.3065  0.6016 -0.1720
 5340TIP3    H140215   3.320   2.943   9.530  0.8915  0.3145 -1.4349
 5340TIP3    H240216   3.239   3.064   9.490 -0.2955  0.6101  1.5712
 5341TIP3   OH240217   7.136   4.451   8.390 -0.7772  0.5367  0.0394
 5341TIP3    H140218   7.199   4.521   8.376 -0.2892  0.1620  0.3157
 5341TIP3    H240219   7.146   4.393   8.314 -0.9152  0.5742 -0.0070
 5342TIP3   OH240220   2.846   3.688   7.862 -0.3522 -0.1385  0.3830
 5342TIP3    H140221   2.830   3.644   7.779 -0.1952  0.4687  0.0228
 5342TIP3    H240222   2.828   3.781   7.844 -1.0546 -0.0939  1.2198
 5343TIP3   OH240223   1.308   0.907   9.286 -0.2440  0.3113 -0.1855
 5343TIP3    H140224   1.379   0.952   9.332 -1.8342  0.6950  2.0146
 5343TIP3    H240225   1.264   0.977   9.237 -1.6660  0.9651  1.8824
 5344TIP3   OH240226   7.142   1.156   6.741  0.2100 -0.5459  0.1007
 5344TIP3    H140227   7.177   1.221   6.680 -0.1154  0.5426  1.0549
 5344TIP3    H240228   7.051   1.182   6.755  0.4202 -0.4919  1.4309
 5345TIP3   OH240229   0.560   7.124   7.404 -0.0095 -0.1865  0.4302
 5345TIP3    H140230   0.524   7.163   7.325  0.9702 -0.3856 -0.1303
 5345TIP3    H240231   0.653   7.147   7.402 -0.3935  2.2748  2.9646
 5346TIP3   OH240232   5.684   6.330   9.134 -0.8976  0.1519 -0.1850
 5346TIP3    H140233   5.624   6.404   9.145 -1.7797 -0.6347  0.6223
 5346TIP3    H240234   5.628   6.260   9.100 -0.1767 -0.2609 -0.5199
 5347TIP3   OH240235   1.156   1.354   8.982  0.1289  0.8261 -0.0328
 5347TIP3    H140236   1.132   1.345   8.890 -0.2488 -1.3339  0.2311
 5347TIP3    H240237   1.249   1.329   8.985  0.3327  1.5796  0.0815
 5348TIP3   OH240238   3.969   5.657   7.652 -0.0850 -0.3254  0.3881
 5348TIP3    H140239   3.951   5.597   7.579 -0.7714  0.0344  0.2580
 5348TIP3    H240240   3.965   5.601   7.729  2.0306 -0.9929  0.0720
 5349TIP3   OH240241   5.553   6.274   7.708  0.0441 -0.5050 -0.6035
 5349TIP3    H140242   5.629   6.218   7.721  0.7591  0.7002  0.8319
 5349TIP3    H240243   5.590   6.361   7.692 -0.9087  0.6422  2.5857
 5350TIP3   OH240244   0.285   5.181   8.589  0.1186  0.1988  0.5150
 5350TIP3    H140245   0.258   5.272   8.591 -1.3212 -0.1966  0.2421
 5350TIP3    H240246   0.225   5.139   8.528 -0.4093 -1.2818  1.9702
 5351TIP3   OH240247   5.706   1.987   7.967 -0.1420  0.1228 -0.3385
 5351TIP3    H140248   5.683   1.994   8.060 -2.9402 -1.3166 -0.8350
 5351TIP3    H240249   5.631   1.945   7.926  1.2687  0.1282 -3.1946
 5352TIP3   OH240250   6.533   3.582   7.579  0.3756 -0.4546  0.1049
 5352TIP3    H140251   6.527   3.598   7.673  1.6796 -0.3784  0.1983
 5352TIP3    H240252   6.602   3.516   7.570  0.9800  0.2755 -0.8474
 5353TIP3   OH240253   1.241   0.765   7.769  0.0541 -0.3431 -0.5862
 5353TIP3    H140254   1.285   0.741   7.687  0.9037  0.0474 -0.2593
 5353TIP3    H240255   1.312   0.786   7.829 -0.5265 -1.3947  0.5195
 5354TIP3   OH240256   5.621   7.272   7.564 -0.1700  0.2360 -0.8141
 5354TIP3    H140257   5.681   7.226   7.621 -0.1105 -0.7344 -1.6401
 5354TIP3    H240258   5.676   7.332   7.514  0.1608 -0.7705 -1.6893
 5355TIP3   OH240259   4.847   0.283   9.782 -0.2772  0.1816  0.3970
 5355TIP3    H140260   4.799   0.204   9.755  1.4136 -0.3350 -1.3108
 5355TIP3    H240261   4.937   0.254   9.795  0.6128  1.9704 -1.2656
 5356TIP3   OH240262   3.302   6.912   7.947 -0.0040 -0.0992 -0.1620
 5356TIP3    H140263   3.232   6.883   7.888 -1.4903  1.3088  0.8172
 5356TIP3    H240264   3.383   6.900   7.896 -0.9755 -1.4058 -1.4772
 5357TIP3   OH240265   3.409   6.523   7.617  0.7582 -0.9107 -0.6340
 5357TIP3    H140266   3.397   6.614   7.642  2.4331 -0.7879 -0.1359
 5357TIP3    H240267   3.432   6.526   7.525  2.8122 -0.6115 -0.1549
 5358TIP3   OH240268   7.277   6.375   6.807 -0.1670 -0.1804  0.1537
 5358TIP3    H140269   7.237   6.323   6.876 -0.3590 -1.2244 -0.7048
 5358TIP3    H240270   7.312   6.452   6.851  2.6315 -2.3018  2.0179
 5359TIP3   OH240271   1.479   0.686   8.213 -0.2529  0.0608  0.0980
 5359TIP3    H140272   1.388   0.664   8.192 -0.8669  2.0412  0.5234
 5359TIP3    H240273   1.479   0.705   8.306 -0.2292  3.5157 -0.4646
 5360TIP3   OH240274   1.276   2.414   8.450  0.0199 -0.8076 -0.1902
 5360TIP3    H140275   1.352   2.356   8.444  0.5304 -0.0348 -1.5767
 5360TIP3    H240276   1.278   2.465   8.369 -0.9520  0.4850  0.5527
 5361TIP3   OH240277   6.545   2.779   9.104 -0.2917 -0.0088  0.1057
 5361TIP3    H140278   6.515   2.719   9.036 -0.9559  0.3237  0.1008
 5361TIP3    H240279   6.466   2.802   9.153  0.0765  0.2670  0.5832
 5362TIP3   OH240280   7.561   5.920   9.099  0.1079 -0.0940  0.2585
 5362TIP3    H140281   7.562   5.860   9.174  0.9612 -0.1819  0.1859
 5362TIP3    H240282   7.536   6.004   9.137  0.5176 -0.1405  0.6453
 5363TIP3   OH240283   2.519   3.313   9.559 -0.7852  0.0235  0.3325
 5363TIP3    H140284   2.469   3.295   9.480 -3.1498  1.1351  1.4450
 5363TIP3    H240285   2.603   3.270   9.546 -1.5338 -0.8061 -2.2504
 5364TIP3   OH240286   4.994   3.180   8.325 -0.4443 -0.0832  0.1066
 5364TIP3    H140287   4.904   3.151   8.311 -0.1375 -1.0705  0.0829
 5364TIP3    H240288   5.002   3.189   8.420 -0.3251 -0.8127  0.1657
 5365TIP3   OH240289   6.263   0.972   8.529  0.1046 -0.1504 -0.1202
 5365TIP3    H140290   6.258   1.061   8.493  0.3840  0.0470  0.3196
 5365TIP3    H240291   6.357   0.954   8.535  0.1757  0.5490  2.2206
 5366TIP3   OH240292   6.215   2.665   8.754  0.5337  0.3792  0.5867
 5366TIP3    H140293   6.201   2.739   8.813 -4.4921 -0.4249  0.8053
 5366TIP3    H240294   6.151   2.677   8.684  3.4942 -0.8773 -2.6159
 5367TIP3   OH240295   3.837   2.758   6.926 -0.0759  0.0095 -0.4424
 5367TIP3    H140296   3.902   2.737   6.859  0.3465  0.6877 -0.2494
 5367TIP3    H240297   3.754   2.764   6.878  0.2407  0.6122 -0.9260
 5368TIP3   OH240298   3.859   5.360   8.505 -0.0410 -0.1219 -0.1338
 5368TIP3    H140299   3.904   5.280   8.532 -0.1153  0.1257  0.7669
 5368TIP3    H240300   3.927   5.427   8.506 -0.0495 -0.1019 -0.5712
 5369TIP3   OH240301   1.733   6.154   7.991  0.0034 -0.3005 -0.1785
 5369TIP3    H140302   1.807   6.194   7.944 -0.6288 -1.0420 -1.8876
 5369TIP3    H240303   1.759   6.062   8.003  0.0627 -0.1689  0.7519
 5370TIP3   OH240304   7.172   6.262   7.973  0.3349 -0.1486 -0.3702
 5370TIP3    H140305   7.077   6.272   7.966  0.0213 -2.1911  0.2733
 5370TIP3    H240306   7.201   6.338   8.023 -1.2172 -0.4232  1.0102
 5371TIP3   OH240307   1.548   5.379   7.524 -0.7243  0.3264  0.0921
 5371TIP3    H140308   1.456   5.368   7.504 -0.9631  1.2619  0.6030
 5371TIP3    H240309   1.558   5.347   7.614 -0.4926 -0.0151 -0.0505
 5372TIP3   OH240310   3.161   3.552   8.923 -0.0090  0.0504 -0.0137
 5372TIP3    H140311   3.098   3.543   8.852 -0.8654 -0.1727  0.7580
 5372TIP3    H240312   3.117   3.514   8.999  1.6820 -1.5996  0.2060
 5373TIP3   OH240313   7.628   5.433   7.985 -0.2892 -0.4278  0.0491
 5373TIP3    H140314   7.639   5.498   7.916 -0.5258  0.0418  0.4496
 5373TIP3    H240315   7.551   5.462   8.034  1.3410  0.7208  2.0947
 5374TIP3   OH240316   0.691   1.308   7.754 -0.1551 -0.3064 -0.2757
 5374TIP3    H140317   0.724   1.240   7.812  0.4049 -0.3773 -0.6670
 5374TIP3    H240318   0.769   1.352   7.721 -0.4542 -0.3470 -1.0731
 5375TIP3   OH240319   0.594   1.204   6.860 -0.3517 -0.0740 -0.0709
 5375TIP3    H140320   0.608   1.183   6.953 -0.9639  0.6624  0.1912
 5375TIP3    H240321   0.549   1.127   6.825 -0.6202 -0.1180  0.3658
 5376TIP3   OH240322   3.672   6.262   8.593  0.0709  0.8116  0.0315
 5376TIP3    H140323   3.616   6.185   8.578  1.5310 -0.4930  1.0275
 5376TIP3    H240324   3.678   6.303   8.507 -0.0043 -0.7146 -0.7453
 5377TIP3   OH240325   0.214   6.102   8.890 -0.0202  0.3420  0.0484
 5377TIP3    H140326   0.222   6.185   8.937  0.7962  0.3086 -0.0207
 5377TIP3    H240327   0.301   6.062   8.897 -0.0251  0.1152 -1.0715
 5378TIP3   OH240328   1.124   3.239   6.791 -0.1144 -0.0165 -0.2449
 5378TIP3    H140329   1.033   3.239   6.763  0.1906  1.4055 -1.4131
 5378TIP3    H240330   1.124   3.196   6.876 -1.4906 -2.2944 -1.3250
 5379TIP3   OH240331   7.178   6.271   8.289 -0.9690  0.2863 -0.6037
 5379TIP3    H140332   7.198   6.360   8.259 -0.5112  0.0529 -1.0109
 5379TIP3    H240333   7.173   6.278   8.384  0.5848  0.4667 -0.5101
 5380TIP3   OH240334   4.484   0.231   8.624  0.4190  0.0134 -0.0726
 5380TIP3    H140335   4.395   0.232   8.657 -0.3279  0.0985 -1.9674
 5380TIP3    H240336   4.489   0.152   8.570  1.8175 -0.5224  0.7700
 5381TIP3   OH240337   2.564   6.219   9.137 -0.1047 -0.0888 -0.3583
 5381TIP3    H140338   2.532   6.145   9.189  0.3685 -1.0867 -1.4631
 5381TIP3    H240339   2.488   6.277   9.131 -0.6249 -0.6896  0.1377
 5382TIP3   OH240340   5.504   0.689   7.086  0.1894 -0.1355 -0.1809
 5382TIP3    H140341   5.526   0.600   7.059 -0.0153 -0.0119 -0.7581
 5382TIP3    H240342   5.408   0.691   7.090  0.1778  0.1741 -0.5658
 5383TIP3   OH240343   2.638   6.240   8.729  0.1046 -0.2488  0.2469
 5383TIP3    H140344   2.642   6.213   8.637 -0.3337  2.1822 -0.5824
 5383TIP3    H240345   2.556   6.204   8.761 -0.3850 -0.0498 -0.7374
 5384TIP3   OH240346   3.711   6.771   8.975 -0.0060  0.0102  0.6567
 5384TIP3    H140347   3.647   6.842   8.981  1.1410  1.0528  0.8053
 5384TIP3    H240348   3.769   6.784   9.050  0.5907 -0.7293  0.3365
 5385TIP3   OH240349   2.260   1.007   9.360  0.2066  0.0216 -0.1617
 5385TIP3    H140350   2.179   0.993   9.409  0.0407  1.3165 -0.0246
 5385TIP3    H240351   2.329   0.984   9.422 -0.0451 -0.7291 -0.1524
 5386TIP3   OH240352   7.672   7.109   7.843 -0.5466 -0.1550  0.4469
 5386TIP3    H140353   7.691   7.120   7.750 -0.1915 -1.1112  0.3996
 5386TIP3    H240354   7.683   7.016   7.859  1.0952  0.2111  1.8169
 5387TIP3   OH240355   7.209   1.197   7.225 -0.3787 -0.4712  0.2089
 5387TIP3    H140356   7.275   1.207   7.293 -0.3737 -0.4579  0.2020
 5387TIP3    H240357   7.249   1.233   7.146 -0.7773  0.5434  0.4430
 5388TIP3   OH240358   2.659   1.394   8.896  0.5309  0.4274 -0.0161
 5388TIP3    H140359   2.742   1.439   8.913  1.3962 -1.1755  0.2183
 5388TIP3    H240360   2.678   1.302   8.913 -1.2195 -0.0245 -0.3093
 5389TIP3   OH240361   4.596   4.768   8.934 -0.2061 -0.1032  0.0176
 5389TIP3    H140362   4.506   4.792   8.911  0.2643  0.3583 -1.4856
 5389TIP3    H240363   4.635   4.739   8.851  0.7306 -1.3125  0.8455
 5390TIP3   OH240364   4.945   3.037   7.230  0.0806  0.0930 -0.1440
 5390TIP3    H140365   4.959   3.068   7.141  1.1063  0.9433  0.2865
 5390TIP3    H240366   4.978   2.947   7.229  1.3249  0.5271 -0.3221
 5391TIP3   OH240367   0.974   4.519   1.545  0.0879 -0.5322  0.4585
 5391TIP3    H140368   0.998   4.454   1.612  3.2561  2.8759  3.0998
 5391TIP3    H240369   0.942   4.593   1.595  0.8155  1.5553 -1.9754
 5392TIP3   OH240370   4.347   5.338   2.320  0.3058 -0.7851  0.1810
 5392TIP3    H140371   4.371   5.251   2.352 -0.6718 -0.3250  2.3763
 5392TIP3    H240372   4.411   5.397   2.361 -0.8909 -0.1819  1.2451
 5393TIP3   OH240373   5.203   6.957   2.033 -0.3522 -0.7342  0.0463
 5393TIP3    H140374   5.111   6.983   2.039  0.0033  0.2896  1.8563
 5393TIP3    H240375   5.249   7.035   2.005 -0.0924 -1.4616 -1.6449
 5394TIP3   OH240376   3.997   5.443   1.663 -0.2523 -0.2134 -0.1302
 5394TIP3    H140377   4.025   5.447   1.754  0.8158 -1.0335 -0.4044
 5394TIP3    H240378   4.027   5.357   1.632 -3.0304 -1.1577 -0.4819
 5395TIP3   OH240379   6.918   4.323   1.984 -0.4157  0.4146 -0.0952
 5395TIP3    H140380   6.874   4.292   2.063  0.4072  1.8355  0.9785
 5395TIP3    H240381   6.854   4.311   1.914 -1.3462 -0.4231  0.8585
 5396TIP3   OH240382   3.151   1.707   3.432 -0.2941  0.2846 -0.5410
 5396TIP3    H140383   3.186   1.637   3.486 -4.1932  0.8746  3.3480
 5396TIP3    H240384   3.217   1.776   3.435  0.9929 -0.9502  0.7391
 5397TIP3   OH240385   0.975   3.147   2.065 -0.3316 -0.1469  0.3824
 5397TIP3    H140386   0.964   3.055   2.042  0.8541 -0.1413 -0.2745
 5397TIP3    H240387   1.003   3.145   2.157  0.0461 -0.4662  0.2646
 5398TIP3   OH240388   2.064   5.582   3.396  0.0189  0.1666 -0.1360
 5398TIP3    H140389   2.126   5.599   3.325  0.4118  1.2492  0.4427
 5398TIP3    H240390   1.993   5.643   3.381 -1.1163 -1.2945 -0.9837
 5399TIP3   OH240391   2.027   4.439   2.496  0.1327  0.7216  0.7117
 5399TIP3    H140392   1.984   4.455   2.579  0.3051 -0.0380  0.9531
 5399TIP3    H240393   2.083   4.363   2.512  0.9347  1.1881  0.1794
 5400TIP3   OH240394   2.808   4.563   2.448 -0.0055  0.7620  0.4840
 5400TIP3    H140395   2.804   4.501   2.520  0.4364 -1.3584 -1.1989
 5400TIP3    H240396   2.729   4.616   2.457 -0.3366  0.0663  2.0680
 5401TIP3   OH240397   2.600   5.357   1.635 -0.5023 -0.5367  0.9948
 5401TIP3    H140398   2.576   5.380   1.545  0.4900 -0.5210  0.7297
 5401TIP3    H240399   2.647   5.433   1.668  2.1432 -1.7924  0.3654
 5402TIP3   OH240400   6.870   1.895   0.912  0.0595  0.6559 -0.7181
 5402TIP3    H140401   6.938   1.922   0.850  1.1719 -2.0713 -0.8076
 5402TIP3    H240402   6.918   1.861   0.987 -1.1489 -1.2244 -0.7302
 5403TIP3   OH240403   7.649   1.668   1.196  0.2268  0.7128  0.0906
 5403TIP3    H140404   7.744   1.656   1.207  0.1567 -0.9524 -0.7184
 5403TIP3    H240405   7.610   1.604   1.255 -0.3505  0.2966 -0.7280
 5404TIP3   OH240406   2.086   5.718   2.790  0.1349  0.4078 -0.1211
 5404TIP3    H140407   1.993   5.715   2.814 -0.0924  0.7726 -0.9453
 5404TIP3    H240408   2.130   5.740   2.872 -0.5980  1.1659  0.0900
 5405TIP3   OH240409   1.603   4.546   1.652 -0.5390 -0.3813  0.3313
 5405TIP3    H140410   1.640   4.608   1.715 -1.3247  0.3901  0.0620
 5405TIP3    H240411   1.677   4.523   1.595 -0.2911  0.5443  0.2585
 5406TIP3   OH240412   2.056   4.763   1.942  0.0816  0.1491  0.4806
 5406TIP3    H140413   2.087   4.791   2.028 -1.2516 -1.7677  1.6617
 5406TIP3    H240414   1.965   4.794   1.939  0.0671  0.0606 -0.1987
 5407TIP3   OH240415   6.871   4.524   0.750  0.4601  0.1967  0.0920
 5407TIP3    H140416   6.936   4.490   0.687  1.3631  1.0539  0.5313
 5407TIP3    H240417   6.790   4.530   0.700  1.0987  0.5905 -0.9325
 5408TIP3   OH240418   4.717   4.754   3.029  0.4443  0.0266 -0.7595
 5408TIP3    H140419   4.687   4.799   2.951 -0.5512  1.7094  0.5388
 5408TIP3    H240420   4.794   4.705   3.000  0.9502  1.7303 -2.4671
 5409TIP3   OH240421   0.294   2.079   0.420 -0.5168 -0.0470  0.0820
 5409TIP3    H140422   0.278   2.043   0.333 -2.9421  0.8698  0.0800
 5409TIP3    H240423   0.240   2.026   0.479  1.8748 -1.3374  1.2854
 5410TIP3   OH240424   2.163   5.484   2.692  0.5086  0.3587 -0.3650
 5410TIP3    H140425   2.161   5.556   2.755  1.4474  0.4893 -0.4721
 5410TIP3    H240426   2.092   5.502   2.631  0.2669  0.7963  0.0443
 5411TIP3   OH240427   0.306   5.015   1.062  0.3136  0.3252 -0.1660
 5411TIP3    H140428   0.274   4.925   1.053 -2.8239  0.9494  2.8003
 5411TIP3    H240429   0.288   5.055   0.977 -0.1332 -1.2854 -0.8790
 5412TIP3   OH240430   2.509   4.170   0.980  0.1598  0.3152  0.1760
 5412TIP3    H140431   2.525   4.261   0.953 -1.7988  1.0935  1.3718
 5412TIP3    H240432   2.475   4.127   0.902  0.2142  0.8789 -0.1620
 5413TIP3   OH240433   0.747   3.854   2.979 -0.1190  0.2947  0.0602
 5413TIP3    H140434   0.693   3.780   3.007  0.8205 -0.1913  0.6445
 5413TIP3    H240435   0.715   3.876   2.892 -0.5347 -0.6777 -0.0428
 5414TIP3   OH240436   7.058   1.039   1.464 -0.1395  0.1446 -0.2720
 5414TIP3    H140437   7.116   0.970   1.430  1.7446  1.8998 -0.8523
 5414TIP3    H240438   7.052   1.021   1.557  1.2089 -0.2134 -0.2279
 5415TIP3   OH240439   1.752   5.090   1.469 -0.2263  0.4140  0.1327
 5415TIP3    H140440   1.693   5.164   1.465  1.0005  1.5892  2.0984
 5415TIP3    H240441   1.834   5.122   1.430  0.0490 -0.1827  0.2056
 5416TIP3   OH240442   1.809   7.587   1.328 -0.1957  0.2473 -0.0947
 5416TIP3    H140443   1.763   7.510   1.363 -0.4087  0.6714  0.5793
 5416TIP3    H240444   1.760   7.611   1.250  0.2452 -0.6794 -0.6749
 5417TIP3   OH240445   1.926   7.123   0.857 -0.1669 -0.1469 -0.3100
 5417TIP3    H140446   1.912   7.113   0.951  2.1547 -0.6748  0.0319
 5417TIP3    H240447   1.980   7.201   0.849 -1.0139  0.3596 -1.2988
 5418TIP3   OH240448   5.314   5.137   2.744 -0.3837  0.4334  0.3151
 5418TIP3    H140449   5.356   5.211   2.700  1.1713 -0.6772 -0.1401
 5418TIP3    H240450   5.254   5.178   2.807  1.1509  2.0965  0.7687
 5419TIP3   OH240451   0.382   3.832   1.983  0.5639 -0.3531  0.0052
 5419TIP3    H140452   0.409   3.916   2.018  0.6759 -0.0943 -0.6926
 5419TIP3    H240453   0.287   3.828   2.000 -0.2119  1.5122 -3.0682
 5420TIP3   OH240454   6.470   2.439   0.884 -0.1397 -0.7584  0.5926
 5420TIP3    H140455   6.414   2.515   0.900 -1.4764 -1.2477 -1.3452
 5420TIP3    H240456   6.556   2.465   0.917 -1.0848  0.6655  2.1414
 5421TIP3   OH240457   4.407   6.167   0.708 -0.3222 -0.9495 -1.2284
 5421TIP3    H140458   4.453   6.085   0.727 -0.9710 -1.7362 -2.8817
 5421TIP3    H240459   4.315   6.144   0.708 -0.6475  0.2243  0.1958
 5422TIP3   OH240460   7.462   2.950   1.370 -0.7597  0.5139  0.2570
 5422TIP3    H140461   7.400   2.963   1.298 -0.7986 -1.1424 -0.0366
 5422TIP3    H240462   7.433   3.011   1.437 -0.6729  2.1702 -1.1309
 5423TIP3   OH240463   3.650   1.286   2.315 -0.1904 -0.4498  0.9398
 5423TIP3    H140464   3.588   1.313   2.247 -1.0644  3.1822  2.9242
 5423TIP3    H240465   3.599   1.231   2.374 -0.3055 -0.9555  0.3800
 5424TIP3   OH240466   7.645   3.481   2.021 -0.0187  0.4566  0.2246
 5424TIP3    H140467   7.709   3.495   2.091 -0.4298  0.5621  0.5796
 5424TIP3    H240468   7.562   3.510   2.058 -0.2628  0.3816 -0.2599
 5425TIP3   OH240469   2.357   1.887   2.936  0.3001  0.4320  0.6946
 5425TIP3    H140470   2.437   1.857   2.891 -0.4637 -0.2859 -0.2286
 5425TIP3    H240471   2.389   1.945   3.005  1.7768 -1.3224  1.5780
 5426TIP3   OH240472   5.859   6.641   1.867 -0.2342 -0.1609 -0.4050
 5426TIP3    H140473   5.878   6.645   1.961 -1.1928  2.4408 -0.2541
 5426TIP3    H240474   5.768   6.614   1.863 -0.2566 -0.0539 -0.5846
 5427TIP3   OH240475   3.226   2.041   0.886  0.0191  0.3557  0.6621
 5427TIP3    H140476   3.279   2.104   0.838  0.4066  0.1142  0.7702
 5427TIP3    H240477   3.282   2.010   0.956 -0.4649  0.5304  1.1313
 5428TIP3   OH240478   1.006   3.951   1.116 -0.6674 -0.3663 -0.4712
 5428TIP3    H140479   0.993   3.972   1.024  0.5788  2.7811 -0.0221
 5428TIP3    H240480   0.921   3.970   1.157 -1.6150 -2.9419 -1.0372
 5429TIP3   OH240481   2.897   6.908   2.435 -0.7132  0.6069  0.1475
 5429TIP3    H140482   2.852   6.936   2.515 -1.5887 -0.2502 -0.0232
 5429TIP3    H240483   2.989   6.925   2.452 -0.7135 -0.8379  1.9294
 5430TIP3   OH240484   3.289   2.832   1.862 -0.0357 -0.7006  0.2340
 5430TIP3    H140485   3.226   2.904   1.860 -0.4426 -1.0782 -0.9088
 5430TIP3    H240486   3.298   2.811   1.955 -2.2438 -1.2040  0.3794
 5431TIP3   OH240487   2.522   1.216   2.596  0.4252  0.0655 -0.6602
 5431TIP3    H140488   2.480   1.140   2.554 -0.4614  0.8650 -1.2730
 5431TIP3    H240489   2.547   1.272   2.522 -1.7279  1.8027 -0.1738
 5432TIP3   OH240490   3.641   4.832   0.634 -0.2524 -0.3266 -0.0276
 5432TIP3    H140491   3.612   4.799   0.549 -0.1750  0.1514 -0.2400
 5432TIP3    H240492   3.723   4.785   0.651  1.0673  1.3481 -1.3786
 5433TIP3   OH240493   6.028   3.973   1.567  0.3804 -0.2228 -0.4594
 5433TIP3    H140494   6.042   4.061   1.601  0.7919 -0.7765  0.8864
 5433TIP3    H240495   5.936   3.971   1.541  0.7106  1.0202 -1.8604
 5434TIP3   OH240496   3.555   6.935   0.970  0.1670  0.4495 -0.2160
 5434TIP3    H140497   3.644   6.966   0.953  0.5973 -0.1398  0.8930
 5434TIP3    H240498   3.501   7.015   0.965  1.3336  1.6693  3.1725
 5435TIP3   OH240499   1.065   1.847   1.325 -0.0590 -0.8366  0.4476
 5435TIP3    H140500   1.054   1.773   1.265 -0.4412 -2.4463  2.3927
 5435TIP3    H240501   1.147   1.887   1.298 -1.4016  0.1233 -2.7243
 5436TIP3   OH240502   1.421   2.716   0.732  0.1984  0.6266 -0.1666
 5436TIP3    H140503   1.470   2.796   0.715 -0.3995  1.2323  0.8737
 5436TIP3    H240504   1.344   2.744   0.781 -0.2462 -0.5300 -0.1600
 5437TIP3   OH240505   2.074   6.777   1.284  0.8675 -0.6017  0.0527
 5437TIP3    H140506   2.166   6.770   1.308  1.2656  2.5338 -0.1299
 5437TIP3    H240507   2.029   6.798   1.367  0.5422 -0.7621 -0.0827
 5438TIP3   OH240508   5.842   1.512   2.799  0.4433  0.0903 -0.5007
 5438TIP3    H140509   5.910   1.578   2.810 -0.9923  1.4727  0.6029
 5438TIP3    H240510   5.814   1.522   2.708  1.6888 -0.5193 -0.9799
 5439TIP3   OH240511   7.064   5.316   1.332 -0.5935 -0.0526  0.9136
 5439TIP3    H140512   7.056   5.312   1.427  0.4699 -0.4750  0.9993
 5439TIP3    H240513   7.156   5.339   1.317 -0.9786  1.0115 -0.0036
 5440TIP3   OH240514   1.343   1.802   2.587 -0.1848  0.1045 -0.0779
 5440TIP3    H140515   1.426   1.776   2.628  0.4266  1.9801 -0.0170
 5440TIP3    H240516   1.282   1.813   2.660  1.0196  3.8724  0.5626
 5441TIP3   OH240517   7.255   6.910   1.926  0.1548 -0.5483 -0.4590
 5441TIP3    H140518   7.319   6.949   1.866 -1.4102 -1.2878 -2.7516
 5441TIP3    H240519   7.172   6.916   1.880 -1.7147  1.1421  2.7503
 5442TIP3   OH240520   5.339   4.639   2.783  0.2052  0.1050 -0.3309
 5442TIP3    H140521   5.339   4.734   2.792 -2.1772 -0.0141  2.2946
 5442TIP3    H240522   5.252   4.619   2.748  0.0196 -1.1733  0.7878
 5443TIP3   OH240523   0.333   2.927   0.993 -0.2852  0.2904 -0.6332
 5443TIP3    H140524   0.321   2.898   1.084 -0.4680 -0.2383 -0.8217
 5443TIP3    H240525   0.359   2.847   0.947  1.2352  0.8384 -0.7705
 5444TIP3   OH240526   4.707   1.633   1.180  0.3750 -0.2775  0.0178
 5444TIP3    H140527   4.775   1.682   1.134  1.3038 -0.6921  0.9060
 5444TIP3    H240528   4.654   1.595   1.110 -1.1390  2.8829 -0.7463
 5445TIP3   OH240529   4.757   2.053   2.764  0.2706  0.2981 -0.2567
 5445TIP3    H140530   4.813   2.035   2.689  0.3358  0.7032 -0.3096
 5445TIP3    H240531   4.725   2.143   2.749 -0.4835  0.0329 -0.2891
 5446TIP3   OH240532   3.120   6.244   2.784 -0.2247  0.0342 -0.1266
 5446TIP3    H140533   3.087   6.334   2.775 -0.0445 -0.0313 -1.6464
 5446TIP3    H240534   3.213   6.254   2.803 -0.2642  0.1713 -0.0019
 5447TIP3   OH240535   1.760   6.839   0.812 -0.7147  0.4808 -0.7566
 5447TIP3    H140536   1.792   6.906   0.872  3.6695 -0.7943 -1.2790
 5447TIP3    H240537   1.774   6.876   0.725  2.4620 -1.1077 -1.0802
 5448TIP3   OH240538   1.123   4.509   1.818  0.2522 -0.4636  0.2942
 5448TIP3    H140539   1.213   4.509   1.851  0.2538  1.4796  0.4501
 5448TIP3    H240540   1.122   4.581   1.754 -1.1379 -0.5873  0.1508
 5449TIP3   OH240541   2.154   4.057   0.832  0.4388  0.2983 -0.1066
 5449TIP3    H140542   2.083   4.033   0.773  0.3785 -0.5565  0.2809
 5449TIP3    H240543   2.199   4.129   0.789  1.0290 -0.9578 -1.7014
 5450TIP3   OH240544   5.980   5.027   1.096 -0.0075 -0.3127 -0.0081
 5450TIP3    H140545   5.990   5.066   1.183  1.3196 -0.5140 -0.0434
 5450TIP3    H240546   6.001   4.935   1.109  1.2277 -0.1490 -0.7093
 5451TIP3   OH240547   1.594   2.442   3.424  0.5560  0.4670 -0.3113
 5451TIP3    H140548   1.628   2.365   3.470 -0.8827  0.3079  0.5380
 5451TIP3    H240549   1.673   2.490   3.397  1.5191  0.5257  2.2780
 5452TIP3   OH240550   5.749   1.485   1.826  0.7560 -0.2209 -0.5769
 5452TIP3    H140551   5.824   1.493   1.886  1.0554  1.3424 -1.1247
 5452TIP3    H240552   5.788   1.456   1.743  1.1848  2.7574 -1.5451
 5453TIP3   OH240553   2.154   6.717   2.011 -0.5391 -0.5927  0.3546
 5453TIP3    H140554   2.242   6.688   1.987 -0.3604  0.3586 -0.1854
 5453TIP3    H240555   2.133   6.666   2.089  0.6791 -0.5183  0.7618
 5454TIP3   OH240556   1.446   3.200   1.489  0.2542 -0.0063 -0.0156
 5454TIP3    H140557   1.516   3.248   1.533 -0.1915  1.1547 -0.5323
 5454TIP3    H240558   1.491   3.148   1.423  0.8190 -0.9224  1.0612
 5455TIP3   OH240559   5.077   2.486   2.033 -0.0642  0.2823  0.0765
 5455TIP3    H140560   5.158   2.486   2.085  0.9620  0.5768 -1.4620
 5455TIP3    H240561   5.029   2.409   2.064  0.0288  0.9904  2.1399
 5456TIP3   OH240562   4.205   3.895   2.972 -0.3144  0.1585  0.1327
 5456TIP3    H140563   4.264   3.937   3.035  0.0130 -1.0880  0.6843
 5456TIP3    H240564   4.249   3.907   2.888  0.8688 -0.9050  0.5597
 5457TIP3   OH240565   4.738   0.286   2.569 -0.3059  0.1717 -0.2978
 5457TIP3    H140566   4.763   0.328   2.652 -1.7199 -0.4001  0.4513
 5457TIP3    H240567   4.700   0.202   2.596  1.0872 -0.9380 -1.6718
 5458TIP3   OH240568   6.239   6.021   0.954  0.0307 -0.5278  0.3912
 5458TIP3    H140569   6.210   6.100   0.909  0.2751 -0.2659  0.6858
 5458TIP3    H240570   6.334   6.018   0.940  0.0489 -0.6661  0.5324
 5459TIP3   OH240571   3.056   5.620   3.072 -0.0862  0.2124  0.7904
 5459TIP3    H140572   3.139   5.644   3.030 -1.0446  0.0092 -1.3553
 5459TIP3    H240573   3.019   5.703   3.100 -0.4598  0.6749 -0.9112
 5460TIP3   OH240574   1.539   3.636   2.352 -0.1479  0.1698  0.0491
 5460TIP3    H140575   1.547   3.714   2.297  0.2089 -0.6653 -1.1120
 5460TIP3    H240576   1.533   3.670   2.441  0.0481  1.5181 -0.4356
 5461TIP3   OH240577   0.327   5.947   1.005 -0.1040  0.3593 -0.0899
 5461TIP3    H140578   0.338   5.901   1.088  0.5080 -0.0824 -0.4060
 5461TIP3    H240579   0.251   5.906   0.964  0.8768 -0.9059 -0.7020
 5462TIP3   OH240580   2.416   7.078   2.178  0.2078 -0.6787  0.6104
 5462TIP3    H140581   2.493   7.131   2.198 -0.0580  0.2195 -0.5976
 5462TIP3    H240582   2.448   7.008   2.122  0.1005  0.0274 -0.3803
 5463TIP3   OH240583   4.111   7.032   1.153 -0.3300 -0.7472 -0.3255
 5463TIP3    H140584   4.084   7.100   1.215  0.1010 -1.0733  0.2354
 5463TIP3    H240585   4.080   6.951   1.192  1.6264 -1.1661  0.4881
 5464TIP3   OH240586   1.791   3.221   1.125  0.3583 -0.0200  0.2628
 5464TIP3    H140587   1.875   3.250   1.089  0.0349  2.1155  1.0629
 5464TIP3    H240588   1.794   3.249   1.217 -0.7589 -1.0210  0.6261
 5465TIP3   OH240589   5.751   7.301   0.867  0.6555 -0.2428  0.4812
 5465TIP3    H140590   5.803   7.368   0.823  4.9180 -2.0985  2.1873
 5465TIP3    H240591   5.751   7.227   0.806  1.1879 -0.6937  1.0178
 5466TIP3   OH240592   1.134   1.904   3.106 -0.2843 -0.0030  0.2256
 5466TIP3    H140593   1.045   1.935   3.088 -0.3216 -0.6685 -0.8369
 5466TIP3    H240594   1.132   1.877   3.198 -1.5684 -1.2564 -0.1430
 5467TIP3   OH240595   7.177   5.557   0.672  0.3419 -0.0505 -0.5490
 5467TIP3    H140596   7.180   5.490   0.604 -3.0088 -0.9027 -0.0306
 5467TIP3    H240597   7.205   5.637   0.627  1.1507 -1.1302 -2.0856
 5468TIP3   OH240598   7.069   1.786   1.731 -0.0166  0.3983 -0.4786
 5468TIP3    H140599   7.127   1.861   1.721 -1.3115  1.3513 -1.1259
 5468TIP3    H240600   7.043   1.787   1.823  1.4370 -0.4040 -0.0344
 5469TIP3   OH240601   1.334   5.585   1.344  0.3667 -0.1909  0.5219
 5469TIP3    H140602   1.411   5.602   1.398 -1.0632  0.1237  2.5675
 5469TIP3    H240603   1.278   5.529   1.398 -1.3090  0.4372 -0.4791
 5470TIP3   OH240604   1.885   3.299   2.079  0.3447 -0.4013 -0.5618
 5470TIP3    H140605   1.976   3.320   2.057  0.8303 -2.4768 -0.7162
 5470TIP3    H240606   1.880   3.311   2.174  0.6891  0.0190 -0.5904
 5471TIP3   OH240607   3.835   4.203   2.374 -0.4814  0.7631  0.7419
 5471TIP3    H140608   3.783   4.184   2.296  1.4062  2.7952 -1.1351
 5471TIP3    H240609   3.903   4.135   2.374  0.0400  1.2771  0.0887
 5472TIP3   OH240610   6.410   1.037   1.264 -0.2261 -0.1104  0.4456
 5472TIP3    H140611   6.484   1.002   1.214 -0.5730  0.5756 -0.5614
 5472TIP3    H240612   6.332   1.007   1.217 -0.5580  0.5932  0.5324
 5473TIP3   OH240613   1.781   2.824   3.298  0.7784  0.1998 -0.2809
 5473TIP3    H140614   1.804   2.763   3.227 -0.9943  0.2536 -0.9611
 5473TIP3    H240615   1.685   2.824   3.299  0.7388  0.2451  2.1027
 5474TIP3   OH240616   4.064   6.400   0.953  0.1210 -0.5548  0.6423
 5474TIP3    H140617   4.017   6.368   1.030 -0.1222  0.1948  0.8148
 5474TIP3    H240618   4.018   6.361   0.879 -0.3788 -0.3335  0.8356
 5475TIP3   OH240619   7.370   2.743   2.663 -0.1094 -0.0736 -0.0506
 5475TIP3    H140620   7.457   2.704   2.654 -0.3753 -1.0548  1.4127
 5475TIP3    H240621   7.316   2.674   2.701 -1.4974  0.5921 -0.7380
 5476TIP3   OH240622   6.611   6.471   1.525 -0.6355  0.4448  0.1484
 5476TIP3    H140623   6.638   6.562   1.510 -0.7826  0.4799  0.1020
 5476TIP3    H240624   6.581   6.441   1.440 -0.2447  0.2386  0.0822
 5477TIP3   OH240625   2.250   1.392   2.110  0.4644 -0.1406 -0.3412
 5477TIP3    H140626   2.187   1.422   2.175  2.0551 -1.0840  1.7172
 5477TIP3    H240627   2.196   1.374   2.032 -1.5062  0.9234  0.6947
 5478TIP3   OH240628   0.183   1.863   2.383 -0.5696  0.2476  1.0647
 5478TIP3    H140629   0.203   1.800   2.313 -1.9950  3.3495 -2.4575
 5478TIP3    H240630   0.109   1.823   2.430 -1.9088 -0.5330 -1.5009
 5479TIP3   OH240631   1.941   6.044   2.928  0.3816 -0.0048  0.5763
 5479TIP3    H140632   1.977   5.997   3.003  0.8736  0.4055  0.6023
 5479TIP3    H240633   1.863   5.994   2.903 -1.4081  1.2966  3.0864
 5480TIP3   OH240634   1.003   4.962   2.103  0.8028  0.3031  0.3796
 5480TIP3    H140635   0.929   5.005   2.061 -0.9279  0.9136  3.7309
 5480TIP3    H240636   1.079   5.016   2.079 -0.2638  1.2801 -0.9025
 5481TIP3   OH240637   5.246   2.478   1.804 -0.0245 -0.2518 -0.1329
 5481TIP3    H140638   5.277   2.389   1.792  2.5014  0.3269  1.3140
 5481TIP3    H240639   5.196   2.475   1.886  0.5116 -0.2340  0.1939
 5482TIP3   OH240640   3.241   2.875   0.716  0.1005  0.1518 -0.5179
 5482TIP3    H140641   3.309   2.942   0.717  1.3620 -1.0808  0.4873
 5482TIP3    H240642   3.206   2.873   0.805  0.8527 -1.2244 -0.2176
 5483TIP3   OH240643   1.590   1.179   0.889  0.3446  0.4081  0.0456
 5483TIP3    H140644   1.683   1.168   0.909 -0.1857 -0.2331  2.5301
 5483TIP3    H240645   1.555   1.090   0.891 -0.3025  0.6293 -1.0062
 5484TIP3   OH240646   3.440   6.453   2.449 -0.0129 -0.5574  0.3240
 5484TIP3    H140647   3.469   6.372   2.490 -1.6869 -0.6546  1.4008
 5484TIP3    H240648   3.475   6.523   2.504  0.4795 -0.5799  0.0421
 5485TIP3   OH240649   2.231   1.232   1.471 -0.1890  0.5285 -0.3550
 5485TIP3    H140650   2.252   1.218   1.563  0.8689 -1.0109 -0.7803
 5485TIP3    H240651   2.297   1.293   1.440 -0.7182  1.2721 -0.0468
 5486TIP3   OH240652   5.655   0.326   1.272  0.0148 -0.2776  0.2940
 5486TIP3    H140653   5.729   0.276   1.304  2.0314  2.2942  0.0011
 5486TIP3    H240654   5.578   0.280   1.305  1.6164 -3.6571 -0.2440
 5487TIP3   OH240655   0.781   0.662   2.895 -0.6805  0.1905  0.4967
 5487TIP3    H140656   0.762   0.748   2.859  1.4996  1.1075  1.3338
 5487TIP3    H240657   0.807   0.678   2.986  0.1077 -1.2776  0.5769
 5488TIP3   OH240658   5.239   0.464   1.059  0.0374  0.0892  0.4607
 5488TIP3    H140659   5.219   0.519   0.983 -1.5428 -0.4761  0.4123
 5488TIP3    H240660   5.319   0.418   1.036 -1.2299 -1.2520 -1.5981
 5489TIP3   OH240661   2.125   0.985   2.519 -0.4412 -0.1474 -0.1908
 5489TIP3    H140662   2.102   1.078   2.513 -0.4235 -0.1324 -0.0286
 5489TIP3    H240663   2.209   0.984   2.565 -0.6958 -0.2777  0.2773
 5490TIP3   OH240664   7.037   2.796   2.879 -0.2429  0.2191  0.8066
 5490TIP3    H140665   7.108   2.776   2.818 -0.3609 -0.2343  0.8144
 5490TIP3    H240666   7.068   2.872   2.928 -0.4521  1.0511 -0.3097
 5491TIP3   OH240667   3.857   1.557   0.761 -0.5281  0.6268  0.2765
 5491TIP3    H140668   3.913   1.606   0.701  3.3121 -0.5751  2.5782
 5491TIP3    H240669   3.794   1.622   0.793 -0.2698  2.1618 -2.0946
 5492TIP3   OH240670   6.327   0.631   2.366  0.0233  0.1537 -0.4224
 5492TIP3    H140671   6.321   0.629   2.271  1.2339  1.2777 -0.5444
 5492TIP3    H240672   6.404   0.685   2.385  2.3595 -3.3683  1.1175
 5493TIP3   OH240673   7.614   6.100   1.653 -0.0605  0.0908 -0.1287
 5493TIP3    H140674   7.522   6.118   1.633 -0.3910 -1.3216 -0.0335
 5493TIP3    H240675   7.613   6.010   1.687  1.1916  0.5164  1.1271
 5494TIP3   OH240676   6.332   0.261   1.859  0.6242  0.4778 -0.4908
 5494TIP3    H140677   6.249   0.284   1.818  0.4023  1.8606  0.6880
 5494TIP3    H240678   6.360   0.182   1.813 -1.0907  0.2681 -1.2333
 5495TIP3   OH240679   6.316   3.027   1.144  0.5718  0.4590  0.1254
 5495TIP3    H140680   6.229   2.990   1.129 -0.5119  2.1115  1.8757
 5495TIP3    H240681   6.346   2.984   1.225  1.5062 -0.2667 -0.5871
 5496TIP3   OH240682   5.931   1.102   1.532  0.3254 -0.3368 -0.4211
 5496TIP3    H140683   5.891   1.145   1.456  0.0396 -1.3739 -0.8735
 5496TIP3    H240684   5.999   1.047   1.494 -2.1710 -3.7403 -0.4002
 5497TIP3   OH240685   5.089   7.157   0.447  0.2928  0.0147  0.0417
 5497TIP3    H140686   5.174   7.138   0.408  1.3889  0.8106  1.8931
 5497TIP3    H240687   5.073   7.249   0.425 -0.4739 -0.3335 -0.9249
 5498TIP3   OH240688   1.553   0.984   3.308  0.5991  0.3847  0.0829
 5498TIP3    H140689   1.539   0.911   3.369 -0.0305  0.5693  0.1646
 5498TIP3    H240690   1.633   0.960   3.260  0.2505 -0.4921 -0.0837
 5499TIP3   OH240691   6.612   0.878   0.701  0.4307 -0.1788  0.8992
 5499TIP3    H140692   6.672   0.890   0.627 -0.5116  0.8222  0.2584
 5499TIP3    H240693   6.590   0.785   0.699 -1.4631  0.1873 -1.6732
 5500TIP3   OH240694   6.603   5.170   1.763 -0.4063 -0.2127 -0.4387
 5500TIP3    H140695   6.531   5.197   1.706 -2.3966 -1.0936  1.5060
 5500TIP3    H240696   6.595   5.075   1.768  0.9700 -0.3318 -0.2296
 5501TIP3   OH240697   0.990   0.502   1.236 -0.2194 -0.6585 -0.1524
 5501TIP3    H140698   1.009   0.534   1.324 -0.6288  3.2003 -1.2616
 5501TIP3    H240699   1.071   0.518   1.187 -0.7289 -0.5451 -0.9722
 5502TIP3   OH240700   5.571   6.389   3.438  0.0509 -0.0793 -0.2928
 5502TIP3    H140701   5.585   6.304   3.397 -0.3049 -0.3349  0.1033
 5502TIP3    H240702   5.568   6.451   3.365 -2.1143 -0.7135 -0.8090
 5503TIP3   OH240703   7.487   3.792   2.078 -0.5102 -0.4278  0.2315
 5503TIP3    H140704   7.441   3.872   2.105  1.4455  1.2711 -1.1931
 5503TIP3    H240705   7.521   3.756   2.160 -0.7283  0.6546  0.8226
 5504TIP3   OH240706   4.006   6.598   1.281 -0.4059 -0.4447 -0.3970
 5504TIP3    H140707   3.944   6.524   1.283  1.2889 -1.9350 -0.1046
 5504TIP3    H240708   3.995   6.636   1.194 -0.8654 -1.4563 -0.7989
 5505TIP3   OH240709   2.392   0.791   1.378  0.3587  0.3302 -0.3973
 5505TIP3    H140710   2.416   0.750   1.295  2.1977  1.1063 -0.3142
 5505TIP3    H240711   2.476   0.804   1.423 -0.6124 -0.5702  1.8471
 5506TIP3   OH240712   7.053   2.447   2.963  0.1905 -0.1183 -0.1391
 5506TIP3    H140713   7.005   2.367   2.982  0.6431 -0.0151  1.6256
 5506TIP3    H240714   7.064   2.489   3.048  2.7834  0.2058 -0.5375
 5507TIP3   OH240715   3.040   4.843   1.477 -0.1211 -0.8655 -0.1361
 5507TIP3    H140716   3.113   4.901   1.456 -0.3181  0.0646  1.6053
 5507TIP3    H240717   3.078   4.755   1.480  0.5284 -0.6260 -1.0922
 5508TIP3   OH240718   1.525   4.377   1.056 -0.6752 -0.5771 -0.1865
 5508TIP3    H140719   1.555   4.397   0.967  0.3398 -1.5263 -0.0864
 5508TIP3    H240720   1.492   4.460   1.089 -0.1262  0.0287 -1.0961
 5509TIP3   OH240721   1.421   7.367   2.403  0.0563 -0.4184 -0.0070
 5509TIP3    H140722   1.348   7.387   2.462  0.0177 -0.4625 -0.0397
 5509TIP3    H240723   1.499   7.400   2.448 -0.1539  1.1078 -0.6871
 5510TIP3   OH240724   0.526   0.622   1.820 -0.0310 -0.8546 -0.2847
 5510TIP3    H140725   0.484   0.669   1.892 -0.8104 -1.3117 -0.4253
 5510TIP3    H240726   0.592   0.683   1.787 -2.9647  1.4999 -2.4434
 5511TIP3   OH240727   5.762   3.406   1.268 -0.1143 -0.5095  0.5012
 5511TIP3    H140728   5.708   3.350   1.324 -1.7596  1.3909  0.9556
 5511TIP3    H240729   5.701   3.443   1.204  0.0317  3.2858  2.2553
 5512TIP3   OH240730   1.956   2.999   3.416  0.4721 -0.9257 -0.2592
 5512TIP3    H140731   1.957   3.071   3.352 -0.1353 -1.0402 -0.4020
 5512TIP3    H240732   1.895   2.935   3.379  0.6921 -1.3267  0.0725
 5513TIP3   OH240733   1.267   2.912   1.656 -0.1775 -0.1466  0.3310
 5513TIP3    H140734   1.278   2.852   1.583  1.9777  0.3660  0.1747
 5513TIP3    H240735   1.247   2.997   1.616  0.1852 -0.0401  0.3725
 5514TIP3   OH240736   2.571   6.552   1.760 -0.1189  0.2052  0.6049
 5514TIP3    H140737   2.639   6.618   1.770 -0.0645  0.0154  1.5596
 5514TIP3    H240738   2.601   6.499   1.686  0.8419  0.0478  1.0872
 5515TIP3   OH240739   0.947   6.708   1.535  0.3969 -0.4916  0.3015
 5515TIP3    H140740   0.852   6.699   1.535  0.0957  2.1236  0.5064
 5515TIP3    H240741   0.972   6.698   1.627  0.6609 -3.3597  0.0201
 5516TIP3   OH240742   7.671   5.568   2.272 -0.1317  0.2765  0.3416
 5516TIP3    H140743   7.714   5.541   2.191  0.4125  2.1940 -0.0809
 5516TIP3    H240744   7.598   5.507   2.282  1.7311 -2.1066  0.2352
 5517TIP3   OH240745   7.228   5.173   8.544  0.8487 -0.2527 -0.0901
 5517TIP3    H140746   7.248   5.095   8.596 -1.1894 -0.2705  0.7887
 5517TIP3    H240747   7.194   5.139   8.462 -0.8059 -0.3768  0.5975
 5518TIP3   OH240748   4.804   5.749   1.333 -0.7901  0.4391 -0.1041
 5518TIP3    H140749   4.869   5.818   1.336  0.2057 -0.4275 -0.8974
 5518TIP3    H240750   4.794   5.729   1.240 -0.5936 -0.8820  0.1377
 5519TIP3   OH240751   3.868   5.424   1.163  1.2153  0.3330 -0.2005
 5519TIP3    H140752   3.781   5.411   1.199  0.5537  2.0188 -1.0445
 5519TIP3    H240753   3.867   5.379   1.079  0.6695  1.4075 -0.8020
 5520TIP3   OH240754   5.605   1.890   0.934 -0.0041  0.2729 -0.1725
 5520TIP3    H140755   5.618   1.879   0.840  2.1167 -0.2537  0.1494
 5520TIP3    H240756   5.689   1.922   0.967 -1.5870  3.5547  1.1217
 5521TIP3   OH240757   7.265   4.591   2.138  0.2160 -0.2452  0.2028
 5521TIP3    H140758   7.284   4.545   2.057  3.7006 -1.7782  1.6872
 5521TIP3    H240759   7.194   4.541   2.178 -2.1829  1.0435 -2.1185
 5522TIP3   OH240760   0.897   6.715   0.841  0.2070  0.1507 -0.0622
 5522TIP3    H140761   0.899   6.653   0.769  1.4000 -0.1409  0.2127
 5522TIP3    H240762   0.844   6.788   0.808  0.0831 -0.3249 -0.9402
 5523TIP3   OH240763   6.988   1.750   3.398  0.3491  0.0088  0.3774
 5523TIP3    H140764   7.027   1.800   3.326 -0.3250  0.8598  0.5953
 5523TIP3    H240765   6.899   1.783   3.405  0.6908  0.6582  2.2425
 5524TIP3   OH240766   4.879   5.076   1.446  0.0526 -0.3044 -0.4663
 5524TIP3    H140767   4.810   5.049   1.507 -0.1612 -1.4037 -1.1574
 5524TIP3    H240768   4.950   5.014   1.462 -0.3458 -1.1910 -1.9217
 5525TIP3   OH240769   1.506   7.287   2.023  0.9225 -0.0429 -0.3664
 5525TIP3    H140770   1.482   7.379   2.012 -0.9959  0.0240  2.9504
 5525TIP3    H240771   1.575   7.288   2.089  2.2335 -0.9373 -1.6681
 5526TIP3   OH240772   6.713   1.387   1.865  0.5650 -0.2950  0.1100
 5526TIP3    H140773   6.767   1.464   1.844 -2.8214  2.1330 -0.5270
 5526TIP3    H240774   6.666   1.412   1.945 -1.4444 -1.2399 -0.7265
 5527TIP3   OH240775   6.578   3.864   1.261 -0.0903 -0.0162 -0.4740
 5527TIP3    H140776   6.614   3.777   1.278  0.0259 -0.0771 -1.0219
 5527TIP3    H240777   6.643   3.925   1.299 -0.0715 -0.1597 -0.2746
 5528TIP3   OH240778   0.862   3.822   1.318  0.5352  0.1914  0.0492
 5528TIP3    H140779   0.854   3.790   1.228  1.5154 -3.6563  1.1216
 5528TIP3    H240780   0.771   3.833   1.348  0.1930  2.3617 -1.5478
 5529TIP3   OH240781   6.259   5.597   8.532 -0.4803 -0.0717 -0.0453
 5529TIP3    H140782   6.275   5.567   8.443 -0.6893 -1.4941  0.3779
 5529TIP3    H240783   6.250   5.517   8.583 -2.3002  0.7040  0.9176
 5530TIP3   OH240784   5.235   5.477   0.790 -0.0726  0.2496 -0.4956
 5530TIP3    H140785   5.172   5.470   0.719 -0.1321 -1.4540 -0.3134
 5530TIP3    H240786   5.183   5.465   0.870  0.6426 -3.0846 -0.4075
 5531TIP3   OH240787   6.489   3.422   2.433 -0.3744 -0.0031  0.3064
 5531TIP3    H140788   6.544   3.486   2.477  0.0265  0.3321 -0.6687
 5531TIP3    H240789   6.458   3.365   2.503 -1.1752  1.5641  1.2826
 5532TIP3   OH240790   5.742   1.542   2.514 -0.0783  0.8498 -0.1332
 5532TIP3    H140791   5.740   1.634   2.490  0.8789  0.9227  0.0394
 5532TIP3    H240792   5.649   1.518   2.523 -0.3252  1.8886  0.2225
 5533TIP3   OH240793   7.006   3.294   3.078  0.0209  0.5771 -0.0240
 5533TIP3    H140794   7.029   3.337   3.160 -0.6835  0.6038  0.1656
 5533TIP3    H240795   7.019   3.361   3.010 -2.0253  1.4657  0.3659
 5534TIP3   OH240796   1.910   6.605   0.868 -0.3836 -0.3275 -0.1409
 5534TIP3    H140797   1.849   6.532   0.856  0.1456 -1.1690  1.8748
 5534TIP3    H240798   1.861   6.682   0.838 -1.2109 -1.3969 -1.6326
 5535TIP3   OH240799   2.695   5.783   2.260 -0.2526 -0.2413  0.3513
 5535TIP3    H140800   2.762   5.836   2.304 -0.2439  0.2597 -0.2500
 5535TIP3    H240801   2.736   5.698   2.247  0.3299  0.1030 -0.1320
 5536TIP3   OH240802   4.123   1.730   1.757  0.0410 -0.4858 -0.3040
 5536TIP3    H140803   4.062   1.688   1.817 -0.2275  0.6395  0.2333
 5536TIP3    H240804   4.164   1.800   1.808  2.1832 -1.5231 -0.4913
 5537TIP3   OH240805   0.972   2.024   1.820 -0.0458  0.0553 -0.2278
 5537TIP3    H140806   1.020   2.080   1.881 -0.7462 -0.1696  0.5386
 5537TIP3    H240807   0.929   2.086   1.761 -0.4405  0.3207  0.3307
 5538TIP3   OH240808   5.877   0.139   1.929 -0.3220  0.1128 -0.4301
 5538TIP3    H140809   5.899   0.194   1.853 -0.2884 -1.5317 -1.6740
 5538TIP3    H240810   5.929   0.177   2.001  1.7344  0.1643 -1.8331
 5539TIP3   OH240811   4.541   5.916   1.222 -0.1659  0.3024 -0.2233
 5539TIP3    H140812   4.447   5.924   1.236  0.0593  1.8613  0.6837
 5539TIP3    H240813   4.580   5.958   1.299  1.2463  1.3039 -1.4263
 5540TIP3   OH240814   7.300   1.852   1.148 -0.1985 -0.4181  0.2055
 5540TIP3    H140815   7.331   1.773   1.103 -1.1492 -0.1679 -0.9403
 5540TIP3    H240816   7.305   1.830   1.241  0.8846 -1.3106 -0.0408
 5541TIP3   OH240817   6.783   4.940   0.844  0.1034  0.0510  0.3872
 5541TIP3    H140818   6.748   5.028   0.855 -1.5794 -0.2624 -1.7519
 5541TIP3    H240819   6.728   4.901   0.776  1.1566 -2.4620  0.8666
 5542TIP3   OH240820   4.982   1.065   2.034 -0.3431 -0.1122 -0.0813
 5542TIP3    H140821   5.049   1.006   1.999 -0.7771 -0.2235 -0.7429
 5542TIP3    H240822   5.031   1.126   2.091 -0.0555 -1.9155  1.7184
 5543TIP3   OH240823   4.351   5.511   1.026 -0.7942  0.3722 -0.7934
 5543TIP3    H140824   4.399   5.567   1.087 -0.6283  2.2386 -2.5221
 5543TIP3    H240825   4.281   5.472   1.079  0.7842 -0.0570  1.0945
 5544TIP3   OH240826   0.766   6.987   1.386  0.0187 -0.5994  0.5137
 5544TIP3    H140827   0.838   6.981   1.324  1.0809 -2.0588  1.8320
 5544TIP3    H240828   0.706   6.918   1.360 -0.5759  0.1404 -0.1322
 5545TIP3   OH240829   7.062   1.207   0.615 -0.0242 -0.3624  0.2222
 5545TIP3    H140830   7.017   1.245   0.691 -1.9391 -0.7004 -0.6647
 5545TIP3    H240831   7.052   1.112   0.627  0.2756 -0.4358 -0.1059
 5546TIP3   OH240832   0.803   2.986   1.825 -0.1414 -0.0321  0.5705
 5546TIP3    H140833   0.823   3.063   1.771 -1.3822  0.1328  0.3236
 5546TIP3    H240834   0.888   2.958   1.858  0.5048  0.5740 -0.5149
 5547TIP3   OH240835   3.625   4.502   0.516 -0.4531  0.4982  0.5434
 5547TIP3    H140836   3.709   4.486   0.560 -0.1536  0.7467  0.0720
 5547TIP3    H240837   3.559   4.487   0.584  0.0453  1.9602  1.3890
 5548TIP3   OH240838   0.925   6.234   2.862 -0.1599  0.0448  0.6057
 5548TIP3    H140839   0.860   6.168   2.840  0.1279 -0.3771  0.9940
 5548TIP3    H240840   0.980   6.192   2.929  1.1145  0.0287 -0.4102
 5549TIP3   OH240841   1.085   6.389   2.309 -0.6986 -0.2457  0.0094
 5549TIP3    H140842   1.016   6.442   2.269 -0.6414  0.1730  0.4524
 5549TIP3    H240843   1.144   6.453   2.349 -1.5854 -0.6784  2.1523
 5550TIP3   OH240844   0.401   1.493   2.216  0.1135  0.5605  0.0686
 5550TIP3    H140845   0.484   1.540   2.202  1.0447 -0.9369  0.2849
 5550TIP3    H240846   0.334   1.561   2.215  1.3142  1.7773 -0.4635
 5551TIP3   OH240847   5.856   3.468   0.845  0.1140  0.3226 -0.7884
 5551TIP3    H140848   5.885   3.378   0.864 -2.3996 -0.3246  0.3379
 5551TIP3    H240849   5.903   3.522   0.909 -0.1148 -0.4931  0.0797
 5552TIP3   OH240850   5.189   1.903   0.834 -0.4492  0.4621  0.4339
 5552TIP3    H140851   5.284   1.909   0.818  0.0226  0.0185  2.7454
 5552TIP3    H240852   5.179   1.924   0.927 -2.8339  2.0718 -0.1025
 5553TIP3   OH240853   5.320   7.582   2.074  0.7529  0.4299  0.1053
 5553TIP3    H140854   5.283   7.494   2.082 -0.3647  0.7252 -1.4076
 5553TIP3    H240855   5.260   7.638   2.123 -0.5133  0.8027 -1.7542
 5554TIP3   OH240856   6.676   1.878   2.805 -0.1820  0.1230 -0.1981
 5554TIP3    H140857   6.688   1.963   2.847 -0.0957  0.3563 -0.6874
 5554TIP3    H240858   6.602   1.891   2.746 -0.1157 -0.1168 -0.3352
 5555TIP3   OH240859   1.318   2.042   1.787 -0.5051 -0.9395 -0.2290
 5555TIP3    H140860   1.283   1.953   1.786 -0.2440 -1.0846 -3.1352
 5555TIP3    H240861   1.277   2.085   1.712  1.1156  0.7022 -0.2378
 5556TIP3   OH240862   0.446   3.285   2.306 -0.6722  0.5897  0.2579
 5556TIP3    H140863   0.502   3.301   2.230 -2.2995 -1.4581 -1.4812
 5556TIP3    H240864   0.414   3.372   2.330  1.9143  1.6154  0.3217
 5557TIP3   OH240865   5.874   2.300   1.363 -0.2957 -0.4794  0.0541
 5557TIP3    H140866   5.912   2.264   1.443 -0.0221 -2.0366 -0.7390
 5557TIP3    H240867   5.932   2.371   1.337 -0.4303  0.0836  1.2607
 5558TIP3   OH240868   5.951   2.450   2.897  0.0492 -0.0293  0.1732
 5558TIP3    H140869   5.897   2.402   2.959 -0.1442  0.2338  0.2131
 5558TIP3    H240870   5.920   2.541   2.903 -2.0514 -0.4280 -2.4428
 5559TIP3   OH240871   6.437   1.697   0.581  0.0551 -0.2600  0.2041
 5559TIP3    H140872   6.377   1.694   0.656 -0.3523 -0.2864 -0.1172
 5559TIP3    H240873   6.457   1.606   0.562  0.0437 -0.2601  0.1924
 5560TIP3   OH240874   5.576   1.871   2.710  0.6378 -0.3941  0.0321
 5560TIP3    H140875   5.670   1.875   2.731  0.5183 -2.0459  1.1149
 5560TIP3    H240876   5.552   1.780   2.729 -1.1769 -0.0055 -0.2845
 5561TIP3   OH240877   6.044   4.718   0.875 -0.0747  0.2323  0.0456
 5561TIP3    H140878   5.954   4.698   0.847  0.2343  0.9421 -1.5735
 5561TIP3    H240879   6.040   4.717   0.970 -1.5126 -1.0151  0.0111
 5562TIP3   OH240880   0.792   1.606   2.970  0.1371  0.2965 -0.1185
 5562TIP3    H140881   0.761   1.663   3.040 -1.0985  0.7257 -0.9723
 5562TIP3    H240882   0.791   1.662   2.892 -0.7585 -0.7931 -0.9116
 5563TIP3   OH240883   3.136   5.528   2.438 -0.1969  0.0615 -0.5331
 5563TIP3    H140884   3.090   5.483   2.509 -1.1840 -0.2171 -1.3298
 5563TIP3    H240885   3.176   5.604   2.480 -0.0041 -0.5901  0.4885
 5564TIP3   OH240886   4.923   6.392   0.940  0.0456  0.5335 -0.1907
 5564TIP3    H140887   4.994   6.338   0.975  0.4373  0.8951 -0.4254
 5564TIP3    H240888   4.963   6.478   0.925  0.2993  0.0152 -2.9552
 5565TIP3   OH240889   2.845   2.021   2.814  0.0416  0.1999  0.0815
 5565TIP3    H140890   2.938   2.012   2.832  0.1452 -0.3621 -0.7086
 5565TIP3    H240891   2.805   1.943   2.853  0.1685 -0.6183 -1.3876
 5566TIP3   OH240892   5.110   5.743   0.950 -0.3889  0.3895  0.0959
 5566TIP3    H140893   5.134   5.701   1.033  1.8867  2.5887  0.6494
 5566TIP3    H240894   5.084   5.832   0.975  0.3059  1.0785 -1.5336
 5567TIP3   OH240895   0.469   7.313   1.310  0.3891  0.2492 -0.1540
 5567TIP3    H140896   0.540   7.271   1.261  0.3731 -1.5512  1.2874
 5567TIP3    H240897   0.495   7.303   1.401 -2.2915 -1.5940  0.4995
 5568TIP3   OH240898   5.916   0.210   2.372  0.1088  0.2767  0.3718
 5568TIP3    H140899   5.948   0.173   2.454  0.7213  0.5861  0.2770
 5568TIP3    H240900   5.874   0.136   2.328 -0.6548  0.2242  1.1717
 5569TIP3   OH240901   5.936   5.696   0.923  0.2485  0.3905  0.0726
 5569TIP3    H140902   5.861   5.659   0.970 -0.5431  0.8942 -0.7681
 5569TIP3    H240903   5.971   5.762   0.982  0.7582 -0.6296  0.9548
 5570TIP3   OH240904   4.275   1.796   2.657 -0.2458 -0.4545  0.1317
 5570TIP3    H140905   4.301   1.835   2.573 -1.3006  3.0333  1.2321
 5570TIP3    H240906   4.193   1.751   2.639 -0.5738  0.4424 -0.7159
 5571TIP3   OH240907   1.949   2.733   1.806  0.0819 -0.8387 -0.0661
 5571TIP3    H140908   1.884   2.696   1.866 -0.2223 -0.7178 -0.3221
 5571TIP3    H240909   1.931   2.827   1.804 -0.8577 -1.0129 -1.4646
 5572TIP3   OH240910   0.137   1.411   2.029  0.4606 -0.0845  0.3142
 5572TIP3    H140911   0.184   1.478   1.980  0.6965 -0.1586  0.4396
 5572TIP3    H240912   0.202   1.342   2.045  0.0154 -0.7234 -0.5330
 5573TIP3   OH240913   7.470   1.487   2.886  0.1816 -0.0849 -0.6395
 5573TIP3    H140914   7.502   1.486   2.976  1.5217  1.4241 -1.0453
 5573TIP3    H240915   7.375   1.482   2.894  0.1699  1.6782  0.9703
 5574TIP3   OH240916   6.757   0.621   2.434  0.2587  0.0507  0.3350
 5574TIP3    H140917   6.765   0.527   2.448 -0.7527 -0.2094 -0.6667
 5574TIP3    H240918   6.846   0.655   2.445  0.5766 -0.9699  1.0191
 5575TIP3   OH240919   3.155   5.732   0.891  0.4633  0.1859 -0.1392
 5575TIP3    H140920   3.164   5.682   0.972 -0.2216  0.4191  0.0857
 5575TIP3    H240921   3.066   5.715   0.861  1.0153 -0.6942 -1.3942
 5576TIP3   OH240922   4.700   0.728   1.768 -0.0229  0.0587 -0.3370
 5576TIP3    H140923   4.753   0.652   1.792 -1.1647 -0.6894 -0.1222
 5576TIP3    H240924   4.740   0.759   1.686  0.6366 -0.5860 -0.2746
 5577TIP3   OH240925   1.838   5.332   0.912  0.2512 -0.3151  0.3289
 5577TIP3    H140926   1.755   5.378   0.924 -0.3369 -1.3761  0.4691
 5577TIP3    H240927   1.881   5.337   0.997  0.5121  0.5656  0.1510
 5578TIP3   OH240928   1.769   7.390   2.187 -0.0583  0.7946 -0.0548
 5578TIP3    H140929   1.799   7.418   2.274 -2.1568  1.1486  0.5959
 5578TIP3    H240930   1.777   7.295   2.188  0.6555  0.8462  0.2171
 5579TIP3   OH240931   5.071   5.909   2.614  1.2556  0.2851  0.3729
 5579TIP3    H140932   5.147   5.867   2.654 -0.5608 -0.5554  3.2657
 5579TIP3    H240933   5.031   5.840   2.560  0.8300 -0.2938  1.4045
 5580TIP3   OH240934   6.602   4.241   1.371 -0.1860 -0.3173  0.1567
 5580TIP3    H140935   6.559   4.286   1.299 -1.7124 -0.6490  0.8282
 5580TIP3    H240936   6.568   4.283   1.450  0.5948 -0.7129  0.7144
 5581TIP3   OH240937   7.273   4.997   0.851 -0.3736  0.2387  0.6889
 5581TIP3    H140938   7.192   5.017   0.805 -0.3053  0.3323  0.6080
 5581TIP3    H240939   7.305   5.082   0.882 -0.1740  0.2351  0.4959
 5582TIP3   OH240940   4.218   2.455   1.113  0.6897 -1.0616  0.9527
 5582TIP3    H140941   4.238   2.498   1.196 -2.6051  0.2268  1.2303
 5582TIP3    H240942   4.262   2.508   1.047 -0.1663  0.5258  1.5991
 5583TIP3   OH240943   7.410   6.662   0.615 -0.2299  0.4687 -0.2415
 5583TIP3    H140944   7.450   6.746   0.639  0.6480 -0.6266  2.4570
 5583TIP3    H240945   7.317   6.674   0.634  0.1093  0.3978  1.6582
 5584TIP3   OH240946   3.328   5.280   1.133 -0.6240 -0.2577 -0.2431
 5584TIP3    H140947   3.409   5.321   1.105 -0.7367 -0.1556 -0.4217
 5584TIP3    H240948   3.331   5.192   1.096 -0.2860 -0.4852  0.3157
 5585TIP3   OH240949   7.623   6.071   1.255  0.1008 -0.1166 -0.0160
 5585TIP3    H140950   7.634   5.976   1.259  2.8225  0.1092 -0.3639
 5585TIP3    H240951   7.629   6.093   1.162 -1.4293  0.3570 -0.0369
 5586TIP3   OH240952   6.186   1.114   2.916  0.0207  0.0892 -0.2056
 5586TIP3    H140953   6.164   1.193   2.965  2.2373  0.0235  1.0248
 5586TIP3    H240954   6.106   1.061   2.919 -1.3306  2.0046 -0.5978
 5587TIP3   OH240955   7.627   6.137   0.981 -0.1679  0.1465  0.1423
 5587TIP3    H140956   7.623   6.119   0.887  0.9086  0.2997  0.0520
 5587TIP3    H240957   7.710   6.183   0.993  0.1084 -0.6162  1.2985
 5588TIP3   OH240958   2.126   0.424   2.189 -0.2319 -0.0331  0.4231
 5588TIP3    H140959   2.080   0.342   2.173 -0.6170  0.4917 -1.3458
 5588TIP3    H240960   2.217   0.405   2.165 -0.6498  0.5131 -1.7273
 5589TIP3   OH240961   0.285   2.582   1.028  0.1052  0.1983 -0.3841
 5589TIP3    H140962   0.265   2.512   1.091  1.2546  1.5945  1.6356
 5589TIP3    H240963   0.200   2.612   0.998 -0.4976 -0.3058  0.7382
 5590TIP3   OH240964   1.117   5.580   1.647  0.6664 -0.0522  0.1507
 5590TIP3    H140965   1.074   5.532   1.717 -0.1817 -1.6109 -1.3616
 5590TIP3    H240966   1.204   5.601   1.682 -0.5600  1.4340  2.5341
 5591TIP3   OH240967   1.549   6.797   3.028  0.8914  0.5385 -0.1738
 5591TIP3    H140968   1.604   6.726   2.995 -1.0130 -0.4602 -1.4111
 5591TIP3    H240969   1.460   6.773   3.002 -0.0230  2.6481  0.7100
 5592TIP3   OH240970   3.819   1.347   3.061  0.3766 -0.4697  0.1440
 5592TIP3    H140971   3.907   1.322   3.089  0.8205 -0.0071 -0.7990
 5592TIP3    H240972   3.797   1.423   3.115  1.2532  0.4632 -0.7644
 5593TIP3   OH240973   5.375   4.562   1.195  0.7181 -0.5221  0.2095
 5593TIP3    H140974   5.370   4.602   1.282  0.6893 -0.5664  0.2285
 5593TIP3    H240975   5.303   4.601   1.146 -0.2122 -1.5963  0.6611
 5594TIP3   OH240976   7.090   0.733   1.450  0.0450 -0.1292  0.2958
 5594TIP3    H140977   7.152   0.761   1.383 -0.9939 -1.2622 -1.2024
 5594TIP3    H240978   7.056   0.650   1.418  0.2174 -1.2327  2.7252
 5595TIP3   OH240979   2.315   1.036   1.262  0.1481 -0.0666 -0.2848
 5595TIP3    H140980   2.299   1.102   1.329 -1.8968 -1.6836  0.9388
 5595TIP3    H240981   2.347   0.960   1.310 -0.7238 -1.0439 -1.1877
 5596TIP3   OH240982   1.640   3.283   2.937 -0.8752  0.5611  0.0366
 5596TIP3    H140983   1.584   3.242   3.002 -0.7576  2.7568  1.6346
 5596TIP3    H240984   1.590   3.276   2.855 -0.2447 -3.8821 -0.2334
 5597TIP3   OH240985   6.987   7.580   2.658  0.0175 -1.1948  0.1449
 5597TIP3    H140986   7.016   7.533   2.736 -2.7025 -0.6004  1.6690
 5597TIP3    H240987   6.892   7.567   2.657 -0.4626  1.6785 -1.1056
 5598TIP3   OH240988   7.360   3.772   0.504  0.3459 -0.4532  0.3993
 5598TIP3    H140989   7.410   3.847   0.472  1.4409 -2.0762 -2.0529
 5598TIP3    H240990   7.386   3.762   0.595  1.1979  1.3009  0.3897
 5599TIP3   OH240991   2.267   4.074   2.312 -0.4927 -0.2146  0.7579
 5599TIP3    H140992   2.171   4.069   2.312 -0.5508  0.6678  0.8708
 5599TIP3    H240993   2.294   4.016   2.241 -1.1090 -0.5250  0.7685
 5600TIP3   OH240994   1.175   4.738   1.592  0.4304 -0.3190 -0.0782
 5600TIP3    H140995   1.242   4.692   1.541  2.5720  1.8721  0.5903
 5600TIP3    H240996   1.105   4.757   1.529  3.3641  3.1404 -2.6788
 5601TIP3   OH240997   1.554   2.353   0.350  0.0666  0.4907  0.3538
 5601TIP3    H140998   1.469   2.372   0.392 -0.8404  1.1404 -1.6551
 5601TIP3    H240999   1.587   2.439   0.324  1.0445  0.1789  0.5467
 5602TIP3   OH241000   3.375   4.531   1.199  0.1137 -0.2362 -0.1149
 5602TIP3    H141001   3.428   4.610   1.209 -1.1643  0.5669  0.5637
 5602TIP3    H241002   3.395   4.479   1.277 -0.7735  0.5083  0.6382
 5603TIP3   OH241003   0.706   4.468   1.452 -0.0080 -0.1178 -0.1452
 5603TIP3    H141004   0.798   4.489   1.464  0.1207 -0.0712 -1.1864
 5603TIP3    H241005   0.661   4.519   1.520  0.7864 -0.8442  0.9702
 5604TIP3   OH241006   1.795   6.773   1.198 -0.6184  0.3086  0.3573
 5604TIP3    H141007   1.890   6.766   1.196 -0.4164  1.5581  2.5936
 5604TIP3    H241008   1.764   6.688   1.168  1.2352 -0.9472  1.8439
 5605TIP3   OH241009   6.971   4.558   1.205  0.0367  0.1580 -0.6193
 5605TIP3    H141010   6.939   4.492   1.265  0.8610 -0.9659 -1.3860
 5605TIP3    H241011   6.991   4.634   1.260 -0.2910 -0.4476  0.3460
 5606TIP3   OH241012   0.683   6.407   0.893  0.0872  0.0830 -0.0282
 5606TIP3    H141013   0.742   6.350   0.943 -1.2140  0.9179  2.6845
 5606TIP3    H241014   0.615   6.349   0.860  0.3129 -0.3432  0.2505
 5607TIP3   OH241015   4.979   5.322   1.557  0.0957  0.0361  0.1883
 5607TIP3    H141016   4.959   5.261   1.485  1.0138 -0.9031  0.6999
 5607TIP3    H241017   5.025   5.268   1.622  0.5639  1.1923  0.8441
 5608TIP3   OH241018   4.603   5.191   1.198 -0.4962 -0.1089 -0.5297
 5608TIP3    H141019   4.544   5.234   1.260 -1.2068  0.2219 -1.4051
 5608TIP3    H241020   4.637   5.263   1.144 -0.5722 -0.4824 -1.0821
 5609TIP3   OH241021   2.364   1.148   1.724  0.5803 -0.2170 -0.1130
 5609TIP3    H141022   2.413   1.124   1.803  1.8611 -0.5469 -0.9790
 5609TIP3    H241023   2.336   1.064   1.688 -0.0517 -0.0617  0.0105
 5610TIP3   OH241024   2.787   2.965   1.685 -0.1232  0.2052 -0.0771
 5610TIP3    H141025   2.781   2.901   1.756  2.6586  0.8931  0.8872
 5610TIP3    H241026   2.804   2.913   1.607  1.2401 -0.3315  0.5483
 5611TIP3   OH241027   2.931   5.916   3.180 -0.2280  0.1576  0.5235
 5611TIP3    H141028   2.871   5.897   3.108  0.6106 -0.8959  0.0928
 5611TIP3    H241029   2.947   6.011   3.173 -1.8563  0.4761  0.6815
 5612TIP3   OH241030   1.154   7.292   3.594 -0.3318  0.0572 -0.0312
 5612TIP3    H141031   1.092   7.252   3.533 -0.1365 -0.6941  0.2577
 5612TIP3    H241032   1.224   7.228   3.604 -1.4717 -0.9012  2.7860
 5613TIP3   OH241033   4.383   4.116   3.067 -0.1464 -0.0553  0.1389
 5613TIP3    H141034   4.432   4.172   3.128 -1.7202  0.8077  0.6493
 5613TIP3    H241035   4.385   4.165   2.984  1.6157 -1.0243 -0.4565
 5614TIP3   OH241036   2.664   7.352   0.797 -0.0791  0.5076 -0.7710
 5614TIP3    H141037   2.628   7.410   0.864 -2.1103  2.0559 -3.0444
 5614TIP3    H241038   2.593   7.291   0.776  0.8244 -0.5265 -0.9497
 5615TIP3   OH241039   1.647   7.593   3.497 -0.1658  0.0646 -0.1047
 5615TIP3    H141040   1.634   7.559   3.585  0.3912 -0.3739 -0.1851
 5615TIP3    H241041   1.648   7.516   3.440  1.1292  0.1874 -0.2845
 5616TIP3   OH241042   1.669   3.445   2.212 -0.6096 -0.5319  0.7752
 5616TIP3    H141043   1.685   3.386   2.286 -3.0256 -0.1218  1.7270
 5616TIP3    H241044   1.629   3.522   2.251  1.2202  1.2416 -0.6112
 5617TIP3   OH241045   6.342   0.276   0.963 -0.0621 -0.2541  0.3377
 5617TIP3    H141046   6.255   0.238   0.975  0.3925 -1.3771  0.1328
 5617TIP3    H241047   6.403   0.208   0.991  0.7623  0.5874  0.6639
 5618TIP3   OH241048   3.656   1.917   0.585  0.1082 -0.3907 -0.3118
 5618TIP3    H141049   3.708   1.987   0.545 -0.9688  0.4949 -0.2155
 5618TIP3    H241050   3.720   1.867   0.636  0.7747  1.0919  0.3814
 5619TIP3   OH241051   2.734   0.948   1.230  0.2555 -0.1273 -0.1229
 5619TIP3    H141052   2.797   0.897   1.180  0.8991  0.3568  0.1909
 5619TIP3    H241053   2.695   1.008   1.167 -0.4968 -0.9658 -0.4942
 5620TIP3   OH241054   5.448   0.192   2.860 -0.0539  0.1154 -0.2684
 5620TIP3    H141055   5.489   0.106   2.869  0.5219  0.0890 -2.4426
 5620TIP3    H241056   5.399   0.187   2.778  0.3691  1.9942 -0.6921
 5621TIP3   OH241057   3.961   3.083   3.254 -0.4044  0.2580  0.5837
 5621TIP3    H141058   4.049   3.078   3.215 -0.3602 -0.7922  0.7750
 5621TIP3    H241059   3.903   3.096   3.180 -0.0502  1.4608  0.5028
 5622TIP3   OH241060   3.385   2.675   2.697 -0.0889  0.0749  0.5809
 5622TIP3    H141061   3.374   2.649   2.789 -1.3167 -0.7683  0.2201
 5622TIP3    H241062   3.362   2.596   2.648  0.1864  0.6360 -0.4624
 5623TIP3   OH241063   6.175   0.024   1.107 -0.2578 -0.0770 -0.6365
 5623TIP3    H141064   6.156   0.086   1.178  1.9776  2.3625 -1.9719
 5623TIP3    H241065   6.134   0.063   1.030 -3.4671 -3.1655 -0.7251
 5624TIP3   OH241066   7.040   6.796   1.045  0.0636  0.2222 -0.1590
 5624TIP3    H141067   7.014   6.783   1.136  0.1556  2.0285  0.1689
 5624TIP3    H241068   7.134   6.812   1.048  0.3005 -0.9758 -0.7315
 5625TIP3   OH241069   6.201   6.222   2.492 -0.0400 -0.4614  0.3666
 5625TIP3    H141070   6.232   6.286   2.556  2.6222 -0.0997 -1.1475
 5625TIP3    H241071   6.257   6.145   2.505  1.4476  0.0601 -2.2156
 5626TIP3   OH241072   6.589   2.609   1.915  0.0015 -0.1562 -0.4140
 5626TIP3    H141073   6.636   2.625   1.833 -0.3786 -2.2377 -1.1086
 5626TIP3    H241074   6.619   2.522   1.943 -1.3041 -0.3054  0.6226
 5627TIP3   OH241075   1.827   5.727   3.338 -0.1571  0.0322 -0.2963
 5627TIP3    H141076   1.733   5.712   3.347 -0.0178 -0.9720 -0.3181
 5627TIP3    H241077   1.840   5.745   3.245 -0.6435  2.8554  0.1193
 5628TIP3   OH241078   2.598   5.969   1.257 -0.3342  0.6991 -0.3120
 5628TIP3    H141079   2.562   5.904   1.317 -1.2432  1.5977  0.1427
 5628TIP3    H241080   2.689   5.943   1.245 -0.0642  0.6273  1.6330
 5629TIP3   OH241081   3.039   2.460   2.250  0.4520  0.4572  0.4348
 5629TIP3    H141082   2.984   2.532   2.282  0.2113  0.0392  0.9765
 5629TIP3    H241083   3.100   2.502   2.190 -1.7373  0.6774 -1.8080
 5630TIP3   OH241084   5.844   3.769   2.720  0.0544  0.2484 -0.3310
 5630TIP3    H141085   5.916   3.832   2.729  0.9426 -0.8964  1.1516
 5630TIP3    H241086   5.888   3.684   2.709 -1.1125 -0.1732 -2.0132
 5631TIP3   OH241087   1.752   4.111   0.793  0.6137 -0.3512  0.1190
 5631TIP3    H141088   1.758   4.138   0.884  0.9730  1.2709 -0.3556
 5631TIP3    H241089   1.658   4.107   0.775  0.3837  4.0030 -0.6616
 5632TIP3   OH241090   6.294   3.843   1.291 -0.5002  0.1646  0.3121
 5632TIP3    H141091   6.390   3.844   1.290 -0.4898 -0.5248 -0.3430
 5632TIP3    H241092   6.272   3.752   1.311 -1.0303  0.4717  1.2101
 5633TIP3   OH241093   2.258   3.232   1.611 -0.1189  0.1449 -0.1351
 5633TIP3    H141094   2.240   3.138   1.613  0.4454 -0.0574 -2.3657
 5633TIP3    H241095   2.319   3.246   1.684 -0.4810 -1.1464  0.4358
 5634TIP3   OH241096   1.887   4.178   1.170  1.0011  0.4236  0.1127
 5634TIP3    H141097   1.889   4.253   1.111  1.8893 -0.8469 -1.5428
 5634TIP3    H241098   1.952   4.199   1.238  1.2564  1.1306 -0.3391
 5635TIP3   OH241099   5.163   7.660   2.279  0.3020 -0.0346  0.2946
 5635TIP3    H141100   5.090   7.692   2.226  1.1355 -1.7554 -2.0909
 5635TIP3    H241101   5.122   7.609   2.349 -0.7879  0.8588  0.3350
 5636TIP3   OH241102   0.764   4.621   0.561 -0.5101  0.8891 -0.1762
 5636TIP3    H141103   0.680   4.641   0.520  0.6252  3.8446 -1.3228
 5636TIP3    H241104   0.756   4.658   0.650 -0.9476 -0.3089  0.3017
 5637TIP3   OH241105   2.611   0.189   1.332  0.4639 -0.2835  0.5618
 5637TIP3    H141106   2.702   0.161   1.346  0.3616  0.1893  2.3936
 5637TIP3    H241107   2.583   0.224   1.417 -0.1331  3.3489 -0.9338
 5638TIP3   OH241108   5.919   5.976   1.768 -0.6853 -0.0211  0.6296
 5638TIP3    H141109   5.867   6.053   1.742 -0.8590  0.2165  1.6380
 5638TIP3    H241110   5.858   5.924   1.821 -0.7938 -1.2270 -0.6449
 5639TIP3   OH241111   3.646   2.316   0.520 -0.7219  0.0459 -0.1653
 5639TIP3    H141112   3.627   2.269   0.601 -1.0659 -0.9993 -0.8372
 5639TIP3    H241113   3.608   2.403   0.534  1.4514  0.8042  1.7903
 5640TIP3   OH241114   3.540   6.494   1.948  0.3947 -0.5293  0.4918
 5640TIP3    H141115   3.632   6.476   1.967  0.1564  0.2655  2.7044
 5640TIP3    H241116   3.542   6.576   1.898  0.8685  0.1110  1.5276
 5641TIP3   OH241117   3.486   0.345   0.729  0.2416  0.7279 -0.0062
 5641TIP3    H141118   3.512   0.372   0.817 -1.5579  1.2467  0.3987
 5641TIP3    H241119   3.547   0.274   0.706 -0.2886 -0.5713  2.3366
 5642TIP3   OH241120   2.839   4.020   1.414  0.5423  0.1102  0.0120
 5642TIP3    H141121   2.889   4.036   1.494  1.3965  1.1170 -0.7059
 5642TIP3    H241122   2.863   4.091   1.355 -1.4901  0.4473 -0.4902
 5643TIP3   OH241123   4.555   0.701   1.004 -0.0859  0.3681  0.3950
 5643TIP3    H141124   4.487   0.720   0.940  0.3698 -0.1474 -0.2533
 5643TIP3    H241125   4.507   0.674   1.083 -0.6442  0.7307  0.1843
 5644TIP3   OH241126   1.540   1.384   2.313  0.7766 -0.3162 -0.3982
 5644TIP3    H141127   1.462   1.440   2.312  2.2084  1.8190 -0.3285
 5644TIP3    H241128   1.549   1.356   2.405  0.9193  0.7077 -0.0873
 5645TIP3   OH241129   1.083   3.860   2.809 -0.0387 -0.0407 -0.2833
 5645TIP3    H141130   1.056   3.800   2.739  0.3346  1.3886 -1.6991
 5645TIP3    H241131   1.108   3.940   2.764  2.3713  0.2024  1.3133
 5646TIP3   OH241132   2.602   4.425   2.186  0.2765  0.2026  0.0055
 5646TIP3    H141133   2.575   4.509   2.222  2.3452  1.5616 -1.4212
 5646TIP3    H241134   2.633   4.375   2.261 -0.2238  1.0121  0.7688
 5647TIP3   OH241135   5.115   5.267   2.871  0.3152 -0.5453 -0.1380
 5647TIP3    H141136   5.036   5.247   2.819 -0.1645 -0.2139  0.4537
 5647TIP3    H241137   5.083   5.322   2.942  1.3590  1.0530 -0.8639
 5648TIP3   OH241138   1.392   7.456   3.064 -0.4272 -0.0906 -0.4078
 5648TIP3    H141139   1.387   7.440   3.158 -0.7188  0.9110 -0.2371
 5648TIP3    H241140   1.485   7.468   3.046 -0.1270 -2.3187 -0.6364
 5649TIP3   OH241141   1.220   2.790   0.905 -0.0656 -0.1146  0.6541
 5649TIP3    H141142   1.136   2.832   0.925  0.1575  0.7520 -0.1245
 5649TIP3    H241143   1.206   2.697   0.922 -0.4320  0.2971  2.9743
 5650TIP3   OH241144   0.129   1.088   1.772  0.2069 -0.5444  0.5205
 5650TIP3    H141145   0.155   1.174   1.806 -1.3641 -0.0706  0.5917
 5650TIP3    H241146   0.193   1.027   1.809  1.8061  0.6569 -0.1221
 5651TIP3   OH241147   3.062   3.581   0.851  0.1691 -0.6969 -0.1416
 5651TIP3    H141148   3.035   3.491   0.832  1.4059 -1.1738  0.2547
 5651TIP3    H241149   2.980   3.631   0.853 -0.5617 -1.8665 -0.0650
 5652TIP3   OH241150   6.374   4.392   2.402 -0.2009  0.0039  0.1071
 5652TIP3    H141151   6.322   4.314   2.381  0.9687 -0.7395 -0.1537
 5652TIP3    H241152   6.447   4.389   2.340  1.5339 -0.3899  2.0565
 5653TIP3   OH241153   0.241   0.000   1.793  0.2715  0.1640 -0.4129
 5653TIP3    H141154   0.291   0.059   1.851  1.3821  0.1052 -1.2715
 5653TIP3    H241155   0.226   0.051   1.714 -1.9720  0.5313  0.1804
 5654TIP3   OH241156   0.044   4.186   0.766  0.0383  0.1944  0.3599
 5654TIP3    H141157  -0.051   4.177   0.763  0.2283 -2.3012 -0.2560
 5654TIP3    H241158   0.076   4.101   0.797  2.1406  0.4228 -0.9389
 5655TIP3   OH241159   6.939   1.235   2.893 -0.3955  0.1996  1.0404
 5655TIP3    H141160   6.978   1.321   2.910 -1.9399  0.7181  2.2476
 5655TIP3    H241161   6.928   1.232   2.798  2.1504  0.1670  0.6696
 5656TIP3   OH241162   1.989   5.988   1.352  0.1088  0.0734 -0.1547
 5656TIP3    H141163   2.028   6.018   1.434  2.1668 -0.5669 -0.8295
 5656TIP3    H241164   2.027   6.045   1.285 -1.6700  0.6908 -0.6871
 5657TIP3   OH241165   2.683   7.017   0.480  0.0762  0.1505 -0.0376
 5657TIP3    H141166   2.774   6.992   0.468 -0.4174 -0.5815 -3.1527
 5657TIP3    H241167   2.682   7.112   0.465  0.2923  0.0900 -0.4547
 5658TIP3   OH241168   3.631   0.125   1.371 -0.4986  0.1699  0.1570
 5658TIP3    H141169   3.686   0.093   1.300 -0.7923  0.5625 -0.2500
 5658TIP3    H241170   3.693   0.167   1.432 -0.0429 -1.5367  0.9358
 5659TIP3   OH241171   1.344   7.626   0.864 -0.3003  0.2209 -0.5845
 5659TIP3    H141172   1.285   7.697   0.891  0.9287  1.5433 -1.2188
 5659TIP3    H241173   1.428   7.669   0.851  0.2792 -1.2158 -1.8637
 5660TIP3   OH241174   0.619   6.201   1.776 -0.4427 -0.2291  0.1284
 5660TIP3    H141175   0.564   6.133   1.814  1.1935 -1.3900  0.5355
 5660TIP3    H241176   0.677   6.155   1.715  1.9894  0.3768  1.7963
 5661TIP3   OH241177   2.257   2.181   3.008 -0.3751 -0.9308 -0.1017
 5661TIP3    H141178   2.223   2.250   2.951  0.7176 -0.7741 -0.5844
 5661TIP3    H241179   2.185   2.161   3.068 -0.7882  0.4564 -0.1149
 5662TIP3   OH241180   2.784   1.475   1.806  0.6455 -0.5488  0.0929
 5662TIP3    H141181   2.748   1.430   1.729 -0.8867  0.6343  0.0660
 5662TIP3    H241182   2.804   1.404   1.867  2.1376 -1.5425 -1.4410
 5663TIP3   OH241183   0.694   3.578   0.798 -0.0931  0.4315 -0.8345
 5663TIP3    H141184   0.621   3.550   0.854  1.7195 -0.3270  1.3036
 5663TIP3    H241185   0.749   3.499   0.790  1.7287  1.5848 -0.2925
 5664TIP3   OH241186   4.443   7.287   1.470 -0.2222 -0.4149 -0.3188
 5664TIP3    H141187   4.470   7.353   1.533 -0.2997 -0.2434 -0.4639
 5664TIP3    H241188   4.363   7.249   1.508  0.0128 -0.6653 -0.0704
 5665TIP3   OH241189   0.174   6.711   1.195  0.0627  0.2023 -0.8703
 5665TIP3    H141190   0.122   6.631   1.200 -0.5201  0.6199  0.1338
 5665TIP3    H241191   0.110   6.782   1.201  0.7290  0.7260  0.5771
 5666TIP3   OH241192   3.603   1.519   0.948 -1.1720 -0.5624 -0.0850
 5666TIP3    H141193   3.515   1.555   0.946 -1.3607 -0.9706  0.5250
 5666TIP3    H241194   3.645   1.561   1.023 -1.5123 -1.8469  0.8545
 5667TIP3   OH241195   4.857   6.571   1.284 -0.4635 -0.2457 -0.0245
 5667TIP3    H141196   4.835   6.643   1.225 -0.3665  0.0791  0.3288
 5667TIP3    H241197   4.773   6.527   1.300 -1.0946  1.4744  1.9583
 5668TIP3   OH241198   5.897   0.928   0.996 -0.4115 -0.1234 -0.4734
 5668TIP3    H141199   5.822   0.881   0.960  1.6410 -2.7161 -1.6790
 5668TIP3    H241200   5.968   0.914   0.933  1.3817  1.4208  1.0330
 5669TIP3   OH241201   4.403   2.440   0.877  0.1101 -0.2744 -0.2084
 5669TIP3    H141202   4.322   2.389   0.870  1.2847 -2.0407 -2.2556
 5669TIP3    H241203   4.457   2.409   0.804  2.8712  0.4421  1.3957
 5670TIP3   OH241204   3.178   7.106   2.813  0.3402 -0.0385  0.3019
 5670TIP3    H141205   3.233   7.171   2.770  0.1549 -0.4850 -0.6297
 5670TIP3    H241206   3.209   7.022   2.780  0.7227 -0.4501  1.6638
 5671TIP3   OH241207   1.658   3.652   1.630 -0.3187  0.4282  0.2779
 5671TIP3    H141208   1.740   3.612   1.658 -0.0065  0.7935 -0.1099
 5671TIP3    H241209   1.680   3.743   1.611 -0.7320  0.4419 -0.1691
 5672TIP3   OH241210   1.605   6.288   1.798  0.0719  0.3026  0.3498
 5672TIP3    H141211   1.636   6.266   1.886 -0.9889 -1.3986  0.3368
 5672TIP3    H241212   1.511   6.273   1.801 -0.2021  1.5743 -0.7070
 5673TIP3   OH241213   3.267   0.096   1.630  0.1477  0.3885 -0.1386
 5673TIP3    H141214   3.360   0.098   1.653 -0.2465  0.3375  1.6499
 5673TIP3    H241215   3.244   0.003   1.632 -0.6895  0.5477  3.0851
 5674TIP3   OH241216   5.476   6.399   1.616 -0.7925 -0.0233  0.1636
 5674TIP3    H141217   5.426   6.384   1.535  0.1576  0.3927 -0.5244
 5674TIP3    H241218   5.518   6.484   1.603  2.0881 -1.3940 -0.3885
 5675TIP3   OH241219   0.861   6.919   3.051  0.3294 -0.0465 -0.6984
 5675TIP3    H141220   0.918   6.945   2.979  0.5556 -0.9142 -0.8491
 5675TIP3    H241221   0.919   6.871   3.111 -0.2706 -1.1238 -0.9552
 5676TIP3   OH241222   6.299   4.700   1.296 -0.4656 -0.4899  0.3047
 5676TIP3    H141223   6.391   4.681   1.313 -0.0334  0.7858 -0.4273
 5676TIP3    H241224   6.286   4.787   1.334 -0.8682  0.1185 -1.1690
 5677TIP3   OH241225   6.540   2.298   1.210 -0.1322  0.5032 -0.0060
 5677TIP3    H141226   6.577   2.384   1.190  1.3949  0.0602  0.7802
 5677TIP3    H241227   6.516   2.262   1.124  1.2955  0.8079 -0.5523
 5678TIP3   OH241228   0.405   6.703   1.652 -0.3793  0.6595 -0.0952
 5678TIP3    H141229   0.468   6.632   1.641  0.5635  1.5164 -0.4538
 5678TIP3    H241230   0.347   6.674   1.722  0.2431 -0.2807  0.0444
 5679TIP3   OH241231   0.629   2.749   1.693  0.4419 -0.1181  0.1937
 5679TIP3    H141232   0.649   2.699   1.772  1.0710 -1.4743 -0.7645
 5679TIP3    H241233   0.659   2.838   1.712  0.6323 -0.4304  1.4482
 5680TIP3   OH241234   5.279   2.521   1.095  0.4028 -0.1148  0.2846
 5680TIP3    H141235   5.239   2.441   1.061 -0.0108  0.6314 -1.0138
 5680TIP3    H241236   5.351   2.539   1.035 -1.0286  1.8421 -0.9751
 5681TIP3   OH241237   0.090   3.048   1.789 -0.0407 -0.6319  0.4022
 5681TIP3    H141238   0.023   3.010   1.845 -0.8944 -0.4509 -0.4777
 5681TIP3    H241239   0.085   3.142   1.805 -2.7170 -0.1207 -2.4324
 5682TIP3   OH241240   1.484   7.527   1.833  0.3811  0.5205 -0.6154
 5682TIP3    H141241   1.544   7.468   1.786 -0.1384 -0.3174 -0.2535
 5682TIP3    H241242   1.434   7.570   1.763  1.3911  1.2249 -0.9176
 5683TIP3   OH241243   4.516   7.388   2.573  0.8900  0.6539 -0.2766
 5683TIP3    H141244   4.427   7.356   2.561  1.0664  0.2554 -0.5553
 5683TIP3    H241245   4.507   7.464   2.631  0.3980  0.4759 -0.1135
 5684TIP3   OH241246   1.044   2.211   1.366  0.1583  0.7894  0.5831
 5684TIP3    H141247   1.025   2.181   1.277  0.7696 -1.4055  1.1232
 5684TIP3    H241248   1.008   2.300   1.369 -2.9563 -0.2599 -0.8034
 5685TIP3   OH241249   6.636   0.995   2.588 -0.1993 -0.2922 -0.5036
 5685TIP3    H141250   6.612   0.956   2.503 -1.4842 -0.7762  0.0458
 5685TIP3    H241251   6.565   0.969   2.646  1.3066 -1.0420  1.0599
 5686TIP3   OH241252   1.690   2.995   1.430  0.0943 -0.4941  0.8769
 5686TIP3    H141253   1.652   3.000   1.518 -0.6301  0.2207  0.5426
 5686TIP3    H241254   1.628   2.942   1.380  0.0006 -0.0845  0.5547
 5687TIP3   OH241255   6.012   5.584   1.709  0.4626 -0.4240 -0.0331
 5687TIP3    H141256   5.960   5.643   1.763  1.1430  0.0985  0.0659
 5687TIP3    H241257   5.960   5.573   1.629  0.6537  0.9338 -0.3762
 5688TIP3   OH241258   5.682   0.755   2.463  0.0781  0.3834 -0.1294
 5688TIP3    H141259   5.623   0.750   2.539 -1.5875 -1.3226 -1.4404
 5688TIP3    H241260   5.753   0.694   2.484  0.8885  1.6446  0.9909
 5689TIP3   OH241261   4.338   0.106   0.525 -0.0577  0.6509 -0.3596
 5689TIP3    H141262   4.420   0.111   0.477  1.9231 -0.0780  2.6916
 5689TIP3    H241263   4.319   0.012   0.530  1.4724  0.3659  2.6689
 5690TIP3   OH241264   5.479   2.672   1.234  0.0587 -0.3890 -0.2178
 5690TIP3    H141265   5.537   2.655   1.160  0.8463 -0.6527  0.4490
 5690TIP3    H241266   5.408   2.609   1.224  1.3258 -2.0021  0.4839
 5691TIP3   OH241267   1.604   7.444   0.937  0.5646  0.2987 -0.5327
 5691TIP3    H141268   1.509   7.450   0.945  0.4146  0.4023 -2.0194
 5691TIP3    H241269   1.629   7.376   0.999 -0.4525  0.3913  0.0059
 5692TIP3   OH241270   2.654   3.418   2.736  0.4017  0.1425 -0.3411
 5692TIP3    H141271   2.691   3.379   2.656  0.4482 -0.3404 -0.0888
 5692TIP3    H241272   2.572   3.369   2.750  1.2490 -0.9874  0.8739
 5693TIP3   OH241273   5.603   7.609   0.523  0.1472  0.0180 -0.3980
 5693TIP3    H141274   5.580   7.587   0.613 -1.7854  1.2236 -0.5426
 5693TIP3    H241275   5.658   7.536   0.494 -0.4334 -1.1454  1.2605
 5694TIP3   OH241276   1.057   0.350   0.714  0.1539 -0.7188 -0.6023
 5694TIP3    H141277   0.975   0.324   0.672 -0.5075 -1.0841  0.8200
 5694TIP3    H241278   1.051   0.446   0.721 -0.5983 -0.8188  0.3188
 5695TIP3   OH241279   3.310   0.896   1.287  0.3522  0.0564 -0.4615
 5695TIP3    H141280   3.244   0.943   1.237  0.3817  0.8731  0.2287
 5695TIP3    H241281   3.368   0.965   1.320  0.0031 -0.3723  1.1555
 5696TIP3   OH241282   2.060   1.608   0.971 -0.3146 -0.5522 -0.4287
 5696TIP3    H141283   2.073   1.564   0.888  0.3542  0.1056 -0.6889
 5696TIP3    H241284   2.075   1.541   1.037  0.2718 -0.8176 -0.8238
 5697TIP3   OH241285   5.011   1.821   0.643 -0.0618 -0.2228 -0.0170
 5697TIP3    H141286   5.055   1.859   0.568 -0.4678 -0.5941 -0.4514
 5697TIP3    H241287   5.054   1.860   0.719  0.9158 -0.4766 -0.4314
 5698TIP3   OH241288   7.470   4.049   0.817 -0.5412 -0.4599  0.1339
 5698TIP3    H141289   7.480   3.956   0.797 -0.9439 -0.5337  0.2799
 5698TIP3    H241290   7.426   4.051   0.901  0.5235 -0.1379  0.7060
 5699TIP3   OH241291   7.012   1.323   2.198 -0.0278 -0.1239  0.1317
 5699TIP3    H141292   7.048   1.298   2.284 -0.6343 -0.6076  0.2475
 5699TIP3    H241293   7.040   1.414   2.187  1.3425 -0.5055  0.1663
 5700TIP3   OH241294   3.401   2.067   2.672  0.1579 -0.4698  0.4812
 5700TIP3    H141295   3.475   2.087   2.729  0.0017 -1.0798  0.9027
 5700TIP3    H241296   3.435   2.080   2.583  0.5868 -0.1543  0.6873
 5701TIP3   OH241297   4.623   6.601   1.618 -0.2427  0.3548  0.0011
 5701TIP3    H141298   4.652   6.681   1.661 -0.9774  1.7082 -1.8867
 5701TIP3    H241299   4.572   6.555   1.684 -0.1326  1.6304  1.0135
 5702TIP3   OH241300   3.174   3.691   2.812 -0.0833 -0.3155 -0.1478
 5702TIP3    H141301   3.258   3.730   2.788  0.5215 -0.6330  1.3506
 5702TIP3    H241302   3.118   3.766   2.832  1.7100  0.0770  4.9028
 5703TIP3   OH241303   2.059   7.243   3.133  0.5968  0.4021  0.3078
 5703TIP3    H141304   2.033   7.268   3.044  0.4249  1.2132  0.5738
 5703TIP3    H241305   2.143   7.199   3.122  0.0129 -0.6074 -0.3747
 5704TIP3   OH241306   3.322   4.282   1.980  0.0747  0.0746  0.1932
 5704TIP3    H141307   3.338   4.367   2.021 -0.0877  0.5767 -0.7574
 5704TIP3    H241308   3.234   4.287   1.944  0.1922 -0.3578 -0.1847
 5705TIP3   OH241309   3.014   3.437   2.103 -1.0109  0.0935  0.1517
 5705TIP3    H141310   2.984   3.401   2.020  0.5606 -0.5390 -0.1671
 5705TIP3    H241311   3.058   3.519   2.080  3.0279 -1.9396 -0.2950
 5706TIP3   OH241312   6.776   1.988   1.628 -0.4686  0.0145 -0.1672
 5706TIP3    H141313   6.848   2.042   1.598  0.5941 -1.9774 -1.4512
 5706TIP3    H241314   6.808   1.947   1.708 -1.0669  0.8157  0.5037
 5707TIP3   OH241315   7.623   1.486   2.234  0.0372  0.2284  0.3725
 5707TIP3    H141316   7.687   1.460   2.167 -0.9667 -2.2260  0.2812
 5707TIP3    H241317   7.631   1.419   2.302 -2.2595 -0.0014  0.4719
 5708TIP3   OH241318   0.512   4.725   0.558  0.9057  0.1228  0.1676
 5708TIP3    H141319   0.454   4.740   0.483 -0.2068 -1.2627  0.7163
 5708TIP3    H241320   0.454   4.701   0.630  2.0801 -0.1119  1.0732
 5709TIP3   OH241321   1.368   7.152   2.237  0.3373  0.3840 -0.2458
 5709TIP3    H141322   1.386   7.223   2.297  0.1944  0.1786  0.0424
 5709TIP3    H241323   1.402   7.182   2.153  0.5577  0.6602 -0.0580
 5710TIP3   OH241324   4.385   0.369   0.636  0.2032  0.4428  0.4721
 5710TIP3    H141325   4.442   0.312   0.689  1.7871  1.8390  0.3667
 5710TIP3    H241326   4.357   0.314   0.563  0.9366 -0.4808  0.8652
 5711TIP3   OH241327   3.847   7.318   0.507 -0.3343 -0.4220 -0.1954
 5711TIP3    H141328   3.927   7.277   0.473  0.6925  0.1734  1.3522
 5711TIP3    H241329   3.805   7.249   0.558  1.3008  0.2379  2.2590
 5712TIP3   OH241330   1.501   4.731   2.795 -0.0051  0.4322  0.5286
 5712TIP3    H141331   1.418   4.765   2.828 -0.2768  1.2796 -0.9548
 5712TIP3    H241332   1.560   4.734   2.871 -2.0517 -3.1157  2.5390
 5713TIP3   OH241333   3.985   1.850   2.718  0.5485 -0.0814  0.2253
 5713TIP3    H141334   3.915   1.836   2.655  0.4392 -2.1493  0.7288
 5713TIP3    H241335   3.993   1.945   2.725 -2.9515  0.2917  0.9480
 5714TIP3   OH241336   5.941   2.484   1.862  0.5674  0.4319  0.2500
 5714TIP3    H141337   5.974   2.573   1.852 -1.0812  1.0567  0.0110
 5714TIP3    H241338   5.901   2.482   1.949  0.7721 -0.1586  0.3425
 5715TIP3   OH241339   1.280   3.133   2.040 -0.1013 -0.0022  0.8160
 5715TIP3    H141340   1.313   3.220   2.021 -1.0271  0.1756 -0.0878
 5715TIP3    H241341   1.198   3.148   2.088  0.5408 -0.4156  2.0934
 5716TIP3   OH241342   3.406   1.522   1.945  0.3555  0.3974  0.0952
 5716TIP3    H141343   3.371   1.611   1.948 -2.4370 -0.5665 -1.0764
 5716TIP3    H241344   3.483   1.529   1.888 -1.9383  1.5123 -3.1209
 5717TIP3   OH241345   3.281   6.214   0.730  0.0203  0.0232 -0.0723
 5717TIP3    H141346   3.350   6.226   0.795 -0.2981  0.8382  0.1221
 5717TIP3    H241347   3.245   6.127   0.750 -0.6768  0.6294  1.4372
 5718TIP3   OH241348   2.159   4.458   2.851 -0.1087  0.0678 -0.9529
 5718TIP3    H141349   2.227   4.394   2.874  0.0787  0.1025 -1.3994
 5718TIP3    H241350   2.141   4.505   2.933 -0.8140 -1.0819 -0.4223
 5719TIP3   OH241351   3.237   2.598   0.746  0.2789 -0.3339 -0.4062
 5719TIP3    H141352   3.264   2.687   0.727  0.2400  0.2008  1.7454
 5719TIP3    H241353   3.169   2.578   0.682  3.1052 -0.4068 -3.6638
 5720TIP3   OH241354   0.303   6.461   1.524  0.4199 -0.7727 -0.1773
 5720TIP3    H141355   0.302   6.417   1.610  0.1659 -2.4053 -0.9624
 5720TIP3    H241356   0.232   6.525   1.529 -0.0573 -1.3401  0.5993
 5721TIP3   OH241357   6.719   2.552   2.305 -0.4949 -0.1149 -0.2190
 5721TIP3    H141358   6.794   2.604   2.277 -0.8909  0.7685  0.3391
 5721TIP3    H241359   6.701   2.495   2.230  2.2543 -2.1601  0.5274
 5722TIP3   OH241360   5.757   4.583   0.627  0.1486 -0.3477  0.0428
 5722TIP3    H141361   5.698   4.653   0.652  1.1416  0.2629  0.7554
 5722TIP3    H241362   5.831   4.627   0.586 -0.2013 -1.1487 -1.5416
 5723TIP3   OH241363   1.056   6.388   2.633 -0.3671 -0.3210 -0.9675
 5723TIP3    H141364   1.099   6.330   2.696 -0.3346 -1.5583 -2.0881
 5723TIP3    H241365   1.127   6.439   2.595 -0.3409  0.1519 -0.3130
 5724TIP3   OH241366   1.142   3.086   2.625  0.3736 -0.0349  0.6429
 5724TIP3    H141367   1.232   3.119   2.634  1.0505 -1.6156  0.0010
 5724TIP3    H241368   1.089   3.165   2.618  1.9592  0.9775 -1.3017
 5725TIP3   OH241369   2.572   3.336   1.582  0.0356 -0.4570  0.1336
 5725TIP3    H141370   2.589   3.426   1.555 -1.9987  0.4677  1.6999
 5725TIP3    H241371   2.518   3.344   1.660 -0.9851 -3.0508 -0.2120
 5726TIP3   OH241372   2.789   4.448   1.360 -0.0052 -0.6855 -0.9492
 5726TIP3    H141373   2.696   4.455   1.338 -0.3126 -2.6605 -0.4829
 5726TIP3    H241374   2.790   4.440   1.455  0.7377  0.1536 -0.8717
 5727TIP3   OH241375   3.720   6.139   0.817  0.4596  0.0565 -0.5320
 5727TIP3    H141376   3.808   6.111   0.790  0.4435 -0.1345 -0.3887
 5727TIP3    H241377   3.661   6.082   0.767  0.4127  0.2748 -0.7303
 5728TIP3   OH241378   2.498   5.138   0.410 -0.1169  0.2790  0.4803
 5728TIP3    H141379   2.446   5.218   0.419  0.4801  0.7075  0.1642
 5728TIP3    H241380   2.555   5.154   0.335  0.0964 -0.3959  0.4906
 5729TIP3   OH241381   0.126   1.161   0.860  0.4747 -0.1229  0.6404
 5729TIP3    H141382   0.190   1.108   0.910  1.4263 -0.1413 -0.5552
 5729TIP3    H241383   0.062   1.098   0.829  0.6466 -0.3191  0.6803
 5730TIP3   OH241384   6.358   6.196   1.666  0.4456 -0.6519  0.1615
 5730TIP3    H141385   6.345   6.290   1.648  1.4861 -0.6213 -0.4972
 5730TIP3    H241386   6.387   6.160   1.582  1.5137 -1.2766  0.7854
 5731TIP3   OH241387   2.723   5.932   3.365  0.1222 -0.4389  0.1131
 5731TIP3    H141388   2.717   6.028   3.360  0.1754 -0.4795 -1.2063
 5731TIP3    H241389   2.808   5.911   3.325  0.2704 -1.0270  0.7111
 5732TIP3   OH241390   7.501   5.994   2.280 -0.2174 -0.0964 -0.8881
 5732TIP3    H141391   7.581   5.942   2.267 -0.4400 -0.1604 -2.1173
 5732TIP3    H241392   7.433   5.945   2.232 -1.5146 -1.2102  1.8565
 5733TIP3   OH241393   5.508   6.517   2.133 -0.1768 -0.1763  0.0951
 5733TIP3    H141394   5.517   6.466   2.053 -0.6405 -0.5033  0.2479
 5733TIP3    H241395   5.593   6.508   2.177 -0.2316 -0.7678  0.0894
 5734TIP3   OH241396   2.281   0.511   3.295  0.3448 -0.3041 -0.1625
 5734TIP3    H141397   2.245   0.454   3.362  0.5024  0.1946  0.3533
 5734TIP3    H241398   2.375   0.491   3.294  0.2167 -0.9076 -0.8254
 5735TIP3   OH241399   4.297   1.038   1.331 -0.2388  0.0238  0.0862
 5735TIP3    H141400   4.336   1.109   1.382 -0.7804  0.2769  0.1479
 5735TIP3    H241401   4.272   0.973   1.397  1.9961 -1.1240 -0.0820
 5736TIP3   OH241402   5.563   6.919   0.993 -0.6646 -0.3130  0.3734
 5736TIP3    H141403   5.523   6.856   1.054  2.1864 -1.0059  1.6837
 5736TIP3    H241404   5.546   6.882   0.906 -1.1327 -1.6004  0.9861
 5737TIP3   OH241405   0.626   1.726   2.433  0.1065  0.4462 -0.4078
 5737TIP3    H141406   0.610   1.782   2.509 -1.7615  1.1578 -1.2939
 5737TIP3    H241407   0.721   1.728   2.422  0.2971  1.3377  1.1452
 5738TIP3   OH241408   1.406   2.326   0.837 -0.4562  0.3028  0.4608
 5738TIP3    H141409   1.377   2.239   0.810  3.6083 -0.9166 -0.6759
 5738TIP3    H241410   1.425   2.372   0.755  2.4293  0.2578  1.0275
 5739TIP3   OH241411   7.349   4.470   0.689  0.2525 -0.1832  0.4956
 5739TIP3    H141412   7.274   4.429   0.734 -1.2455  1.1315 -0.6956
 5739TIP3    H241413   7.339   4.564   0.708 -0.0238  0.3301 -1.9083
 5740TIP3   OH241414   2.718   6.573   2.474 -0.7444 -0.1645 -0.1481
 5740TIP3    H141415   2.742   6.483   2.451 -0.6750  0.1588 -1.4054
 5740TIP3    H241416   2.736   6.624   2.395 -0.1357  1.0852  0.7648
 5741TIP3   OH241417   3.683   5.154   2.428 -0.3816  0.0143 -0.5787
 5741TIP3    H141418   3.623   5.200   2.487 -0.6064 -0.5347 -0.3775
 5741TIP3    H241419   3.706   5.219   2.361  0.3778  0.8450  0.4578
 5742TIP3   OH241420   0.205   2.600   3.396  0.0341  0.3343 -0.2112
 5742TIP3    H141421   0.196   2.505   3.387 -2.3264  0.6544 -2.5423
 5742TIP3    H241422   0.130   2.626   3.450  0.7248  0.8853  0.4951
 5743TIP3   OH241423   1.237   0.747   8.516  0.3056  0.1558 -0.4077
 5743TIP3    H141424   1.180   0.685   8.472  1.3895 -0.5673 -0.8545
 5743TIP3    H241425   1.214   0.832   8.480 -1.2678  0.0449  0.2813
 5744TIP3   OH241426   2.186   7.576   2.792  0.0745  0.2941  0.2670
 5744TIP3    H141427   2.098   7.610   2.807 -0.6237 -1.1747 -0.2966
 5744TIP3    H241428   2.238   7.653   2.768 -1.4239  0.9721 -0.9862
 5745TIP3   OH241429   7.509   5.672   0.990 -0.6218  0.5538  0.8635
 5745TIP3    H141430   7.462   5.736   0.936 -2.1519 -2.5265 -1.7272
 5745TIP3    H241431   7.453   5.661   1.067 -1.0368  1.2995  0.6858
 5746TIP3   OH241432   7.454   7.172   1.528  0.2297  0.3361  0.3802
 5746TIP3    H141433   7.529   7.164   1.469  0.4269  0.6447  0.5870
 5746TIP3    H241434   7.466   7.257   1.571  0.6923 -0.3544  1.6888
 5747TIP3   OH241435   5.437   0.201   1.419  0.3275  0.6683 -0.1122
 5747TIP3    H141436   5.352   0.156   1.422  1.1022 -0.8230  1.8580
 5747TIP3    H241437   5.427   0.274   1.480  0.7930 -0.2702  1.1442
 5748TIP3   OH241438   7.362   4.047   2.815  0.1319  0.0812 -0.4080
 5748TIP3    H141439   7.456   4.056   2.796  0.4866 -0.5265  0.9173
 5748TIP3    H241440   7.351   3.953   2.833 -0.7890  0.1034 -0.8297
 5749TIP3   OH241441   4.086   3.668   1.594 -0.1292  0.6924 -0.2807
 5749TIP3    H141442   4.003   3.673   1.545 -0.6477  0.2808  0.5264
 5749TIP3    H241443   4.066   3.706   1.679  0.6929  1.1647 -0.2899
 5750TIP3   OH241444   4.037   1.284   1.832  0.1199 -0.1020  0.0931
 5750TIP3    H141445   4.004   1.304   1.920  0.6539  2.8545 -0.2932
 5750TIP3    H241446   4.132   1.277   1.842  0.0954 -0.8452 -0.1007
 5751TIP3   OH241447   2.474   2.347   2.418  0.7324  0.2658  0.0810
 5751TIP3    H141448   2.468   2.261   2.377  1.0111  0.4158 -0.2802
 5751TIP3    H241449   2.414   2.342   2.492  0.8541 -0.2866  0.1502
 5752TIP3   OH241450   0.532   2.038   0.886  0.2549  0.1026 -0.4839
 5752TIP3    H141451   0.451   2.081   0.913 -0.1403 -0.4933 -0.6953
 5752TIP3    H241452   0.522   1.948   0.917  1.5961  0.4322  1.0604
 5753TIP3   OH241453   2.359   3.736   2.277 -0.1888  0.2624  0.7344
 5753TIP3    H141454   2.317   3.697   2.354 -2.3365  0.3420 -0.3394
 5753TIP3    H241455   2.287   3.766   2.223  1.1872 -1.3607 -2.2047
 5754TIP3   OH241456   6.872   3.633   1.189  0.1502  0.4132 -0.4487
 5754TIP3    H141457   6.960   3.596   1.181  0.0552  0.1896 -0.4932
 5754TIP3    H241458   6.858   3.643   1.283  0.1892  0.3610 -0.4374
 5755TIP3   OH241459   0.539   1.862   1.972 -0.3942 -0.1687  0.0599
 5755TIP3    H141460   0.593   1.926   2.018 -1.4352  0.5257  0.3503
 5755TIP3    H241461   0.577   1.857   1.885 -0.1413  0.6589  0.1131
 5756TIP3   OH241462   5.604   3.579   0.844 -0.5545  0.2864 -0.1611
 5756TIP3    H141463   5.650   3.502   0.811 -2.1213 -0.1089 -1.5507
 5756TIP3    H241464   5.674   3.642   0.864  0.7593 -1.4765  1.0590
 5757TIP3   OH241465   3.384   6.546   1.164 -0.3094 -0.1296 -0.2524
 5757TIP3    H141466   3.355   6.596   1.240  0.9555  1.8743 -1.0029
 5757TIP3    H241467   3.338   6.586   1.090 -0.3706 -1.0449 -0.7242
 5758TIP3   OH241468   5.708   3.116   1.039  0.1161 -0.2683  0.4541
 5758TIP3    H141469   5.655   3.070   1.103  0.1499 -2.3119 -0.9210
 5758TIP3    H241470   5.645   3.157   0.980  0.0123 -1.6460 -0.4399
 5759TIP3   OH241471   2.487   3.054   1.177  0.0096  0.0083  0.0982
 5759TIP3    H141472   2.542   3.013   1.110 -1.6466 -0.7653 -0.8645
 5759TIP3    H241473   2.521   3.019   1.260  1.2861 -0.0139 -0.4104
 5760TIP3   OH241474   2.391   2.274   1.245  0.1040  0.0855 -0.2014
 5760TIP3    H141475   2.469   2.317   1.282 -0.9196  0.6467  1.4431
 5760TIP3    H241476   2.345   2.345   1.200  0.6411 -0.3006 -1.3899
 5761TIP3   OH241477   0.055   4.533   1.526  0.1512  0.1317 -0.0889
 5761TIP3    H141478   0.141   4.493   1.513 -0.2899 -0.5678 -1.0279
 5761TIP3    H241479   0.004   4.464   1.570  0.3433  0.8937  1.3604
 5762TIP3   OH241480   7.154   3.346   1.507  0.1044  0.2211 -0.3078
 5762TIP3    H141481   7.176   3.436   1.482 -0.3811  0.0816 -1.2493
 5762TIP3    H241482   7.140   3.351   1.602 -0.8094  1.3252 -0.4805
 5763TIP3   OH241483   1.650   3.323   1.620 -0.1168  0.2207 -0.3310
 5763TIP3    H141484   1.715   3.274   1.671 -0.7259  0.5009  0.7413
 5763TIP3    H241485   1.638   3.405   1.669 -3.8739 -1.2133  1.5655
 5764TIP3   OH241486   7.120   4.415   0.955 -0.5134  0.2494  0.4258
 5764TIP3    H141487   7.127   4.319   0.953 -1.2777  0.1930 -1.2882
 5764TIP3    H241488   7.211   4.445   0.963 -0.2043 -0.6214  0.3429
 5765TIP3   OH241489   7.038   6.321   2.271  0.0061  0.0824 -0.0257
 5765TIP3    H141490   6.981   6.244   2.279 -0.7421  0.4641 -1.2892
 5765TIP3    H241491   6.977   6.394   2.255  0.7512  0.8081  0.4029
 5766TIP3   OH241492   5.826   1.145   0.571 -0.0853 -0.3804 -0.4640
 5766TIP3    H141493   5.775   1.180   0.643 -0.3058 -1.6137  0.0168
 5766TIP3    H241494   5.800   1.053   0.566  1.5261 -0.8638 -0.6848
 5767TIP3   OH241495   7.267   5.598   1.781 -0.2587  0.3442 -0.7614
 5767TIP3    H141496   7.271   5.512   1.822 -0.4088  0.7639  0.1716
 5767TIP3    H241497   7.340   5.599   1.719  0.5948  0.0349  0.2073
 5768TIP3   OH241498   4.785   3.950   0.659  0.3724  0.6100 -0.4741
 5768TIP3    H141499   4.706   3.933   0.608 -0.7498  1.3318  0.9758
 5768TIP3    H241500   4.757   4.008   0.729  2.1358  0.6263  0.2752
 5769TIP3   OH241501   4.312   4.921   1.294  0.0446  0.2449 -0.3337
 5769TIP3    H141502   4.305   5.016   1.308  0.7375  0.0108  2.0583
 5769TIP3    H241503   4.372   4.891   1.362 -0.1352 -1.9377 -1.0539
 5770TIP3   OH241504   1.928   7.666   2.807 -0.0586 -0.0988  0.1451
 5770TIP3    H141505   1.868   7.736   2.834  0.8610  0.7303  0.0621
 5770TIP3    H241506   1.955   7.690   2.719  1.0522 -0.0259  0.5009
 5771TIP3   OH241507   4.417   5.063   0.698 -0.2150 -0.0831  0.5738
 5771TIP3    H141508   4.426   5.001   0.771  0.2783  1.6182  2.0188
 5771TIP3    H241509   4.494   5.046   0.644 -0.7884 -1.6371  0.1906
 5772TIP3   OH241510   2.004   0.420   0.882  0.2562  0.2752  0.4340
 5772TIP3    H141511   2.087   0.423   0.929 -1.2035  0.8829  3.1280
 5772TIP3    H241512   1.981   0.512   0.868 -0.3657  0.1252  0.4504
 5773TIP3   OH241513   4.054   6.198   2.465  0.4942  0.1532 -0.2928
 5773TIP3    H141514   4.016   6.208   2.552 -0.9060  1.7028 -1.0348
 5773TIP3    H241515   4.144   6.232   2.474  1.0917 -1.6346  0.9898
 5774TIP3   OH241516   6.813   0.776   2.141 -0.1121  0.0653 -0.0701
 5774TIP3    H141517   6.807   0.704   2.204  1.4490 -0.6328 -0.6587
 5774TIP3    H241518   6.906   0.797   2.137 -0.1394  0.0242 -2.1716
 5775TIP3   OH241519   2.699   4.903   2.149  0.2557 -0.0549 -0.3620
 5775TIP3    H141520   2.727   4.823   2.104  0.5217 -0.2822  0.2076
 5775TIP3    H241521   2.694   4.969   2.079  0.8900 -0.3450 -0.6849
 5776TIP3   OH241522   6.323   5.195   1.654  0.4273  0.0094 -0.2800
 5776TIP3    H141523   6.234   5.161   1.666  1.1138 -2.2588 -1.0909
 5776TIP3    H241524   6.324   5.277   1.702 -1.2580 -1.3207  2.2257
 5777TIP3   OH241525   1.137   4.880   1.835 -0.3538 -0.2607 -0.2957
 5777TIP3    H141526   1.079   4.815   1.875 -1.8622 -0.4058 -2.5345
 5777TIP3    H241527   1.181   4.833   1.764  1.6728  0.1811  0.5745
 5778TIP3   OH241528   4.456   5.115   2.519  0.3052 -0.1775  0.2016
 5778TIP3    H141529   4.447   5.020   2.511  0.0051 -0.0366 -1.4359
 5778TIP3    H241530   4.414   5.136   2.603 -0.6556 -1.3568  0.0437
 5779TIP3   OH241531   5.663   5.898   2.448 -0.0445 -0.1621  0.2454
 5779TIP3    H141532   5.599   5.915   2.378 -0.1021 -0.1536  0.3006
 5779TIP3    H241533   5.743   5.875   2.401  0.3374  1.2706  0.1326
 5780TIP3   OH241534   6.048   3.467   1.277  0.3068  0.1857  0.2623
 5780TIP3    H141535   5.967   3.417   1.267  0.8630 -0.9063  0.9826
 5780TIP3    H241536   6.020   3.550   1.316 -0.9484  1.5452 -3.1307
 5781TIP3   OH241537   5.578   7.371   2.964  0.0969  0.0373 -0.3612
 5781TIP3    H141538   5.644   7.427   3.006  0.7684 -1.2715  0.3881
 5781TIP3    H241539   5.502   7.375   3.022 -0.7618  1.9879 -1.5035
 5782TIP3   OH241540   0.048   7.176   0.928 -0.0671  0.6613 -0.0198
 5782TIP3    H141541   0.108   7.241   0.967  0.1816  1.2018 -1.2549
 5782TIP3    H241542   0.105   7.120   0.875 -0.6142  1.0970 -1.1040
 5783TIP3   OH241543   5.382   7.481   1.804 -0.3382 -0.6882  0.4223
 5783TIP3    H141544   5.329   7.551   1.843  2.7614  1.1740  1.7157
 5783TIP3    H241545   5.422   7.438   1.879  0.7171 -1.3845 -0.5182
 5784TIP3   OH241546   0.616   5.823   0.533 -0.0984 -0.6011  0.2047
 5784TIP3    H141547   0.613   5.728   0.541 -0.8233 -0.7528 -1.5213
 5784TIP3    H241548   0.699   5.841   0.488 -0.0468 -0.4185  0.3681
 5785TIP3   OH241549   4.505   4.837   1.953 -0.0827  0.2786 -1.1145
 5785TIP3    H141550   4.425   4.878   1.921  0.2738  0.7024 -1.4670
 5785TIP3    H241551   4.547   4.801   1.875  0.2154  0.3036 -0.9685
 5786TIP3   OH241552   0.828   1.432   1.423  0.2538  0.3598 -0.3110
 5786TIP3    H141553   0.895   1.364   1.429 -0.7864 -0.6115  1.0198
 5786TIP3    H241554   0.824   1.469   1.512 -0.6846  0.6829 -0.4804
 5787TIP3   OH241555   2.584   4.587   1.241 -0.3151  0.8496 -0.6068
 5787TIP3    H141556   2.489   4.588   1.226 -0.5821  0.5358  0.9735
 5787TIP3    H241557   2.601   4.663   1.297  0.1766  0.1765  0.1706
 5788TIP3   OH241558   0.251   4.353   2.900 -0.3669 -0.7028 -0.3874
 5788TIP3    H141559   0.232   4.396   2.816 -1.2431 -1.0858 -0.3965
 5788TIP3    H241560   0.170   4.305   2.921  0.4353 -2.0109 -0.1781
 5789TIP3   OH241561   5.820   2.212   2.619  0.7525  0.3510 -0.1736
 5789TIP3    H141562   5.861   2.164   2.691  1.0397 -1.3024 -1.3594
 5789TIP3    H241563   5.757   2.150   2.583  0.2783  1.3154 -1.0411
 5790TIP3   OH241564   2.320   0.249   0.761  0.5418 -0.1193  0.3272
 5790TIP3    H141565   2.268   0.259   0.841 -0.6258  1.6428 -0.6050
 5790TIP3    H241566   2.364   0.333   0.750 -1.1489  0.5298 -2.0840
 5791TIP3   OH241567   6.621   2.492   3.260  0.0668  0.1747 -0.4943
 5791TIP3    H141568   6.698   2.503   3.204  0.5026  0.1598  0.0914
 5791TIP3    H241569   6.624   2.400   3.286  0.5762  0.4840  0.5640
 5792TIP3   OH241570   3.870   7.263   1.739 -0.4044 -0.5399  0.0221
 5792TIP3    H141571   3.872   7.298   1.828 -0.1771  0.7073 -0.4512
 5792TIP3    H241572   3.951   7.213   1.732 -0.6636 -1.0552  0.6750
 5793TIP3   OH241573   1.409   6.536   0.774  0.6309 -0.0507  0.5383
 5793TIP3    H141574   1.347   6.598   0.812 -2.2693 -1.8422 -0.8691
 5793TIP3    H241575   1.404   6.551   0.680  3.0336  0.2603  0.4089
 5794TIP3   OH241576   4.299   1.580   0.616  0.2489 -1.0175  0.3821
 5794TIP3    H141577   4.289   1.523   0.541  3.1872  1.0983 -1.8546
 5794TIP3    H241578   4.366   1.539   0.670  0.8537 -0.7016 -0.1299
 5795TIP3   OH241579   7.094   0.659   2.760 -0.2772 -0.3589  0.0818
 5795TIP3    H141580   7.096   0.592   2.829  1.0160 -1.9732 -1.4289
 5795TIP3    H241581   7.001   0.667   2.738 -0.4818 -1.5186  0.4438
 5796TIP3   OH241582   1.338   1.917   1.465  0.0721 -0.0767 -0.2938
 5796TIP3    H141583   1.316   1.825   1.480  1.0026 -0.4020 -0.8075
 5796TIP3    H241584   1.417   1.913   1.412 -0.8055  1.0168 -1.7546
 5797TIP3   OH241585   1.024   6.767   3.191  0.8965  0.0024 -0.4265
 5797TIP3    H141586   0.952   6.710   3.217  1.1996  0.0918  0.6671
 5797TIP3    H241587   1.103   6.717   3.213  1.1631  0.4321 -0.3997
 5798TIP3   OH241588   0.587   6.205   1.404  0.1093 -0.2763  0.1807
 5798TIP3    H141589   0.635   6.287   1.413 -0.7571  0.4133 -1.1904
 5798TIP3    H241590   0.640   6.141   1.452  0.1198  1.3216  2.4130
 5799TIP3   OH241591   2.066   6.012   1.591  0.0910 -0.5082 -0.0839
 5799TIP3    H141592   2.014   6.058   1.657  1.7815 -0.3295  1.2085
 5799TIP3    H241593   2.157   6.022   1.621  0.7273 -2.5277 -1.1357
 5800TIP3   OH241594   1.695   5.485   1.323  0.3037  0.0019 -0.8146
 5800TIP3    H141595   1.771   5.514   1.374  1.5860 -2.4718 -1.1282
 5800TIP3    H241596   1.705   5.527   1.238  0.3886  0.9890 -0.3245
 5801TIP3   OH241597   4.625   2.628   1.960  0.1001  0.1740  0.0285
 5801TIP3    H141598   4.689   2.589   2.019 -1.6115 -0.6400  1.4379
 5801TIP3    H241599   4.544   2.631   2.010 -1.2122  0.3621 -1.9626
 5802TIP3   OH241600   4.062   2.994   2.413 -0.0872 -0.0182 -0.3444
 5802TIP3    H141601   4.103   3.074   2.444 -0.4745 -0.3661  1.1177
 5802TIP3    H241602   4.117   2.924   2.447 -0.5673 -0.4186 -0.3742
 5803TIP3   OH241603   0.394   6.351   2.778 -0.3304  0.0023  0.1134
 5803TIP3    H141604   0.365   6.345   2.869  0.5923 -0.5703  0.3839
 5803TIP3    H241605   0.471   6.409   2.782  0.1379 -0.5921 -0.1878
 5804TIP3   OH241606   0.876   3.971   2.112 -0.4418 -0.3334 -0.0922
 5804TIP3    H141607   0.955   4.012   2.076  0.4208 -1.1866  0.7684
 5804TIP3    H241608   0.836   3.929   2.036 -0.0927  0.1425 -0.5522
 5805TIP3   OH241609   1.007   2.463   2.202 -0.0905 -0.5463 -0.3592
 5805TIP3    H141610   1.018   2.466   2.297  1.0198  0.3121 -0.4975
 5805TIP3    H241611   1.091   2.434   2.169 -0.1054  0.2389 -1.1370
 5806TIP3   OH241612   4.752   2.641   0.868  0.2508 -0.0756 -0.1314
 5806TIP3    H141613   4.796   2.592   0.937  0.2935  1.5605  1.0647
 5806TIP3    H241614   4.821   2.693   0.827  0.2334 -1.0624 -1.4750
 5807TIP3   OH241615   0.017   1.398   0.919 -0.1560  0.0084  0.1572
 5807TIP3    H141616   0.079   1.325   0.912 -0.9016 -0.6418  0.2115
 5807TIP3    H241617  -0.061   1.359   0.958 -0.6967  0.7659 -0.1563
 5808TIP3   OH241618   5.889   3.152   1.641 -0.4597  0.2838 -0.0317
 5808TIP3    H141619   5.854   3.221   1.698 -0.5050  1.5443 -1.5318
 5808TIP3    H241620   5.984   3.155   1.657 -0.2775  1.7330 -1.1119
 5809TIP3   OH241621   4.667   2.846   2.816  0.1293 -0.6164  0.1580
 5809TIP3    H141622   4.686   2.890   2.733  0.9370  0.7493  1.0214
 5809TIP3    H241623   4.694   2.909   2.883 -0.5199 -1.6769  1.4652
 5810TIP3   OH241624   6.712   6.736   1.921 -0.6258 -0.1315  0.4161
 5810TIP3    H141625   6.640   6.675   1.909 -0.2014 -0.6506  0.4943
 5810TIP3    H241626   6.760   6.734   1.838 -0.6889  0.2019  0.3684
 5811TIP3   OH241627   2.208   6.609   0.876  0.1751 -0.1066 -0.1251
 5811TIP3    H141628   2.202   6.582   0.968 -0.5888  1.0388  0.1740
 5811TIP3    H241629   2.117   6.618   0.848  0.3050 -2.6130 -1.6919
 5812TIP3   OH241630   2.584   7.272   2.286  0.0935  0.0221  0.2180
 5812TIP3    H141631   2.566   7.316   2.369 -0.4982  0.0908  0.0556
 5812TIP3    H241632   2.680   7.272   2.280  0.1124  1.2179  0.2542
 5813TIP3   OH241633   4.830   5.711   2.002 -0.3231 -0.2933  0.1675
 5813TIP3    H141634   4.824   5.762   1.922 -0.6832 -0.3729  0.1439
 5813TIP3    H241635   4.896   5.644   1.983  0.6538  0.5767  0.4306
 5814TIP3   OH241636   6.996   2.649   2.567  0.1689 -0.4489  0.0162
 5814TIP3    H141637   7.045   2.673   2.646 -0.4870 -0.4838  0.4514
 5814TIP3    H241638   7.033   2.566   2.540 -0.3462 -1.0071  0.9572
 5815TIP3   OH241639   0.141   5.589   2.033  0.0786 -0.2614 -0.4798
 5815TIP3    H141640   0.110   5.546   1.954 -0.9730  0.4873 -0.4909
 5815TIP3    H241641   0.190   5.665   2.001 -1.7343  0.9915 -0.4442
 5816TIP3   OH241642   3.358   2.841   2.148 -0.0270  0.0134 -0.0639
 5816TIP3    H141643   3.331   2.906   2.213 -2.0671 -0.5504 -0.2767
 5816TIP3    H241644   3.392   2.768   2.200  0.6358  0.5281  0.2456
 5817TIP3   OH241645   0.734   3.391   3.413  0.2762 -0.2875 -0.2247
 5817TIP3    H141646   0.645   3.361   3.431  0.3463 -1.1147 -1.1221
 5817TIP3    H241647   0.723   3.474   3.367 -0.0745 -0.7621 -1.0242
 5818TIP3   OH241648   1.020   1.600   0.720 -0.0436  0.4729  0.3445
 5818TIP3    H141649   1.008   1.591   0.815 -2.3451 -1.2423 -0.0128
 5818TIP3    H241650   1.067   1.521   0.694  0.1487  0.7034 -0.0082
 5819TIP3   OH241651   2.921   0.603   0.716  0.1889  0.6080  0.7295
 5819TIP3    H141652   2.931   0.543   0.789  1.1430  0.8200  0.7878
 5819TIP3    H241653   3.010   0.633   0.698 -0.2106  1.6135  0.3809
 5820TIP3   OH241654   4.443   1.252   1.438  1.1870  0.3898  0.6612
 5820TIP3    H141655   4.486   1.337   1.444  0.9748  0.4330  1.8543
 5820TIP3    H241656   4.434   1.223   1.529  1.5279 -1.0506  0.2678
 5821TIP3   OH241657   0.720   0.173   2.388  0.2384  0.1304 -0.4045
 5821TIP3    H141658   0.688   0.083   2.383 -0.7278  0.3876  0.6481
 5821TIP3    H241659   0.810   0.168   2.356 -0.3927 -0.8571 -2.1544
 5822TIP3   OH241660   7.257   0.207   1.610 -0.1394 -0.4160 -0.2227
 5822TIP3    H141661   7.237   0.299   1.590  1.1880 -0.0470  0.0535
 5822TIP3    H241662   7.176   0.160   1.588 -1.2186  0.9478  0.6537
 5823TIP3   OH241663   4.969   0.503   3.005 -0.2994 -0.3653 -0.6583
 5823TIP3    H141664   4.954   0.591   3.038 -1.1878 -1.3437  1.7993
 5823TIP3    H241665   5.042   0.470   3.057  1.2850 -0.4929 -2.8529
 5824TIP3   OH241666   0.860   6.533   2.213  0.0735  0.5330 -0.0748
 5824TIP3    H141667   0.777   6.507   2.173  0.9853  0.0344 -1.7452
 5824TIP3    H241668   0.905   6.582   2.145  1.3374  0.4074  0.6476
 5825TIP3   OH241669   4.418   4.275   2.808  0.3838 -0.0611  0.1066
 5825TIP3    H141670   4.470   4.315   2.739  1.2369  1.7667  1.7241
 5825TIP3    H241671   4.328   4.279   2.775  0.8844 -0.3609 -1.3860
 5826TIP3   OH241672   2.988   2.173   2.116 -0.2031 -0.1938  0.0453
 5826TIP3    H141673   3.067   2.221   2.090  0.0064 -1.1743 -1.1808
 5826TIP3    H241674   2.925   2.242   2.139  1.0859  0.6058  1.4041
 5827TIP3   OH241675   1.953   7.041   1.669 -0.3284  0.4384  0.5187
 5827TIP3    H141676   2.026   6.985   1.642 -2.0038 -1.4581 -0.3479
 5827TIP3    H241677   1.952   7.112   1.605  1.5550  1.2653  1.3537
 5828TIP3   OH241678   5.219   1.823   1.621 -0.3814  0.1203 -0.0488
 5828TIP3    H141679   5.168   1.901   1.599  1.3265  0.5425 -2.9925
 5828TIP3    H241680   5.308   1.855   1.633  0.2756 -1.2804 -0.9487
 5829TIP3   OH241681   0.308   1.119   1.234  0.1179  0.0033  0.3723
 5829TIP3    H141682   0.258   1.144   1.312  1.4822  1.1517  0.9461
 5829TIP3    H241683   0.310   1.199   1.180 -1.2604 -0.9344 -1.1284
 5830TIP3   OH241684   1.730   4.334   1.920  0.0945 -0.1879  0.1757
 5830TIP3    H141685   1.751   4.423   1.891  2.5428 -0.1750  1.6518
 5830TIP3    H241686   1.641   4.341   1.954  0.0024  1.5591 -0.2982
 5831TIP3   OH241687   1.965   6.734   3.444  0.0614  0.1598 -0.1931
 5831TIP3    H141688   2.049   6.692   3.464  0.2882  0.4862 -0.4597
 5831TIP3    H241689   1.980   6.782   3.363 -0.1963  0.7710  0.1151
 5832TIP3   OH241690   4.007   5.028   1.221 -0.2660 -0.2662  0.5115
 5832TIP3    H141691   4.014   5.105   1.278  2.4633 -2.0761  2.9366
 5832TIP3    H241692   4.086   5.030   1.169 -0.9219 -0.6662 -0.5207
 5833TIP3   OH241693   4.389   4.872   1.537 -0.3578 -0.6300 -0.1660
 5833TIP3    H141694   4.464   4.832   1.582  0.3445  1.1032  0.2883
 5833TIP3    H241695   4.322   4.803   1.537  0.2191 -1.2972  2.0111
 5834TIP3   OH241696   3.296   7.505   2.335  0.4119 -0.1428  0.2165
 5834TIP3    H141697   3.348   7.463   2.267 -0.5476 -0.4082 -0.3809
 5834TIP3    H241698   3.256   7.432   2.383  2.3503 -0.0210  2.1429
 5835TIP3   OH241699   7.022   3.087   1.475  0.2805 -0.0662 -0.3175
 5835TIP3    H141700   7.046   3.177   1.496 -2.3982  0.0506  3.3480
 5835TIP3    H241701   6.932   3.094   1.442  0.1623 -1.3488 -0.3055
 5836TIP3   OH241702   6.690   3.574   2.565  0.1799 -0.1845  0.0007
 5836TIP3    H141703   6.628   3.634   2.607 -0.5627  0.9923 -2.5714
 5836TIP3    H241704   6.756   3.557   2.632  0.0616  2.9912  1.0997
 5837TIP3   OH241705   2.440   5.801   1.762 -0.1821  0.2637  0.6060
 5837TIP3    H141706   2.409   5.886   1.729  0.9471 -0.0038 -1.2766
 5837TIP3    H241707   2.523   5.821   1.806  0.7932  0.0161 -1.0323
 5838TIP3   OH241708   4.593   1.010   1.305  0.4250  0.1489  0.2359
 5838TIP3    H141709   4.621   1.101   1.304  0.3932  0.1706  0.9300
 5838TIP3    H241710   4.506   1.011   1.345  0.7484 -0.2731  0.9637
 5839TIP3   OH241711   1.610   7.427   2.634 -0.2642  0.1973 -0.8272
 5839TIP3    H141712   1.607   7.332   2.633  0.2215  0.1109  1.4050
 5839TIP3    H241713   1.689   7.449   2.585  1.9572 -0.8160  2.0130
 5840TIP3   OH241714   1.922   7.363   2.923 -0.0224  1.0915  0.6109
 5840TIP3    H141715   1.997   7.421   2.910  1.8157 -1.3697 -0.7172
 5840TIP3    H241716   1.848   7.422   2.937  1.6597  3.7356 -0.7736
 5841TIP3   OH241717   4.413   3.511   3.273 -0.2819  0.4802  0.6252
 5841TIP3    H141718   4.463   3.492   3.193 -0.7162 -0.8236  0.6479
 5841TIP3    H241719   4.362   3.589   3.251 -1.1562 -0.4256 -0.7406
 5842TIP3   OH241720   1.378   0.309   1.196 -0.0261  0.4332  0.1317
 5842TIP3    H141721   1.288   0.292   1.224  0.2434  2.6685  2.8408
 5842TIP3    H241722   1.431   0.299   1.276  1.6823  1.8943 -0.7293
 5843TIP3   OH241723   3.456   4.435   1.445  0.2355 -0.5425  0.8526
 5843TIP3    H141724   3.534   4.490   1.455  0.3500 -0.8749  1.9091
 5843TIP3    H241725   3.423   4.424   1.534 -1.1938 -0.1783  0.3878
 5844TIP3   OH241726   2.214   7.061   2.359 -0.0102 -0.1759  0.2939
 5844TIP3    H141727   2.284   7.070   2.294 -0.0548  1.6009  0.4310
 5844TIP3    H241728   2.142   7.021   2.311  0.4663 -0.2906 -0.3491
 5845TIP3   OH241729   0.925   6.472   1.021  0.2274 -0.5203 -0.7801
 5845TIP3    H141730   0.842   6.495   1.064  0.3703  0.6980 -1.1093
 5845TIP3    H241731   0.926   6.526   0.942  1.4684 -0.2952 -0.6266
 5846TIP3   OH241732   6.308   6.782   0.481  0.0772  0.0633  0.5285
 5846TIP3    H141733   6.399   6.755   0.465  0.5984  1.3296  1.2221
 5846TIP3    H241734   6.316   6.868   0.522 -1.4875  1.1297 -1.2538
 5847TIP3   OH241735   4.606   6.492   1.370  0.2184  0.3121  0.1294
 5847TIP3    H141736   4.625   6.516   1.460 -0.6139  1.1869  0.0873
 5847TIP3    H241737   4.568   6.571   1.331  1.1424  0.1472 -1.1659
 5848TIP3   OH241738   4.494   0.201   1.471  0.1061 -0.0303  0.2211
 5848TIP3    H141739   4.454   0.249   1.399 -0.3473 -0.1512  0.3926
 5848TIP3    H241740   4.459   0.113   1.465 -0.7563  0.2234  1.2146
 5849TIP3   OH241741   3.562   0.671   2.308 -0.3894 -0.2883 -0.2024
 5849TIP3    H141742   3.496   0.604   2.293  0.2169 -1.2472  1.1643
 5849TIP3    H241743   3.558   0.688   2.402  0.4989  0.4845 -0.2866
 5850TIP3   OH241744   5.804   7.416   0.505 -0.0633  0.4659 -0.3248
 5850TIP3    H141745   5.867   7.433   0.575  0.9235 -1.6174 -0.6524
 5850TIP3    H241746   5.829   7.331   0.469 -3.7049 -1.0137  0.2405
 5851TIP3   OH241747   6.849   5.207   0.569  0.3224  0.8202 -0.3011
 5851TIP3    H141748   6.827   5.259   0.647  0.1995  1.5316 -0.7931
 5851TIP3    H241749   6.860   5.272   0.500 -0.6011  0.1421 -1.1214
 5852TIP3   OH241750   3.292   7.154   0.738 -0.0754 -0.2667  0.1505
 5852TIP3    H141751   3.342   7.096   0.680 -0.1548 -0.0764 -0.1085
 5852TIP3    H241752   3.271   7.230   0.684 -0.1208 -0.0723  0.4397
 5853TIP3   OH241753   3.068   1.899   2.163 -0.2389 -0.4526  0.1800
 5853TIP3    H141754   3.060   1.989   2.133  0.4007 -0.7490 -0.9302
 5853TIP3    H241755   2.994   1.887   2.223 -1.5194  0.1794 -1.2198
 5854TIP3   OH241756   1.440   5.104   1.371 -0.1058  0.2344 -0.3518
 5854TIP3    H141757   1.479   5.161   1.437  0.9956 -0.3157 -0.5176
 5854TIP3    H241758   1.347   5.127   1.372 -0.0466  0.4887  1.1315
 5855TIP3   OH241759   6.976   5.562   0.890  0.0316  0.2813  0.4491
 5855TIP3    H141760   7.029   5.595   0.818  2.7302 -1.3159  1.5360
 5855TIP3    H241761   6.947   5.476   0.860  1.6746 -0.6569  1.3710
 5856TIP3   OH241762   7.455   5.005   3.047 -0.1925 -0.1341 -0.6542
 5856TIP3    H141763   7.407   4.948   2.988 -1.8672  1.7416 -1.2420
 5856TIP3    H241764   7.392   5.027   3.116  0.2471  1.2329 -0.6414
 5857TIP3   OH241765   2.752   2.961   0.476 -0.0273 -0.1654 -0.0503
 5857TIP3    H141766   2.845   2.950   0.491 -0.2329 -0.2184  1.2491
 5857TIP3    H241767   2.728   3.038   0.527 -0.5814  0.2518 -0.9070
 5858TIP3   OH241768   7.615   5.825   2.892  0.2806 -0.7259  0.0747
 5858TIP3    H141769   7.710   5.812   2.901  0.4458 -2.4477 -2.9190
 5858TIP3    H241770   7.605   5.919   2.875  1.4345 -0.5290  0.3912
 5859TIP3   OH241771   4.556   1.792   2.221 -0.0285  0.1829 -0.2518
 5859TIP3    H141772   4.641   1.837   2.222  0.9381 -1.5495  1.2817
 5859TIP3    H241773   4.526   1.800   2.131  1.6532  1.0396 -0.7841
 5860TIP3   OH241774   1.128   3.867   1.938  0.2936 -0.4226  0.0749
 5860TIP3    H141775   1.042   3.832   1.914 -0.5356  1.5669 -0.0843
 5860TIP3    H241776   1.188   3.831   1.873 -0.6030 -1.0035 -0.4551
 5861TIP3   OH241777   5.658   2.422   1.740 -0.3733  0.5457  0.3403
 5861TIP3    H141778   5.676   2.515   1.751 -0.4003  0.5567  0.2881
 5861TIP3    H241779   5.658   2.408   1.645  1.1592  0.1991  0.3643
 5862TIP3   OH241780   0.899   7.557   2.186 -0.3560 -0.4260 -0.6050
 5862TIP3    H141781   0.929   7.499   2.116 -0.9278 -0.7966 -0.5461
 5862TIP3    H241782   0.843   7.503   2.240 -0.6097  0.0919 -0.3399
 5863TIP3   OH241783   5.945   2.145   1.139 -0.0477  0.4061 -0.5727
 5863TIP3    H141784   5.909   2.191   1.214 -0.5101  0.1393 -0.6202
 5863TIP3    H241785   6.002   2.208   1.096  0.8279  0.3150  0.4287
 5864TIP3   OH241786   4.884   4.044   1.583  0.5544  0.0869 -0.2745
 5864TIP3    H141787   4.896   4.119   1.640  0.3584  0.2659 -0.4649
 5864TIP3    H241788   4.954   3.983   1.607 -1.4975 -1.3900  2.5813
 5865TIP3   OH241789   1.158   5.036   1.011 -0.1504 -1.3084 -0.4145
 5865TIP3    H141790   1.108   5.072   0.937  0.4151  0.5523  0.0497
 5865TIP3    H241791   1.234   4.994   0.971 -0.5140 -1.4562 -0.9577
 5866TIP3   OH241792   7.318   0.019   1.388 -0.0295  0.3435  0.0549
 5866TIP3    H141793   7.247   0.083   1.396  0.1132  0.8051 -1.9272
 5866TIP3    H241794   7.274  -0.065   1.381 -0.3786  0.5682 -0.5395
 5867TIP3   OH241795   0.956   2.353   3.488  0.1975 -0.2041 -0.1053
 5867TIP3    H141796   1.040   2.369   3.530 -0.0997 -1.8694  1.2231
 5867TIP3    H241797   0.976   2.343   3.395  1.3025  0.4604  0.0508
 5868TIP3   OH241798   4.714   0.007   2.648 -0.4399 -0.2073  0.1988
 5868TIP3    H141799   4.793  -0.023   2.691  0.3205  2.0934  0.5656
 5868TIP3    H241800   4.642  -0.028   2.701  0.3956 -0.3159  1.2835
 5869TIP3   OH241801   4.003   1.995   0.537 -0.5501  0.4992 -0.0026
 5869TIP3    H141802   3.950   2.023   0.462 -0.1587  1.8922  0.2243
 5869TIP3    H241803   3.974   2.050   0.610 -2.3075 -2.1176  1.4573
 5870TIP3   OH241804   5.726   5.339   0.524  0.4379  0.3023  0.4634
 5870TIP3    H141805   5.658   5.407   0.524 -1.0088 -1.0836  0.9068
 5870TIP3    H241806   5.806   5.386   0.502 -1.1390  1.4586 -3.9034
 5871TIP3   OH241807   0.180   0.241   1.639 -0.8710 -0.2442  0.3099
 5871TIP3    H141808   0.249   0.271   1.579 -1.0897 -1.1196 -0.4002
 5871TIP3    H241809   0.172   0.312   1.703  0.5404 -0.0286  0.2887
 5872TIP3   OH241810   4.323   6.611   0.641  0.8501  0.0859 -0.0759
 5872TIP3    H141811   4.320   6.623   0.546  1.7603 -0.9873 -0.2584
 5872TIP3    H241812   4.355   6.694   0.675 -0.9004  1.0182 -0.5517
 5873TIP3   OH241813   0.586   2.430   1.779 -0.1971  0.0673  0.1974
 5873TIP3    H141814   0.581   2.338   1.807  0.7177 -0.5349 -1.5088
 5873TIP3    H241815   0.657   2.432   1.715 -1.1083  1.7047 -0.8288
 5874TIP3   OH241816   4.062   4.509   1.305  0.3625 -0.2740  0.0867
 5874TIP3    H141817   4.067   4.427   1.255  1.3357  0.0488 -0.3672
 5874TIP3    H241818   4.104   4.488   1.389 -0.0584 -0.4470  0.2533
 5875TIP3   OH241819   1.954   1.344   1.557 -0.4247 -0.2425  0.1842
 5875TIP3    H141820   1.973   1.297   1.638  0.8176 -1.6053 -0.8273
 5875TIP3    H241821   2.008   1.423   1.560  0.9728 -1.1517 -0.0377
 5876TIP3   OH241822   7.238   3.664   2.326  0.1949  0.3194 -0.1940
 5876TIP3    H141823   7.330   3.681   2.350 -0.1480 -0.7728  2.1973
 5876TIP3    H241824   7.243   3.627   2.238  1.9559  1.1428 -0.4956
 5877TIP3   OH241825   0.686   3.992   2.305  0.0113 -0.2369 -0.0435
 5877TIP3    H141826   0.601   3.997   2.261 -0.1701  1.5900  0.4692
 5877TIP3    H241827   0.749   3.981   2.233 -0.3559  1.9528 -0.7581
 5878TIP3   OH241828   4.242   3.718   3.216 -0.2534  0.5984  0.0983
 5878TIP3    H141829   4.177   3.649   3.231 -1.1416  1.6754  1.4555
 5878TIP3    H241830   4.206   3.771   3.146  0.3401 -0.1604 -0.8134
 5879TIP3   OH241831   3.850   1.174   2.469  0.9341 -0.1331  0.0748
 5879TIP3    H141832   3.802   1.165   2.551  0.7824 -0.3859 -0.0406
 5879TIP3    H241833   3.785   1.204   2.406  1.0171 -0.0818  0.0132
 5880TIP3   OH241834   0.278   2.235   2.285  0.1290 -0.9091 -0.1979
 5880TIP3    H141835   0.196   2.241   2.237  0.1120 -0.2457 -0.0890
 5880TIP3    H241836   0.264   2.287   2.364  1.5472  1.5337 -1.4559
 5881TIP3   OH241837   2.247   1.804   3.378  0.0990 -0.3551 -0.5087
 5881TIP3    H141838   2.226   1.889   3.417  1.5947  0.5625 -1.6019
 5881TIP3    H241839   2.177   1.746   3.408 -1.0920  1.3085  0.0721
 5882TIP3   OH241840   3.375   1.890   3.425  0.3852  0.1292 -0.2820
 5882TIP3    H141841   3.434   1.961   3.402 -0.3877  0.9893  0.2902
 5882TIP3    H241842   3.299   1.934   3.465 -0.8570 -0.8966 -1.4261
 5883TIP3   OH241843   6.798   7.124   1.826  0.2924  0.2798 -0.1819
 5883TIP3    H141844   6.843   7.190   1.879 -0.8542 -0.2184  1.4939
 5883TIP3    H241845   6.725   7.095   1.881 -0.7281 -0.5597 -1.8989
 5884TIP3   OH241846   3.797   5.118   0.598 -0.6978 -0.4980 -0.0786
 5884TIP3    H141847   3.723   5.115   0.537 -1.5364  0.3546  0.8623
 5884TIP3    H241848   3.765   5.073   0.677 -0.1941 -0.1946  0.3047
 5885TIP3   OH241849   7.159   1.909   2.036 -0.5644  0.0601 -0.0895
 5885TIP3    H141850   7.200   1.937   1.954  0.1120 -0.8844 -0.1035
 5885TIP3    H241851   7.201   1.962   2.103  0.6093 -0.7767 -0.1237
 5886TIP3   OH241852   2.311   7.393   1.659 -0.5123  0.2446 -0.2280
 5886TIP3    H141853   2.229   7.434   1.685 -1.2537 -1.5117  0.3130
 5886TIP3    H241854   2.348   7.358   1.740 -0.4721 -1.1213 -0.8066
 5887TIP3   OH241855   0.015   0.953   2.152 -0.1563  0.7866 -0.5131
 5887TIP3    H141856  -0.000   0.924   2.062 -0.8026  1.9650 -0.8059
 5887TIP3    H241857   0.093   0.904   2.180 -1.6130 -1.7836 -0.6709
 5888TIP3   OH241858   4.938   0.951   1.301  0.1283  0.8034 -0.1369
 5888TIP3    H141859   4.972   0.920   1.385 -0.7736  0.9267  0.2836
 5888TIP3    H241860   4.851   0.911   1.295 -0.5456  2.2253 -0.1681
 5889TIP3   OH241861   1.301   3.799   1.725 -0.5271 -0.4820  0.4028
 5889TIP3    H141862   1.337   3.850   1.651  3.6817 -1.7934  1.2868
 5889TIP3    H241863   1.273   3.717   1.685 -0.6904 -0.2139 -0.0545
 5890TIP3   OH241864   6.013   7.107   3.242 -0.2041 -0.5926  0.2069
 5890TIP3    H141865   5.976   7.171   3.304  2.3903  0.4711  0.8154
 5890TIP3    H241866   6.075   7.056   3.295 -1.2970 -2.8435 -0.5617
 5891TIP3   OH241867   1.581   2.463   1.826 -0.0601  0.1142  0.5375
 5891TIP3    H141868   1.605   2.553   1.804 -0.1238 -0.5646 -2.9053
 5891TIP3    H241869   1.496   2.471   1.871  0.0124  1.7669  0.4509
 5892TIP3   OH241870   3.714   0.310   2.439 -0.1763  0.1450 -0.6038
 5892TIP3    H141871   3.684   0.323   2.348 -1.6557  3.4591  0.1829
 5892TIP3    H241872   3.789   0.369   2.447 -1.0964  1.2017  0.6927
 5893TIP3   OH241873   0.269   1.365   1.107 -0.7374  0.3222  0.1191
 5893TIP3    H141874   0.183   1.375   1.066 -1.1982 -0.4098  0.8753
 5893TIP3    H241875   0.284   1.447   1.153 -0.5122  0.8923 -0.9299
 5894TIP3   OH241876   5.774   3.950   1.954 -0.2047 -0.3843 -0.0257
 5894TIP3    H141877   5.795   3.857   1.963 -2.5041 -0.8188  1.6737
 5894TIP3    H241878   5.712   3.968   2.024 -0.1605  2.3656 -0.5701
 5895TIP3   OH241879   6.545   2.072   1.418 -0.8207  0.3055  0.2806
 5895TIP3    H141880   6.541   2.137   1.348 -0.4707 -0.0718 -0.0909
 5895TIP3    H241881   6.623   2.020   1.399 -1.1379 -0.2761  0.5228
 5896TIP3   OH241882   1.743   2.823   2.719  0.0385 -0.1168 -0.3336
 5896TIP3    H141883   1.743   2.891   2.787 -0.1637  0.5564 -0.9906
 5896TIP3    H241884   1.836   2.811   2.698  0.0102  1.0284 -1.2379
 5897TIP3   OH241885   4.516   1.115   0.575  0.0201  0.2967  0.1866
 5897TIP3    H141886   4.488   1.206   0.579 -0.0531  0.3426 -0.9381
 5897TIP3    H241887   4.541   1.093   0.665 -0.0603  1.3877  0.4905
 5898TIP3   OH241888   2.211   3.848   2.093  1.2973 -0.2225  0.3069
 5898TIP3    H141889   2.124   3.811   2.077  1.4168 -0.7860  0.9074
 5898TIP3    H241890   2.231   3.898   2.014  0.2916  0.1865  0.2970
 5899TIP3   OH241891   2.520   6.868   2.018 -0.0865  0.1420  0.1045
 5899TIP3    H141892   2.464   6.793   1.998 -0.1840  0.0201  0.7857
 5899TIP3    H241893   2.609   6.833   2.017 -0.1119  0.0762  0.1346
 5900TIP3   OH241894   5.988   4.247   1.131 -0.0749  0.4520 -0.4002
 5900TIP3    H141895   6.058   4.208   1.183  0.3809  1.0100 -0.5883
 5900TIP3    H241896   5.966   4.328   1.176  0.4473  1.0326 -1.1550
 5901TIP3   OH241897   4.516   6.113   0.988 -0.1792  0.7234  0.0975
 5901TIP3    H141898   4.426   6.082   0.984 -1.0273  2.8718  0.9210
 5901TIP3    H241899   4.529   6.140   1.079  1.1075  0.9494 -0.1299
 5902TIP3   OH241900   7.173   3.628   1.448 -0.1354  0.2029  0.1192
 5902TIP3    H141901   7.172   3.639   1.353 -0.1667  1.0340  0.2086
 5902TIP3    H241902   7.201   3.713   1.482  0.2296 -0.1948  0.8418
 5903TIP3   OH241903   1.007   6.858   2.378  0.0308  0.0060  0.1802
 5903TIP3    H141904   0.920   6.818   2.372  0.4708 -0.7739 -1.5982
 5903TIP3    H241905   1.067   6.784   2.381  0.6660  0.5360  1.5560
 5904TIP3   OH241906   1.820   2.106   2.560  0.0934  0.2446 -0.0542
 5904TIP3    H141907   1.816   2.130   2.652 -1.3631 -1.2405  0.3173
 5904TIP3    H241908   1.729   2.107   2.531  0.1295 -2.5785 -0.5420
 5905TIP3   OH241909   1.325   1.241   2.447 -0.3679  0.3467  0.6517
 5905TIP3    H141910   1.398   1.204   2.398 -0.8457 -2.5831  1.8830
 5905TIP3    H241911   1.247   1.203   2.406 -1.0745  1.5652  0.8144
 5906TIP3   OH241912   1.770   3.051   2.297 -0.1207  0.0572  0.0448
 5906TIP3    H141913   1.710   3.096   2.237  0.8363  1.0612 -0.1917
 5906TIP3    H241914   1.832   3.006   2.241 -0.7355 -1.1440  0.2891
 5907TIP3   OH241915   7.155   0.839   2.180  0.5122 -0.2435  0.4250
 5907TIP3    H141916   7.119   0.879   2.101  0.8635 -2.6790 -1.0584
 5907TIP3    H241917   7.236   0.888   2.196 -0.6152  1.6697  0.5972
 5908TIP3   OH241918   7.299   5.933   1.722 -0.1985  0.1712  0.0522
 5908TIP3    H141919   7.276   5.969   1.807 -1.1279  2.2299 -1.0076
 5908TIP3    H241920   7.372   5.874   1.740  0.1966  1.2140  2.1352
 5909TIP3   OH241921   3.620   1.202   1.753 -0.2136  0.7608 -0.0841
 5909TIP3    H141922   3.578   1.248   1.680 -1.7397  1.0224  0.9344
 5909TIP3    H241923   3.585   1.113   1.748  1.2024  0.2008 -0.8257
 5910TIP3   OH241924   7.554   1.413   3.168 -0.3952 -0.5564 -0.1811
 5910TIP3    H141925   7.515   1.337   3.124  1.3547 -1.4731 -0.2437
 5910TIP3    H241926   7.561   1.386   3.260  2.2118 -1.4163 -0.5492
 5911TIP3   OH241927   6.818   7.388   1.235 -0.5815  0.2097  0.4181
 5911TIP3    H141928   6.870   7.310   1.250 -2.1301 -0.8460  0.5218
 5911TIP3    H241929   6.879   7.451   1.197  1.2857 -0.2024  2.4977
 5912TIP3   OH241930   5.000   3.941   0.905 -0.4175 -0.1186  0.5903
 5912TIP3    H141931   5.008   3.965   0.813  0.7592  0.6646  0.8630
 5912TIP3    H241932   4.948   3.861   0.905 -1.1026  0.3003 -0.6861
 5913TIP3   OH241933   2.707   4.968   3.032  0.0742 -0.0272  0.2962
 5913TIP3    H141934   2.730   5.039   2.972 -0.0322  0.3709  0.7146
 5913TIP3    H241935   2.685   4.894   2.976 -0.0302  0.3415 -0.1522
 5914TIP3   OH241936   5.607   1.559   3.093  0.3230 -0.1639 -0.3618
 5914TIP3    H141937   5.670   1.600   3.152 -1.9941  1.6833  1.0178
 5914TIP3    H241938   5.579   1.480   3.139  0.6534 -0.2897 -0.3726
 5915TIP3   OH241939   2.512   0.723   2.457  0.0333 -0.1319 -0.3927
 5915TIP3    H141940   2.528   0.740   2.549 -0.9045  0.2338 -0.2830
 5915TIP3    H241941   2.599   0.715   2.418  0.4427  0.4475  0.3870
 5916TIP3   OH241942   6.226   1.851   1.925 -0.1343  0.3658  0.7159
 5916TIP3    H141943   6.173   1.779   1.889  1.2469 -0.1166 -0.4452
 5916TIP3    H241944   6.198   1.858   2.017 -1.5337 -0.4742  0.3814
 5917TIP3   OH241945   2.992   1.484   1.979 -0.0987 -0.0922  0.1371
 5917TIP3    H141946   2.941   1.501   1.900 -1.8440 -1.6062  0.8677
 5917TIP3    H241947   3.008   1.571   2.016 -0.1431  0.5684 -1.3324
 5918TIP3   OH241948   1.274   2.085   0.824 -0.5551  0.1034  0.0587
 5918TIP3    H141949   1.266   2.000   0.781  0.0525  0.2890 -0.4355
 5918TIP3    H241950   1.276   2.065   0.918  0.6095 -0.5106 -0.0852
 5919TIP3   OH241951   7.377   1.298   2.061 -0.2761  0.0962 -0.4049
 5919TIP3    H141952   7.361   1.250   2.143  1.3184 -0.6123 -0.4821
 5919TIP3    H241953   7.361   1.234   1.992 -0.7698  0.4490 -0.6203
 5920TIP3   OH241954   4.798   2.732   2.179 -0.3993  0.2473 -0.1525
 5920TIP3    H141955   4.854   2.720   2.103  1.6374  1.4890  1.0729
 5920TIP3    H241956   4.853   2.709   2.254 -1.5807  1.3241  1.1009
 5921TIP3   OH241957   4.485   4.250   1.967  0.3870  0.4033  0.3034
 5921TIP3    H141958   4.496   4.338   1.932  0.8841  0.3931  0.4339
 5921TIP3    H241959   4.460   4.263   2.059 -0.0455  0.4150  0.1861
 5922TIP3   OH241960   0.873   1.542   1.182  0.0053 -0.2827 -0.7666
 5922TIP3    H141961   0.860   1.523   1.275 -0.2584 -0.4366 -0.8319
 5922TIP3    H241962   0.952   1.495   1.158  0.8435  0.8383 -0.3063
 5923TIP3   OH241963   3.332   2.682   3.006 -0.0957  0.3534 -0.0588
 5923TIP3    H141964   3.337   2.588   3.021  0.7366  0.3426 -0.3762
 5923TIP3    H241965   3.361   2.722   3.088 -0.2044  0.3359 -0.0113
 5924TIP3   OH241966   2.835   7.579   1.457  0.7835  0.4024 -0.0837
 5924TIP3    H141967   2.824   7.652   1.518 -2.0912  0.3929 -0.4611
 5924TIP3    H241968   2.847   7.620   1.372  0.9656  0.4085 -0.0568
 5925TIP3   OH241969   5.356   7.357   3.130 -0.2956 -0.1691 -0.7076
 5925TIP3    H141970   5.349   7.275   3.179 -1.0422  1.1240  1.5252
 5925TIP3    H241971   5.267   7.394   3.132  0.1333  0.9282 -1.1679
 5926TIP3   OH241972   2.815   5.211   1.728 -0.4408 -0.7776 -0.1965
 5926TIP3    H141973   2.884   5.277   1.740  0.8632 -2.1209 -0.0014
 5926TIP3    H241974   2.746   5.257   1.680  0.8838  0.4555 -1.0054
 5927TIP3   OH241975   0.869   5.045   1.135 -0.4256  0.1451 -0.2450
 5927TIP3    H141976   0.823   5.064   1.053 -1.7872  0.7786  0.6331
 5927TIP3    H241977   0.834   4.961   1.163 -0.1642  0.0591 -0.1804
 5928TIP3   OH241978   7.161   1.255   2.421 -0.3996  0.3224 -0.4254
 5928TIP3    H141979   7.147   1.201   2.498  1.3243  1.5227  0.8036
 5928TIP3    H241980   7.192   1.339   2.456 -0.6333  1.2799 -2.3793
 5929TIP3   OH241981   2.246   5.267   2.176  0.5342  0.0656 -0.1219
 5929TIP3    H141982   2.163   5.234   2.212  0.7040 -0.5651 -0.2845
 5929TIP3    H241983   2.230   5.272   2.082  0.0519  1.8210  0.0204
 5930TIP3   OH241984   7.155   6.686   0.665 -0.0573 -0.7563  0.1786
 5930TIP3    H141985   7.095   6.758   0.645  0.3521 -0.6005 -0.5333
 5930TIP3    H241986   7.161   6.685   0.760 -2.3188 -1.7049  0.3725
 5931TIP3   OH241987   2.594   5.284   1.308  0.3799 -0.2077  0.4730
 5931TIP3    H141988   2.517   5.232   1.330 -0.4248  0.5283 -0.5248
 5931TIP3    H241989   2.561   5.373   1.298  1.0954 -0.0882 -1.2347
 5932TIP3   OH241990   2.494   4.076   2.465  0.1239  0.2275  0.0886
 5932TIP3    H141991   2.448   4.093   2.548  0.2427 -1.0864  0.4380
 5932TIP3    H241992   2.424   4.074   2.399 -0.2205 -0.7732  0.4716
 5933TIP3   OH241993   2.443   0.180   1.774  0.4392  0.6931 -0.3549
 5933TIP3    H141994   2.512   0.118   1.751  0.2328  0.7696 -1.2093
 5933TIP3    H241995   2.366   0.149   1.726 -0.4192 -0.0132  1.4066
 5934TIP3   OH241996   6.521   6.499   0.886  0.5425  0.3462 -0.6395
 5934TIP3    H141997   6.547   6.524   0.974 -0.0883 -0.5551 -0.1751
 5934TIP3    H241998   6.602   6.498   0.835  1.1671 -0.7414  0.3429
 5935TIP3   OH241999   7.576   2.150   2.568 -0.6623 -0.5577  0.4505
 5935TIP3    H142000   7.597   2.210   2.496 -0.0925  0.4193  1.3894
 5935TIP3    H242001   7.496   2.106   2.541  1.1714 -2.5977 -2.1947
 5936TIP3   OH242002   2.987   5.793   2.002  0.3109  0.0871 -0.2104
 5936TIP3    H142003   2.959   5.727   1.939  0.8017  0.1866 -0.5347
 5936TIP3    H242004   2.989   5.747   2.086 -2.3863  0.4392  0.1561
 5937TIP3   OH242005   1.242   1.781   1.788 -0.0595 -0.1890 -0.1864
 5937TIP3    H142006   1.231   1.734   1.870  0.4982  0.0307  0.0247
 5937TIP3    H242007   1.155   1.814   1.766 -0.1131  0.2143  0.6071
 5938TIP3   OH242008   4.073   6.849   1.371 -0.2194 -0.3431 -0.7156
 5938TIP3    H142009   4.028   6.767   1.349 -0.2814 -0.3237 -0.6623
 5938TIP3    H242010   4.151   6.821   1.419  0.0940 -0.3991 -1.2570
 5939TIP3   OH242011   1.854   2.082   0.947  0.2682 -0.3068 -0.0484
 5939TIP3    H142012   1.768   2.065   0.907  1.0758 -0.7565 -1.6573
 5939TIP3    H242013   1.894   1.996   0.957  1.2077  0.0039 -0.9261
 5940TIP3   OH242014   5.756   4.824   0.929  0.1317  0.2018 -0.0483
 5940TIP3    H142015   5.769   4.912   0.893 -2.4250  0.3685 -0.7822
 5940TIP3    H242016   5.707   4.778   0.861  0.8250 -1.5953  0.6170
 5941TIP3   OH242017   6.932   0.499   2.044 -0.4994  0.1059  0.1644
 5941TIP3    H142018   6.894   0.509   1.956 -0.2951 -0.2086  0.0368
 5941TIP3    H242019   6.897   0.416   2.076 -1.5709  0.8176  0.8980
 5942TIP3   OH242020   0.296   4.631   2.486  1.0836  0.0288  0.0520
 5942TIP3    H142021   0.315   4.724   2.480  0.7929  0.1801  1.2714
 5942TIP3    H242022   0.270   4.617   2.577  0.0881 -1.0471 -0.3722
 5943TIP3   OH242023   6.137   1.108   0.867 -0.9097  0.4692  0.3276
 5943TIP3    H142024   6.091   1.063   0.796 -0.1649  0.1511  0.0394
 5943TIP3    H242025   6.127   1.201   0.846 -0.7591  0.3809 -0.1605
 5944TIP3   OH242026   3.658   0.004   3.122  0.1699  0.0345  0.0498
 5944TIP3    H142027   3.731  -0.058   3.130  1.8481  1.7760 -1.0778
 5944TIP3    H242028   3.580  -0.051   3.132  1.5767 -1.8208  1.9519
 5945TIP3   OH242029   2.759   7.404   1.149 -0.1213 -0.3141  0.1255
 5945TIP3    H142030   2.716   7.485   1.124  0.4407 -0.1760 -0.4091
 5945TIP3    H242031   2.691   7.337   1.139 -0.3836 -0.0142 -0.1210
 5946TIP3   OH242032   1.183   2.395   3.599 -0.3387 -0.8005  0.0969
 5946TIP3    H142033   1.196   2.481   3.640 -1.3211 -0.6875  0.2121
 5946TIP3    H242034   1.248   2.391   3.530 -0.3756  0.1087 -0.0058
 5947TIP3   OH242035   3.667   1.137   0.714  0.3762 -0.1041 -0.5435
 5947TIP3    H142036   3.640   1.174   0.630 -3.0574 -1.8021 -0.3763
 5947TIP3    H242037   3.688   1.212   0.769 -1.0458  1.2591 -1.7932
 5948TIP3   OH242038   6.964   4.956   1.526  0.6305 -0.6107 -0.6586
 5948TIP3    H142039   6.957   5.009   1.605 -2.6260 -1.8457  0.0506
 5948TIP3    H242040   6.934   5.013   1.456  2.3168  0.0907 -0.8485
 5949TIP3   OH242041   2.839   2.623   0.856 -0.2425  0.3598  0.3367
 5949TIP3    H142042   2.919   2.623   0.907  0.5646  2.4420 -0.8228
 5949TIP3    H242043   2.808   2.713   0.858  0.2295  0.7509 -3.3296
 5950TIP3   OH242044   2.132   6.499   1.119  0.0293 -0.4143  0.3373
 5950TIP3    H142045   2.086   6.416   1.109 -1.3734  0.3513  0.1609
 5950TIP3    H242046   2.080   6.547   1.184 -0.3129  1.0689 -0.9749
 5951TIP3   OH242047   6.289   7.437   1.168  0.1897 -0.6394  0.5937
 5951TIP3    H142048   6.260   7.522   1.135  0.8432  0.6229  3.0465
 5951TIP3    H242049   6.207   7.391   1.188 -0.1600 -0.4294 -0.2874
 5952TIP3   OH242050   3.918   3.326   0.809  0.4464 -0.1679 -0.0388
 5952TIP3    H142051   3.951   3.284   0.730 -0.5944  0.8724 -1.0805
 5952TIP3    H242052   3.899   3.254   0.869  1.9869 -0.9337 -0.4145
 5953TIP3   OH242053   2.026   6.556   2.224 -0.1577  0.0779 -0.1240
 5953TIP3    H142054   2.022   6.526   2.314  0.1370 -0.2446 -0.2159
 5953TIP3    H242055   1.947   6.521   2.183 -0.7256  0.9286  0.2140
 5954TIP3   OH242056   3.714   1.109   2.687  0.3330  0.8523  0.2945
 5954TIP3    H142057   3.646   1.042   2.696  0.5853  0.7150  1.2873
 5954TIP3    H242058   3.686   1.179   2.746  1.0974  0.7437  0.8005
 5955TIP3   OH242059   4.628   2.994   1.547  0.0047  0.4416  0.1765
 5955TIP3    H142060   4.700   2.936   1.571 -0.9261 -0.3937  1.0557
 5955TIP3    H242061   4.627   3.061   1.616 -0.1175  0.3907  0.2250
 5956TIP3   OH242062   2.496   2.997   7.355  0.1768  0.9358  0.0929
 5956TIP3    H142063   2.574   3.027   7.308  0.5647 -0.1124  0.0344
 5956TIP3    H242064   2.492   2.903   7.338 -0.7974  0.8784  0.5491
 5957TIP3   OH242065   6.442   0.010   2.294 -0.0457  0.2057 -0.2530
 5957TIP3    H142066   6.489   0.017   2.377 -0.7093  0.1425  0.1342
 5957TIP3    H242067   6.475  -0.070   2.254  0.1048  0.1131  0.0583
 5958TIP3   OH242068   0.581   6.041   2.376  0.0921 -0.2005 -0.5728
 5958TIP3    H142069   0.568   5.947   2.388 -2.3381  0.2074  0.8043
 5958TIP3    H242070   0.601   6.074   2.464 -1.6914  0.8335 -0.4958
 5959TIP3   OH242071   6.009   7.109   1.848 -0.1824 -0.1694  0.2086
 5959TIP3    H142072   5.944   7.178   1.834  0.2020  0.1559  0.0229
 5959TIP3    H242073   5.995   7.048   1.776 -0.6346 -0.3819  0.4656
 5960TIP3   OH242074   6.477   5.796   2.442 -0.2291 -0.0152  0.3990
 5960TIP3    H142075   6.472   5.788   2.537 -2.9646 -1.1098  0.2615
 5960TIP3    H242076   6.442   5.713   2.409 -0.7855  0.9251 -1.5462
 5961TIP3   OH242077   0.435   2.434   1.380 -0.4336 -0.3423  0.1847
 5961TIP3    H142078   0.449   2.520   1.420  1.6914 -0.8005  0.5350
 5961TIP3    H242079   0.515   2.417   1.330 -0.7435 -2.1847  0.2353
 5962TIP3   OH242080   2.948   0.365   2.463 -0.3256  0.0695 -0.2445
 5962TIP3    H142081   2.940   0.341   2.556  0.5577 -1.1159 -0.4511
 5962TIP3    H242082   2.863   0.402   2.441 -0.0331  1.9432  1.4593
 5963TIP3   OH242083   5.041   3.020   1.037  0.5119  0.2945  0.4450
 5963TIP3    H142084   4.973   3.072   0.994 -0.0506 -0.8677 -0.1189
 5963TIP3    H242085   4.997   2.979   1.112  0.9703  0.6844  0.9371
 5964TIP3   OH242086   4.524   6.997   2.600  0.1203  0.2941 -0.5616
 5964TIP3    H142087   4.440   7.035   2.624 -0.0211  0.4524 -1.3033
 5964TIP3    H242088   4.548   6.943   2.676 -0.9143 -0.2081 -0.5730
 5965TIP3   OH242089   1.957   0.685   0.838  0.1491  0.4953 -0.1208
 5965TIP3    H142090   1.957   0.681   0.934 -0.1594 -2.3684 -0.1820
 5965TIP3    H242091   2.009   0.764   0.818  1.0092  0.6499  2.3712
 5966TIP3   OH242092   1.156   4.664   2.674 -0.2406  0.0314  0.3979
 5966TIP3    H142093   1.115   4.669   2.760  0.5850  0.1983  0.7866
 5966TIP3    H242094   1.110   4.731   2.622 -0.1373  0.5559  0.9711
 5967TIP3   OH242095   4.388   5.978   1.626  0.5402 -0.5923  0.5710
 5967TIP3    H142096   4.356   5.907   1.570  0.4737  0.7103 -1.1514
 5967TIP3    H242097   4.319   6.045   1.620  0.7196 -0.2736  1.9328
 5968TIP3   OH242098   0.833   6.985   2.736 -0.2891 -0.0235  0.1308
 5968TIP3    H142099   0.754   6.978   2.789 -0.1354  0.2439  0.3969
 5968TIP3    H242100   0.833   7.076   2.705 -0.1076 -0.0367  0.0932
 5969TIP3   OH242101   0.091   3.015   2.649 -0.8145  0.1291 -0.6377
 5969TIP3    H142102   0.123   3.104   2.657 -0.5023 -0.0512  0.2147
 5969TIP3    H242103   0.048   3.012   2.563 -1.1348  1.1911 -0.5278
 5970TIP3   OH242104   3.651   4.673   1.628 -0.4610 -0.5018 -0.1532
 5970TIP3    H142105   3.565   4.662   1.669 -1.4773 -0.7641 -2.2093
 5970TIP3    H242106   3.661   4.767   1.618 -1.1847 -0.5092 -1.1488
 5971TIP3   OH242107   5.314   6.242   0.602 -0.1571 -0.0240  0.0658
 5971TIP3    H142108   5.229   6.287   0.602 -0.0662  0.1553  0.4571
 5971TIP3    H242109   5.295   6.156   0.565 -0.4823  0.0675  0.0117
 5972TIP3   OH242110   0.437   4.794   2.841  0.3495  0.2984  0.0202
 5972TIP3    H142111   0.478   4.876   2.813  0.0264  0.4803  0.0740
 5972TIP3    H242112   0.376   4.821   2.910  1.9231 -0.2519  1.7346
 5973TIP3   OH242113   0.555   6.434   1.927 -0.2653  0.3334 -0.3034
 5973TIP3    H142114   0.599   6.413   2.010  0.7762  1.1881 -0.6208
 5973TIP3    H242115   0.574   6.358   1.871 -1.0562 -0.2935  0.2469
 5974TIP3   OH242116   2.247   0.854   0.559  0.3343 -0.4048 -0.4087
 5974TIP3    H142117   2.228   0.762   0.543  0.0134 -0.4615  0.2407
 5974TIP3    H242118   2.178   0.882   0.620  0.0108  0.4521 -1.1510
 5975TIP3   OH242119   1.946   4.841   2.363  0.1053 -0.0120 -0.5344
 5975TIP3    H142120   1.996   4.922   2.362 -0.3966  0.3079  0.0691
 5975TIP3    H242121   2.003   4.778   2.318  0.9487  0.4024 -0.0768
 5976TIP3   OH242122   2.522   2.962   2.686  0.3654 -0.5504  0.3723
 5976TIP3    H142123   2.448   2.943   2.627 -0.5249  1.5416  0.7146
 5976TIP3    H242124   2.513   2.899   2.757 -1.0956 -0.3769  0.3736
 5977TIP3   OH242125   7.085   4.132   2.239 -0.4418 -0.1912  0.0100
 5977TIP3    H142126   7.090   4.089   2.324  0.3935 -0.0777  0.0239
 5977TIP3    H242127   7.011   4.091   2.196  0.3238 -1.6394  0.0235
 5978TIP3   OH242128   0.661   2.000   2.160 -0.2216 -0.2569  0.1736
 5978TIP3    H142129   0.755   1.997   2.177  0.0405 -1.5151 -1.2469
 5978TIP3    H242130   0.621   1.986   2.245  0.9176 -1.5491  0.5404
 5979TIP3   OH242131   0.124   5.577   0.556  0.3353  0.1969 -0.2282
 5979TIP3    H142132   0.049   5.552   0.611  1.3851 -0.5562  0.9121
 5979TIP3    H242133   0.148   5.495   0.511 -0.1762  0.6841 -1.4427
 5980TIP3   OH242134   6.267   4.669   1.868  0.0021  0.1301  0.5097
 5980TIP3    H142135   6.336   4.656   1.804 -1.2160  0.2729 -0.9000
 5980TIP3    H242136   6.231   4.755   1.847 -2.0475 -0.8590 -0.2804
 5981TIP3   OH242137   3.403   2.378   2.667 -0.4007 -0.4148 -0.2085
 5981TIP3    H142138   3.425   2.324   2.591  0.8860 -0.1848 -0.0312
 5981TIP3    H242139   3.316   2.349   2.693  0.4636 -2.8387  0.2426
 5982TIP3   OH242140   7.161   7.602   2.950  0.0837 -0.0704 -0.1471
 5982TIP3    H142141   7.102   7.527   2.944 -1.2708  1.0608 -1.9978
 5982TIP3    H242142   7.234   7.571   3.003 -1.2318 -2.1464  0.5701
 5983TIP3   OH242143   4.768   6.251   2.081 -0.1752  0.4390 -0.3349
 5983TIP3    H142144   4.686   6.219   2.045  0.6321 -0.7253 -1.2263
 5983TIP3    H242145   4.777   6.205   2.165 -0.4899  0.6581 -0.1813
 5984TIP3   OH242146   3.720   2.507   0.818 -0.3707  0.3364  0.2958
 5984TIP3    H142147   3.696   2.598   0.799 -0.1592  0.5470  0.9995
 5984TIP3    H242148   3.760   2.511   0.905  0.1138 -0.3580  0.1101
 5985TIP3   OH242149   0.132   0.821   2.649  0.1804 -0.0687  0.3785
 5985TIP3    H142150   0.076   0.795   2.722 -0.2926  1.1563  0.4713
 5985TIP3    H242151   0.168   0.906   2.675  0.6582 -0.0029 -0.4554
 5986TIP3   OH242152   0.228   7.030   1.294  0.0503  0.4358 -0.2346
 5986TIP3    H142153   0.279   7.090   1.240  1.1538 -1.4020 -1.3616
 5986TIP3    H242154   0.291   6.996   1.358 -0.4604  0.2217  0.1603
 5987TIP3   OH242155   7.229   5.572   2.513  0.0452 -0.0554  0.4045
 5987TIP3    H142156   7.176   5.542   2.586 -0.4819  1.8674  0.8783
 5987TIP3    H242157   7.170   5.625   2.460  0.2928 -1.7584 -1.7260
 5988TIP3   OH242158   1.042   3.704   2.593 -0.0487 -0.4018 -0.4775
 5988TIP3    H142159   0.973   3.637   2.598  0.1360 -0.5938 -0.4866
 5988TIP3    H242160   1.021   3.754   2.514 -0.7292  0.1525  0.0468
 5989TIP3   OH242161   5.821   5.072   0.506  0.4451 -0.3275  0.2603
 5989TIP3    H142162   5.813   5.164   0.532  1.8944 -0.7284  2.3734
 5989TIP3    H242163   5.853   5.076   0.415  0.6043  1.2622  0.3496
 5990TIP3   OH242164   7.154   6.586   2.337  0.4376  0.0661  0.0274
 5990TIP3    H142165   7.221   6.546   2.393 -1.0022 -0.0905  1.7383
 5990TIP3    H242166   7.116   6.512   2.290  2.3455  0.3109 -2.0587
 5991TIP3   OH242167   3.424   5.340   2.003 -0.5975 -0.3852  0.0607
 5991TIP3    H142168   3.453   5.377   1.920 -3.1498 -2.1542 -1.7622
 5991TIP3    H242169   3.471   5.257   2.011 -2.3214 -1.5329 -1.0907
 5992TIP3   OH242170   6.079   2.956   0.986  0.3543  0.1348  0.0371
 5992TIP3    H142171   6.049   3.029   0.933 -0.3816  0.9300  1.4834
 5992TIP3    H242172   6.015   2.950   1.057  1.4267 -0.7256  0.9725
 5993TIP3   OH242173   5.334   7.106   0.313  0.4922  0.2414  0.0894
 5993TIP3    H142174   5.401   7.038   0.316  0.7774  0.5384  0.4539
 5993TIP3    H242175   5.368   7.176   0.368  0.3941  0.8640 -0.6220
 5994TIP3   OH242176   4.632   3.300   1.560  0.1943 -0.0318 -0.1894
 5994TIP3    H142177   4.658   3.391   1.576  1.6590 -0.1418 -1.6679
 5994TIP3    H242178   4.683   3.274   1.484  0.8150 -2.5248  0.9988
 5995TIP3   OH242179   5.603   0.593   1.148  0.3441 -0.3291 -0.0978
 5995TIP3    H142180   5.555   0.511   1.135 -0.8314  0.1111  1.1972
 5995TIP3    H242181   5.562   0.655   1.088 -0.2603 -0.1358  0.5034
 5996TIP3   OH242182   0.415   2.586   2.046 -0.1109 -0.1960  0.0283
 5996TIP3    H142183   0.368   2.598   1.963 -1.1530 -0.8913  0.4917
 5996TIP3    H242184   0.404   2.670   2.091  1.8480  0.7659 -1.1687
 5997TIP3   OH242185   6.150   5.780   1.413 -0.1084  0.2453  0.4069
 5997TIP3    H142186   6.176   5.712   1.476  0.6989  1.4342  1.3910
 5997TIP3    H242187   6.153   5.861   1.462  0.2067  1.1769 -1.0845
 5998TIP3   OH242188   5.989   5.318   2.066 -0.0174  0.2531 -0.0303
 5998TIP3    H142189   5.914   5.369   2.095 -0.5956 -0.9120  0.5602
 5998TIP3    H242190   6.057   5.384   2.048 -1.2253  1.3501 -0.8107
 5999TIP3   OH242191   6.955   1.307   0.839 -0.2049 -0.4449  0.2278
 5999TIP3    H142192   7.043   1.332   0.866 -0.3371 -0.4990  0.7157
 5999TIP3    H242193   6.919   1.260   0.914 -0.7995 -0.0670  0.1841
 6000TIP3   OH242194   0.257   1.660   3.251  0.3703 -0.1102 -0.1723
 6000TIP3    H142195   0.289   1.721   3.185 -0.1337  0.1286 -0.1996
 6000TIP3    H242196   0.168   1.690   3.270  0.3975 -0.3698  0.3803
 6001TIP3   OH242197   5.154   2.465   1.348  0.5924 -0.2631 -0.4997
 6001TIP3    H142198   5.220   2.502   1.289  0.6618  0.2606 -0.0993
 6001TIP3    H242199   5.091   2.536   1.360  0.3581 -0.5086 -0.2751
 6002TIP3   OH242200   2.155   0.969   2.954  0.4333  0.0437  0.4370
 6002TIP3    H142201   2.187   0.905   3.018  0.2476 -1.4373 -0.8671
 6002TIP3    H242202   2.096   0.918   2.898 -0.5703  1.6413 -0.0121
 6003TIP3   OH242203   6.724   2.640   1.691 -0.0248 -0.4253  0.3178
 6003TIP3    H142204   6.807   2.605   1.723  0.3705  0.2707  0.0985
 6003TIP3    H242205   6.749   2.719   1.642 -0.9545  0.7608  1.6787
 6004TIP3   OH242206   1.212   6.334   1.090  0.4341  0.1404 -0.3180
 6004TIP3    H142207   1.297   6.373   1.072  0.4291  1.6051  2.3334
 6004TIP3    H242208   1.149   6.393   1.048  0.6308 -0.5614 -1.6738
 6005TIP3   OH242209   7.002   2.588   1.518 -0.0191  0.1785 -0.1102
 6005TIP3    H142210   7.016   2.677   1.552 -0.0401 -0.0378  0.4712
 6005TIP3    H242211   6.921   2.594   1.467 -1.8480 -0.1882  2.5458
 6006TIP3   OH242212   0.400   4.836   1.678  0.4139  0.6194 -0.2758
 6006TIP3    H142213   0.429   4.922   1.708  2.9581  0.1693 -1.2388
 6006TIP3    H242214   0.314   4.852   1.640  0.5676  2.6128  0.1071
 6007TIP3   OH242215   5.784   6.547   1.145  0.0960  0.2798  0.1257
 6007TIP3    H142216   5.786   6.639   1.118  1.7303  0.2681  0.0852
 6007TIP3    H242217   5.741   6.548   1.231 -2.6912  0.6518 -1.1589
 6008TIP3   OH242218   3.893   2.459   2.671 -0.0205  0.3438  0.2908
 6008TIP3    H142219   3.900   2.446   2.766  0.0410  0.8097  0.3519
 6008TIP3    H242220   3.829   2.394   2.643  0.5908 -0.3864  0.5195
 6009TIP3   OH242221   6.233   1.922   1.292  0.3961 -0.1689  0.1665
 6009TIP3    H142222   6.322   1.885   1.290  1.0305  1.2601  0.7305
 6009TIP3    H242223   6.240   1.997   1.351 -0.7728  1.0642 -1.2154
 6010TIP3   OH242224   1.449   2.784   2.651  0.0360 -0.1652  0.2531
 6010TIP3    H142225   1.486   2.832   2.725 -0.9162 -0.0587  0.6731
 6010TIP3    H242226   1.492   2.822   2.575  0.8217 -0.0803  0.7285
 6011TIP3   OH242227   5.995   5.141   0.853 -0.0720  0.2799  0.0438
 6011TIP3    H142228   5.911   5.123   0.811 -0.2457  1.4874 -0.1615
 6011TIP3    H242229   6.002   5.076   0.923 -1.3807  0.4436  0.3376
 6012TIP3   OH242230   0.215   1.102   3.632 -0.3957  0.0145  0.3349
 6012TIP3    H142231   0.159   1.177   3.610 -1.6343 -0.0490  2.9267
 6012TIP3    H242232   0.301   1.140   3.647  0.6193  0.0683 -4.1084
 6013TIP3   OH242233   3.435   3.988   2.193 -0.3707 -0.1506  0.0284
 6013TIP3    H142234   3.463   4.068   2.147 -2.4400  0.5040 -0.2105
 6013TIP3    H242235   3.511   3.962   2.245  1.1109  0.6708 -1.6414
 6014TIP3   OH242236   6.756   5.857   1.184 -0.5187  0.0667  0.1643
 6014TIP3    H142237   6.765   5.946   1.149 -1.0087  0.7031  1.5723
 6014TIP3    H242238   6.834   5.811   1.153  1.0309  1.7051  1.4216
 6015TIP3   OH242239   2.696   2.432   2.984 -0.5607 -0.2377  0.3532
 6015TIP3    H142240   2.679   2.525   2.973 -1.0817 -0.1714  1.5110
 6015TIP3    H242241   2.790   2.426   3.002 -0.4097 -0.0031 -0.3456
 6016TIP3   OH242242   5.927   7.330   2.134 -0.0438  0.1724 -0.2461
 6016TIP3    H142243   5.968   7.253   2.095 -0.9937 -0.6554  0.3459
 6016TIP3    H242244   5.943   7.400   2.071  0.3649 -0.6270 -1.0496
 6017TIP3   OH242245   4.096   0.198   1.427 -0.3549 -0.1502  0.3968
 6017TIP3    H142246   4.012   0.235   1.401  0.9442  1.9291 -1.1231
 6017TIP3    H242247   4.115   0.131   1.361 -0.4858 -0.1115  0.3208
 6018TIP3   OH242248   6.074   7.296   3.535  0.2768  0.1665  0.4146
 6018TIP3    H142249   6.103   7.383   3.508 -0.6092  1.2111  2.5782
 6018TIP3    H242250   5.989   7.285   3.493  0.9704 -0.2685 -0.9384
 6019TIP3   OH242251   3.987   7.481   1.093 -0.0294  1.1066  0.2473
 6019TIP3    H142252   4.029   7.418   1.035  0.0477  0.8492  0.5777
 6019TIP3    H242253   3.927   7.531   1.036  0.3489  1.1373 -0.1253
 6020TIP3   OH242254   1.438   5.992   0.824 -0.7420  0.2371 -0.7995
 6020TIP3    H142255   1.416   5.971   0.915 -2.2429  1.1982 -0.9093
 6020TIP3    H242256   1.405   6.081   0.811  0.6070  0.6066 -1.9156
 6021TIP3   OH242257   1.696   1.197   2.171 -0.3708 -0.5585 -0.2961
 6021TIP3    H142258   1.650   1.167   2.092  0.4679  1.4888 -1.6409
 6021TIP3    H242259   1.646   1.273   2.199  0.4741 -0.1071 -0.0042
 6022TIP3   OH242260   7.207   5.365   2.929  0.4873 -0.2428 -0.2621
 6022TIP3    H142261   7.113   5.375   2.914  0.4809  0.2356  0.0861
 6022TIP3    H242262   7.213   5.315   3.011  0.5196  2.0999  1.2519
 6023TIP3   OH242263   1.586   0.009   1.579  0.2153  0.2468 -0.3956
 6023TIP3    H142264   1.491   0.018   1.589  0.0901  1.6589 -2.2854
 6023TIP3    H242265   1.598  -0.034   1.495  1.2370  1.0491 -0.6952
 6024TIP3   OH242266   5.761   2.444   2.468 -0.0223  0.2795 -0.8898
 6024TIP3    H142267   5.839   2.501   2.469 -0.5057  0.9693 -1.3437
 6024TIP3    H242268   5.776   2.382   2.539 -0.3690  2.2072  0.9929
 6025TIP3   OH242269   2.518   1.900   0.945 -0.3448 -0.0428  0.6739
 6025TIP3    H142270   2.588   1.964   0.934 -1.5136  1.3739  1.1269
 6025TIP3    H242271   2.550   1.822   0.899  1.4622  0.5817  0.7769
 6026TIP3   OH242272   2.789   6.931   1.578  0.2621 -0.1788  0.2342
 6026TIP3    H142273   2.702   6.892   1.567 -0.8528  1.8681  1.2868
 6026TIP3    H242274   2.806   6.978   1.497 -0.3912  0.8240  0.6667
 6027TIP3   OH242275   2.858   4.728   1.974 -0.0218  0.3911  0.1327
 6027TIP3    H142276   2.793   4.667   1.939 -0.8469  0.9489  0.6247
 6027TIP3    H242277   2.894   4.772   1.897  0.3324 -0.4545 -0.1993
 6028TIP3   OH242278   7.433   5.387   2.802  0.1616  0.0329 -0.0195
 6028TIP3    H142279   7.350   5.382   2.849  0.0401  0.3439 -0.2012
 6028TIP3    H242280   7.494   5.337   2.856 -0.2381 -0.5484 -0.0909
 6029TIP3   OH242281   6.709   0.107   0.817 -0.0464  0.2426 -0.0507
 6029TIP3    H142282   6.626   0.141   0.783 -0.6761  0.3830  1.5241
 6029TIP3    H242283   6.702   0.012   0.805  0.7191  0.3946 -2.2908
 6030TIP3   OH242284   3.756   4.849   3.038 -0.2844 -0.1233  0.1789
 6030TIP3    H142285   3.836   4.870   3.086  0.4061 -0.3668 -0.8358
 6030TIP3    H242286   3.786   4.812   2.956 -1.4382  0.8420 -0.7141
 6031TIP3   OH242287   5.680   2.686   1.798  0.1749  0.4930 -1.0678
 6031TIP3    H142288   5.762   2.729   1.823  0.1344  0.2899 -0.5650
 6031TIP3    H242289   5.612   2.734   1.845  0.1207 -0.0437 -0.5754
 6032TIP3   OH242290   3.252   1.695   1.452  0.0632 -0.0608 -0.6123
 6032TIP3    H142291   3.212   1.760   1.510  1.0491  1.1917 -1.2923
 6032TIP3    H242292   3.218   1.611   1.484  1.0339  0.5045  2.1507
 6033TIP3   OH242293   7.560   0.718   2.301  0.4362 -0.5445 -0.6214
 6033TIP3    H142294   7.581   0.786   2.365 -0.8640 -1.8355  1.3014
 6033TIP3    H242295   7.504   0.761   2.237 -0.8889  0.0965  0.9054
 6034TIP3   OH242296   5.459   5.445   1.972  0.0651 -0.5695  0.2737
 6034TIP3    H142297   5.396   5.504   1.931  0.6737  0.2422  0.4832
 6034TIP3    H242298   5.413   5.411   2.049 -0.8098 -1.5214 -0.6266
 6035TIP3   OH242299   2.840   3.111   1.217  0.1926 -0.0264  0.6691
 6035TIP3    H142300   2.932   3.136   1.210  0.3417 -0.8063 -0.3793
 6035TIP3    H242301   2.805   3.168   1.286  1.3444  0.5903  0.7710
 6036TIP3   OH242302   1.914   2.673   3.101 -0.0138  0.0190  0.0369
 6036TIP3    H142303   1.981   2.742   3.103  0.1609 -0.1624  1.0534
 6036TIP3    H242304   1.896   2.661   3.008  1.1273  0.3030 -0.2496
 6037TIP3   OH242305   3.353   6.565   1.686 -0.0415 -0.3594  0.3126
 6037TIP3    H142306   3.323   6.509   1.614  0.6983  0.3453 -0.5718
 6037TIP3    H242307   3.298   6.643   1.679 -0.3104 -0.4989  0.8375
 6038TIP3   OH242308   2.261   0.187   2.034 -0.0621  0.1339  0.2089
 6038TIP3    H142309   2.330   0.191   2.100 -0.8898  0.2775  1.0935
 6038TIP3    H242310   2.255   0.095   2.009  1.3240  0.3022 -0.8553
 6039TIP3   OH242311   0.139   3.859   2.695 -0.9676 -0.3304 -0.3750
 6039TIP3    H142312   0.127   3.789   2.630  0.3714  1.5484 -2.8168
 6039TIP3    H242313   0.233   3.877   2.695 -1.2229  1.2122  0.4534
 6040TIP3   OH242314   7.417   3.705   1.256 -0.5458  0.5544 -0.0553
 6040TIP3    H142315   7.424   3.739   1.167  0.6993  1.3843  0.3295
 6040TIP3    H242316   7.504   3.719   1.294 -0.8233 -0.5367  1.0292
 6041TIP3   OH242317   5.512   3.028   2.784 -0.1871  0.1651 -0.2332
 6041TIP3    H142318   5.521   3.117   2.751  1.0204  0.1683  0.0489
 6041TIP3    H242319   5.506   3.038   2.879 -1.6143  0.0305 -0.2924
 6042TIP3   OH242320   7.172   1.630   2.169  0.5299  0.6917 -0.0182
 6042TIP3    H142321   7.256   1.604   2.130 -0.0932 -0.3259 -0.7031
 6042TIP3    H242322   7.154   1.716   2.132  1.4165  1.0742  0.3877
 6043TIP3   OH242323   4.946   2.129   1.761  0.1341 -0.0549 -0.0288
 6043TIP3    H142324   4.982   2.136   1.850 -2.2407 -0.2752  1.0339
 6043TIP3    H242325   4.856   2.159   1.770 -0.6106 -1.5182 -2.0532
 6044TIP3   OH242326   7.043   4.743   2.560 -0.3129 -0.2957 -0.0460
 6044TIP3    H142327   6.983   4.718   2.490 -0.2543 -1.3975  0.2823
 6044TIP3    H242328   6.996   4.722   2.641 -0.8180  1.9445  0.3099
 6045TIP3   OH242329   0.433   1.858   1.671 -0.0518  0.3933 -0.2811
 6045TIP3    H142330   0.397   1.785   1.721 -1.1585  0.5222 -0.8582
 6045TIP3    H242331   0.506   1.819   1.622 -0.3723 -0.2431 -0.2705
 6046TIP3   OH242332   2.841   0.218   2.803 -0.7406 -0.2839 -0.3391
 6046TIP3    H142333   2.875   0.306   2.786 -0.4183 -0.7098 -2.1750
 6046TIP3    H242334   2.892   0.185   2.877 -0.6571  0.9400  0.1657
 6047TIP3   OH242335   1.282   5.653   2.013 -0.1488 -0.1756 -0.1278
 6047TIP3    H142336   1.214   5.720   2.027 -0.5535 -0.2637 -1.4417
 6047TIP3    H242337   1.359   5.686   2.059 -0.9714  0.1089  1.0875
 6048TIP3   OH242338   0.045   3.833   2.293 -0.2878  0.4088 -0.2064
 6048TIP3    H142339   0.128   3.845   2.339  0.8066 -2.3770 -1.2139
 6048TIP3    H242340   0.070   3.832   2.200 -1.3168 -1.0626 -0.4914
 6049TIP3   OH242341   6.154   0.019   2.519  0.5898 -0.0900 -0.1965
 6049TIP3    H142342   6.100  -0.043   2.568  1.2167 -0.0425  0.5700
 6049TIP3    H242343   6.165  -0.022   2.432  0.5934 -0.8252  0.1416
 6050TIP3   OH242344   6.462   3.113   0.937 -0.1764  0.3009  0.3205
 6050TIP3    H142345   6.416   3.141   0.858 -0.5538  0.2268  0.5103
 6050TIP3    H242346   6.392   3.096   1.001  0.0901 -0.2808  0.4622
 6051TIP3   OH242347   0.300   4.817   2.150  0.0104  0.2808 -0.4083
 6051TIP3    H142348   0.346   4.813   2.234 -1.2966 -1.4160  0.2810
 6051TIP3    H242349   0.251   4.735   2.146 -1.1794  1.0299 -2.1443
 6052TIP3   OH242350   3.323   4.407   1.703  0.2027 -0.3860 -0.5958
 6052TIP3    H142351   3.358   4.333   1.751 -1.1096 -1.6827 -1.5617
 6052TIP3    H242352   3.365   4.484   1.743  0.2533 -1.4894  1.5958
 6053TIP3   OH242353   3.077   4.063   0.889  0.2224 -0.6563 -0.7291
 6053TIP3    H142354   2.994   4.075   0.934  0.8708  0.1231  0.3083
 6053TIP3    H242355   3.053   4.028   0.803 -1.3148  1.3106 -1.1825
 6054TIP3   OH242356   4.619   0.168   0.370 -0.1057 -0.7624  0.1101
 6054TIP3    H142357   4.652   0.153   0.282  0.5203 -0.8680  0.3587
 6054TIP3    H242358   4.660   0.100   0.424  0.0852 -0.2537  0.6160
 6055TIP3   OH242359   2.435   5.302   2.359  0.0225  0.0411  0.4657
 6055TIP3    H142360   2.388   5.315   2.441 -1.4242 -2.4951  0.1271
 6055TIP3    H242361   2.367   5.290   2.293  1.1483 -0.9468 -0.5677
 6056TIP3   OH242362   6.497   1.833   1.822 -0.5877  0.0673  0.4324
 6056TIP3    H142363   6.580   1.805   1.859 -0.4865 -0.6765 -0.3471
 6056TIP3    H242364   6.431   1.792   1.878 -0.4580  1.2566  1.5072
 6057TIP3   OH242365   6.656   5.863   2.240  0.3193 -0.2673  0.5561
 6057TIP3    H142366   6.599   5.843   2.166 -1.4625  1.8150  1.2737
 6057TIP3    H242367   6.609   5.831   2.317  1.7752 -1.6663  0.9257
 6058TIP3   OH242368   0.710   4.613   2.230 -0.5352  0.4371  0.2326
 6058TIP3    H142369   0.640   4.635   2.169  0.7889 -0.5781 -1.7832
 6058TIP3    H242370   0.783   4.587   2.174  0.5407 -1.2850  2.2686
 6059TIP3   OH242371   0.296   4.594   1.132 -0.3977 -0.3035 -0.2000
 6059TIP3    H142372   0.234   4.599   1.060 -0.0993 -2.0463 -0.6303
 6059TIP3    H242373   0.369   4.650   1.105 -1.1722  0.6891 -0.2898
 6060TIP3   OH242374   0.925   0.803   0.882 -0.4977 -0.3186 -0.0672
 6060TIP3    H142375   0.882   0.741   0.941  0.2347 -0.6754  0.1036
 6060TIP3    H242376   0.860   0.873   0.869 -0.6698 -0.2319  1.1629
 6061TIP3   OH242377   5.405   2.091   1.470  0.1949 -0.1753  0.4963
 6061TIP3    H142378   5.367   2.150   1.405  0.9910 -0.2158 -0.0239
 6061TIP3    H242379   5.412   2.007   1.425  0.1549 -0.3697  0.8458
 6062TIP3   OH242380   7.337   0.937   3.243 -0.1555  0.4884  0.1786
 6062TIP3    H142381   7.365   0.856   3.200  2.5597  1.1415  0.5210
 6062TIP3    H242382   7.252   0.958   3.202 -0.3187 -1.8142 -0.8237
 6063TIP3   OH242383   3.707   5.997   1.836 -0.5108  0.3510 -0.1675
 6063TIP3    H142384   3.735   6.074   1.788 -0.4996  1.4320  1.4908
 6063TIP3    H242385   3.788   5.952   1.860 -0.5311 -0.5165 -1.5801
 6064TIP3   OH242386   6.224   3.066   2.304  0.2992  0.2261  0.3079
 6064TIP3    H142387   6.289   3.039   2.239  0.6311 -0.0073  0.7248
 6064TIP3    H242388   6.140   3.035   2.270  0.3173  1.1058 -0.5537
 6065TIP3   OH242389   2.910   4.577   0.847 -0.2026 -0.7196 -0.1913
 6065TIP3    H142390   2.835   4.573   0.788 -1.2331 -0.0215  1.0062
 6065TIP3    H242391   2.879   4.538   0.929 -0.1872  1.8980  1.1957
 6066TIP3   OH242392   7.440   5.699   1.566 -0.1009 -0.1747 -0.1201
 6066TIP3    H142393   7.482   5.706   1.652 -1.6951 -1.6476  0.8603
 6066TIP3    H242394   7.508   5.723   1.503  1.3086  0.2899  1.5191
 6067TIP3   OH242395   7.536   0.848   1.178 -0.1418  0.1920  0.6616
 6067TIP3    H142396   7.501   0.891   1.100  0.0759  0.3683  0.6585
 6067TIP3    H242397   7.518   0.910   1.249 -1.7711 -0.6535  1.0315
 6068TIP3   OH242398   7.576   2.761   0.729 -0.6341 -0.2067 -0.4449
 6068TIP3    H142399   7.671   2.768   0.723 -0.7188  1.4105 -0.2949
 6068TIP3    H242400   7.560   2.703   0.803  0.2325 -0.4799 -0.4643
 6069TIP3   OH242401   0.684   5.388   1.961 -0.0968  0.3600  0.0938
 6069TIP3    H142402   0.740   5.464   1.974 -0.1696  0.5234 -0.5358
 6069TIP3    H242403   0.680   5.346   2.047  3.0020 -1.0869 -0.3341
 6070TIP3   OH242404   3.654   3.413   0.875 -0.0859 -0.5627 -0.3371
 6070TIP3    H142405   3.625   3.457   0.795  2.5595  2.7777  0.2959
 6070TIP3    H242406   3.749   3.409   0.867  0.4084  0.8745  2.9667
 6071TIP3   OH242407   0.396   4.390   2.079  0.1157 -0.2377 -0.3443
 6071TIP3    H142408   0.367   4.412   1.991 -2.8250  1.5570  0.9086
 6071TIP3    H242409   0.315   4.385   2.130  1.8118  0.7711  2.6711
 6072TIP3   OH242410   6.166   1.937   2.500 -0.2720  0.1460 -0.2324
 6072TIP3    H142411   6.139   2.025   2.475  1.4089  1.2846  1.6069
 6072TIP3    H242412   6.158   1.936   2.596 -1.3705 -2.1262 -0.2964
 6073TIP3   OH242413   6.863   2.863   1.214  0.0622 -0.4603 -0.1268
 6073TIP3    H142414   6.856   2.774   1.248  2.0344 -0.0569  1.6001
 6073TIP3    H242415   6.858   2.918   1.293  1.0733  0.7852 -0.8935
 6074TIP3   OH242416   7.047   2.950   1.026 -0.1698  0.3799 -0.3316
 6074TIP3    H142417   7.016   3.039   1.045 -0.2097  0.0359  1.4462
 6074TIP3    H242418   6.994   2.894   1.083 -0.6428 -0.8813 -1.9418
 6075TIP3   OH242419   7.638   5.069   1.066  0.3937 -0.3253  0.4773
 6075TIP3    H142420   7.718   5.107   1.030  0.7861 -0.2316  1.4399
 6075TIP3    H242421   7.601   5.138   1.121  0.6229 -0.9869  1.4915
 6076TIP3   OH242422   4.486   5.348   3.055 -0.2327  0.1984 -0.4211
 6076TIP3    H142423   4.554   5.371   3.119  0.9090  1.2510 -1.9317
 6076TIP3    H242424   4.480   5.253   3.059 -0.4346  0.2513  1.4536
 6077TIP3   OH242425   4.455   6.922   1.540  0.1781 -0.0244  0.0614
 6077TIP3    H142426   4.436   7.010   1.571  1.7461 -0.4495  2.4449
 6077TIP3    H242427   4.378   6.870   1.564  0.5489  0.0800  1.5475
 6078TIP3   OH242428   6.525   7.176   0.534 -0.0624 -0.6797 -0.4309
 6078TIP3    H142429   6.521   7.203   0.626 -1.9767  1.2664 -1.0196
 6078TIP3    H242430   6.451   7.115   0.524 -1.3181  0.8952 -1.1518
 6079TIP3   OH242431   2.039   4.488   1.866 -0.2213  0.0711  0.2798
 6079TIP3    H142432   2.068   4.506   1.956  0.6378  1.9194 -0.3194
 6079TIP3    H242433   1.968   4.550   1.851 -0.7690 -0.6444 -0.1464
 6080TIP3   OH242434   5.253   5.978   1.853  0.1733  0.2614 -0.0520
 6080TIP3    H142435   5.234   6.068   1.878 -2.6296  0.0058 -0.8291
 6080TIP3    H242436   5.223   5.971   1.762  2.3937 -0.9163 -0.7611
 6081TIP3   OH242437   1.924   1.736   3.234 -0.1743 -0.5112  0.0513
 6081TIP3    H142438   1.915   1.825   3.200 -1.1456 -0.6505 -0.0754
 6081TIP3    H242439   1.949   1.749   3.326 -0.2035 -0.1124  0.0066
 6082TIP3   OH242440   3.216   6.820   1.646  0.6576  0.0011  0.2279
 6082TIP3    H142441   3.173   6.855   1.568 -0.6410 -1.4882  0.2223
 6082TIP3    H242442   3.305   6.854   1.642  0.2612  0.9480 -1.2476
 6083TIP3   OH242443   2.292   3.191   2.570 -0.1341  0.1158  0.3773
 6083TIP3    H142444   2.235   3.118   2.593  1.8462 -1.6121  0.1245
 6083TIP3    H242445   2.270   3.211   2.479  0.8763 -1.8291 -0.3576
 6084TIP3   OH242446   1.010   2.521   1.484 -0.2036  0.0810  0.2615
 6084TIP3    H142447   1.038   2.588   1.546  1.8238  0.8772 -1.3815
 6084TIP3    H242448   1.069   2.531   1.410 -1.8416 -1.5296 -1.3646
 6085TIP3   OH242449   3.515   3.620   2.574 -0.1935 -0.2642 -0.4409
 6085TIP3    H142450   3.472   3.696   2.613  0.3257 -0.1360 -0.1045
 6085TIP3    H242451   3.455   3.592   2.505 -0.3405  0.5200 -0.6488
 6086TIP3   OH242452   6.333   4.398   3.111 -0.8723  0.4505 -0.5198
 6086TIP3    H142453   6.260   4.448   3.076  0.9386  1.4525 -3.1681
 6086TIP3    H242454   6.387   4.462   3.157 -1.0888 -0.0896  0.5257
 6087TIP3   OH242455   4.765   0.594   2.286 -0.3347 -0.1358 -0.0690
 6087TIP3    H142456   4.735   0.670   2.237 -1.7313 -0.7453 -0.2140
 6087TIP3    H242457   4.734   0.609   2.375  2.5169  1.1503  0.8156
 6088TIP3   OH242458   6.818   2.580   1.287  0.6872 -0.6329 -0.1052
 6088TIP3    H142459   6.824   2.496   1.241 -0.9804 -1.1663  0.5526
 6088TIP3    H242460   6.731   2.613   1.265  1.1148  0.6828  0.0801
 6089TIP3   OH242461   4.964   1.787   1.430 -0.1011  0.0628  0.2459
 6089TIP3    H142462   4.886   1.792   1.374 -1.1535  1.9546  1.7820
 6089TIP3    H242463   4.957   1.702   1.474 -0.6688 -0.2721 -0.4702
 6090TIP3   OH242464   4.612   2.421   0.468 -0.5340  0.2511  0.5174
 6090TIP3    H142465   4.691   2.412   0.523  0.8440 -0.3783 -1.4474
 6090TIP3    H242466   4.557   2.347   0.494  0.6138 -0.7284  0.2859
 6091TIP3   OH242467   4.186   0.583   2.625 -0.2290 -0.2258  0.2731
 6091TIP3    H142468   4.146   0.524   2.689 -0.1067  0.6439  1.1817
 6091TIP3    H242469   4.239   0.643   2.677  0.5963 -0.0475 -0.7342
 6092TIP3   OH242470   3.888   6.848   2.107 -0.1123  0.1860 -0.2185
 6092TIP3    H142471   3.888   6.789   2.032 -0.3160  0.1409 -0.1834
 6092TIP3    H242472   3.803   6.893   2.104  0.5428  1.4160 -0.9651
 6093TIP3   OH242473   7.419   3.423   1.322  0.6302  0.3108 -0.4485
 6093TIP3    H142474   7.403   3.515   1.343  1.6529  0.7832 -1.5781
 6093TIP3    H242475   7.369   3.408   1.241 -0.4088 -0.4551  0.3124
 6094TIP3   OH242476   1.030   6.617   1.287 -0.3003 -1.0575 -0.2278
 6094TIP3    H142477   1.018   6.681   1.357  1.4363  0.1152 -0.9160
 6094TIP3    H242478   1.111   6.572   1.310 -0.8801 -2.2003 -0.3714
 6095TIP3   OH242479   1.773   4.514   2.960 -0.0021  0.2088 -0.1399
 6095TIP3    H142480   1.730   4.584   3.008 -2.0554 -1.1715  0.1643
 6095TIP3    H242481   1.785   4.444   3.025 -1.0034 -0.9312 -1.1345
 6096TIP3   OH242482   3.022   5.445   2.670  0.0368 -0.0911  0.8453
 6096TIP3    H142483   2.970   5.369   2.648 -1.1573  1.0788 -0.5493
 6096TIP3    H242484   3.089   5.412   2.731  0.8148 -2.6418 -1.2211
 6097TIP3   OH242485   7.009   6.846   2.699  0.6401 -0.2251  0.6060
 6097TIP3    H142486   6.920   6.869   2.725  0.2112  3.0257 -2.8264
 6097TIP3    H242487   7.064   6.883   2.768 -0.5910  0.6802  1.1463
 6098TIP3   OH242488   4.565   2.891   2.224 -0.1502 -0.2350 -0.1067
 6098TIP3    H142489   4.628   2.821   2.238  0.1051  0.0898  0.3728
 6098TIP3    H242490   4.521   2.867   2.142  0.7671 -0.3392 -0.5875
 6099TIP3   OH242491   2.622   0.649   0.674  0.6204 -0.0613 -0.3569
 6099TIP3    H142492   2.623   0.703   0.595  1.2899 -0.0225 -0.3283
 6099TIP3    H242493   2.714   0.625   0.688  0.8148  1.3768  1.3876
 6100TIP3   OH242494   6.982   0.532   0.708  0.1326  0.0631 -0.0634
 6100TIP3    H142495   6.994   0.479   0.629 -1.4143  2.4133 -2.0325
 6100TIP3    H242496   6.922   0.481   0.762 -1.1093 -0.3704 -1.7576
 6101TIP3   OH242497   4.365   2.595   2.675  0.0402 -0.1150 -0.3309
 6101TIP3    H142498   4.386   2.502   2.664 -0.5307 -0.3421  0.4320
 6101TIP3    H242499   4.447   2.635   2.704  0.1788 -0.4540 -0.2525
 6102TIP3   OH242500   6.676   1.851   0.535 -0.2669  0.2215  0.7905
 6102TIP3    H142501   6.607   1.790   0.509 -0.3250 -0.4863  2.4682
 6102TIP3    H242502   6.758   1.803   0.522  0.2088  1.6572 -2.9316
 6103TIP3   OH242503   6.114   7.286   0.965  0.0093 -0.4953 -0.2164
 6103TIP3    H142504   6.068   7.301   1.047  0.6525 -1.0429  0.2475
 6103TIP3    H242505   6.191   7.235   0.989  0.0840 -0.8584 -1.1901
 6104TIP3   OH242506   7.403   5.968   1.100 -0.2349 -0.0599  0.0425
 6104TIP3    H142507   7.432   6.024   1.029  0.1952  0.4930  0.6415
 6104TIP3    H242508   7.449   6.001   1.177 -0.4243 -0.8659  0.5146
 6105TIP3   OH242509   6.656   1.477   0.561 -0.1885 -0.6488  0.2848
 6105TIP3    H142510   6.670   1.383   0.556  0.4492 -0.5614  0.3142
 6105TIP3    H242511   6.642   1.495   0.654  0.6520 -0.5961  0.4133
 6106TIP3   OH242512   4.631   4.467   1.493  0.0343  0.7268 -0.0643
 6106TIP3    H142513   4.684   4.499   1.420 -0.3326  1.1248 -0.1580
 6106TIP3    H242514   4.604   4.546   1.539 -0.7853  0.5450 -0.2286
 6107TIP3   OH242515   2.575   3.817   0.820  0.4000  0.1976  0.4192
 6107TIP3    H142516   2.534   3.863   0.747  0.1350 -0.9934 -0.2067
 6107TIP3    H242517   2.532   3.732   0.822  1.3727 -0.2992  1.0850
 6108TIP3   OH242518   4.281   6.921   1.906  0.3459  0.2194  0.3282
 6108TIP3    H142519   4.232   6.976   1.844  1.8692  1.2183 -0.0510
 6108TIP3    H242520   4.270   6.832   1.873  0.8692  0.6906 -1.2500
 6109TIP3   OH242521   1.204   2.026   2.053 -0.4609  0.1754 -0.6915
 6109TIP3    H142522   1.260   2.013   1.977  0.3242  0.1166 -0.1177
 6109TIP3    H242523   1.246   2.096   2.103 -0.7827 -0.0038 -0.1530
 6110TIP3   OH242524   2.603   5.868   1.957  0.1337  0.0488 -0.0451
 6110TIP3    H142525   2.630   5.960   1.954  1.2513 -0.2716 -0.4947
 6110TIP3    H242526   2.658   5.830   2.026  0.1120 -0.4072 -0.2781
 6111TIP3   OH242527   5.189   0.863   1.964  0.2993  0.3450  0.0026
 6111TIP3    H142528   5.210   0.872   2.057 -0.5957  0.3111  0.2140
 6111TIP3    H242529   5.274   0.865   1.920  0.9247 -1.8055  0.9941
 6112TIP3   OH242530   2.607   2.683   2.974 -0.4449 -0.3941  0.5859
 6112TIP3    H142531   2.644   2.748   3.033  0.0915  2.0605 -2.1768
 6112TIP3    H242532   2.514   2.708   2.966 -0.4853 -0.6279  0.3116
 6113TIP3   OH242533   5.279   4.076   1.038  1.1389  0.3190  0.1907
 6113TIP3    H142534   5.238   4.043   1.118  2.7013 -3.7811 -0.4550
 6113TIP3    H242535   5.212   4.069   0.971  1.2039 -0.9690  0.2380
 6114TIP3   OH242536   2.624   3.645   3.269 -0.2878  0.1997 -0.3371
 6114TIP3    H142537   2.564   3.570   3.275 -0.4895  0.4171  0.5648
 6114TIP3    H242538   2.567   3.719   3.252 -0.2528  0.3531  0.1767
 6115TIP3   OH242539   0.320   1.988   2.581 -0.0782 -0.3097 -0.1469
 6115TIP3    H142540   0.239   1.987   2.632 -0.7289  1.6322 -1.0402
 6115TIP3    H242541   0.303   1.929   2.508 -0.9881  0.5945 -0.6942
 6116TIP3   OH242542   3.677   1.689   1.152  0.3336 -0.1808  0.3857
 6116TIP3    H142543   3.751   1.735   1.191 -0.7003 -0.1368  2.4270
 6116TIP3    H242544   3.600   1.721   1.200 -0.9127 -0.8922 -1.0429
 6117TIP3   OH242545   6.031   3.665   1.002  0.2614 -0.1072  0.0849
 6117TIP3    H142546   6.007   3.739   1.057  2.3672  1.7143 -1.2900
 6117TIP3    H242547   6.126   3.658   1.012  0.6675  0.0133 -2.8941
 6118TIP3   OH242548   3.501   0.641   1.952 -0.0956 -0.2206 -0.0234
 6118TIP3    H142549   3.476   0.549   1.944  0.4990 -0.5859  1.7395
 6118TIP3    H242550   3.456   0.685   1.880  0.2783 -2.0021 -1.4196
 6119TIP3   OH242551   5.680   7.119   2.520  0.1732  0.4966  0.7238
 6119TIP3    H142552   5.693   7.186   2.452  1.7008 -0.9416 -0.4940
 6119TIP3    H242553   5.660   7.169   2.599 -0.8432  2.2769 -0.5801
 6120TIP3   OH242554   6.184   1.302   2.071  0.1683  0.0738  0.0949
 6120TIP3    H142555   6.183   1.209   2.049  1.2954  0.0359  0.1166
 6120TIP3    H242556   6.238   1.342   2.002 -2.7139  1.2254 -1.6661
 6121TIP3   OH242557   3.715   4.555   2.081 -0.0689 -0.1764 -0.7560
 6121TIP3    H142558   3.734   4.646   2.058 -1.0951 -0.0237 -1.0242
 6121TIP3    H242559   3.798   4.522   2.114  1.0538  0.0716 -3.1209
 6122TIP3   OH242560   6.045   0.908   2.443  0.4484  0.4381 -0.0073
 6122TIP3    H142561   6.125   0.913   2.390  0.0196  0.0421 -0.6997
 6122TIP3    H242562   5.976   0.888   2.380 -0.2921  1.3382  0.5059
 6123TIP3   OH242563   2.326   2.820   1.957  0.0339 -0.1740 -0.6726
 6123TIP3    H142564   2.236   2.794   1.978 -0.6532  2.1155 -0.5207
 6123TIP3    H242565   2.345   2.892   2.017  2.1826 -0.9118 -0.3828
 6124TIP3   OH242566   5.627   2.396   2.826 -0.2587 -0.0414  0.0212
 6124TIP3    H142567   5.571   2.391   2.904  1.9910  0.2140  1.7802
 6124TIP3    H242568   5.684   2.319   2.833  0.9009  0.7401 -0.6036
 6125TIP3   OH242569   1.540   5.078   1.104  0.1278 -0.1076 -0.3537
 6125TIP3    H142570   1.611   5.136   1.130  0.5981 -0.8856  0.1250
 6125TIP3    H242571   1.493   5.059   1.185 -2.3951  2.6159 -0.9864
 6126TIP3   OH242572   7.017   1.167   1.982 -0.7041 -0.1495 -0.5221
 6126TIP3    H142573   7.012   1.233   2.051 -0.3721  1.1215 -1.6701
 6126TIP3    H242574   7.106   1.175   1.946  0.5923 -3.5354  1.4633
 6127TIP3   OH242575   3.995   4.706   2.565 -0.3293 -0.5148 -0.4827
 6127TIP3    H142576   3.978   4.644   2.494 -2.5759 -1.1696  0.5424
 6127TIP3    H242577   4.029   4.652   2.637  0.1231 -0.1519 -0.4156
 6128TIP3   OH242578   5.279   5.313   2.472 -0.0636 -0.5103  0.1669
 6128TIP3    H142579   5.366   5.289   2.505  0.2548  0.5523  0.1314
 6128TIP3    H242580   5.245   5.374   2.537 -1.5048 -2.1824  1.0581
 6129TIP3   OH242581   0.380   7.248   1.987  0.0423  0.1835 -0.3056
 6129TIP3    H142582   0.397   7.272   2.079 -0.6545 -1.4259  0.2850
 6129TIP3    H242583   0.439   7.174   1.971  0.1296  0.4325 -1.1486
 6130TIP3   OH242584   1.317   4.561   2.415  0.0434  0.3478 -0.2984
 6130TIP3    H142585   1.298   4.647   2.379  0.3251  0.4098 -0.3068
 6130TIP3    H242586   1.234   4.515   2.415 -0.3586  1.0188  0.7900
 6131TIP3   OH242587   4.332   4.564   2.088  0.0546 -0.2132  0.8253
 6131TIP3    H142588   4.403   4.533   2.145  0.6950  0.6197  0.4947
 6131TIP3    H242589   4.324   4.657   2.106 -1.2132 -0.3598  1.1127
 6132TIP3   OH242590   4.599   1.833   1.727 -0.7698  0.2853  0.3538
 6132TIP3    H142591   4.593   1.908   1.668  0.1733  0.5465  0.5651
 6132TIP3    H242592   4.649   1.768   1.678  0.6223  0.7644  1.0933
 6133TIP3   OH242593   4.878   6.115   2.332  0.3751  0.5403  0.3091
 6133TIP3    H142594   4.915   6.033   2.297  1.7277  1.8642 -1.5708
 6133TIP3    H242595   4.815   6.086   2.397  1.3677 -1.9916  0.2861
 6134TIP3   OH242596   5.310   3.010   0.966 -0.4335  0.0935  0.8094
 6134TIP3    H142597   5.325   3.001   0.872  1.9533  1.7667  0.9278
 6134TIP3    H242598   5.215   3.005   0.977 -0.6839 -1.5264 -1.4828
 6135TIP3   OH242599   7.354   2.509   3.008 -0.5764 -0.0423 -0.3261
 6135TIP3    H142600   7.339   2.440   2.944 -1.5453  0.5010 -0.7055
 6135TIP3    H242601   7.338   2.467   3.092 -0.1789 -0.5304 -0.4888
 6136TIP3   OH242602   3.128   2.935   0.955  0.5795  0.0332  0.1120
 6136TIP3    H142603   3.142   3.026   0.980  1.3227 -0.2332  0.7035
 6136TIP3    H242604   3.125   2.887   1.037 -0.3429 -0.4150 -0.1718
 6137TIP3   OH242605   7.271   7.087   1.145 -0.2909  0.3729 -0.3206
 6137TIP3    H142606   7.350   7.141   1.140 -0.2724  0.2347 -2.2921
 6137TIP3    H242607   7.291   7.010   1.092 -1.7870  0.3934 -0.9563
 6138TIP3   OH242608   7.439   0.798   0.614  0.2440  0.0805 -0.2822
 6138TIP3    H142609   7.460   0.706   0.595  0.2922  0.1251 -0.4426
 6138TIP3    H242610   7.344   0.800   0.618  0.2249  0.0985 -0.6665
 6139TIP3   OH242611   4.328   4.182   1.141  0.1511 -0.0600  0.2198
 6139TIP3    H142612   4.357   4.091   1.136  0.1647  0.0312 -2.4921
 6139TIP3    H242613   4.407   4.234   1.123 -0.1814  0.4503  0.1978
 6140TIP3   OH242614   3.727   4.179   2.860  0.0847  0.7651  0.2220
 6140TIP3    H142615   3.759   4.130   2.936  1.7742 -0.2052 -1.0636
 6140TIP3    H242616   3.672   4.116   2.813  0.1712  0.9185 -0.0825
 6141TIP3   OH242617   1.871   4.235   2.154 -0.4139  0.1721  0.1802
 6141TIP3    H142618   1.861   4.325   2.183 -1.0661 -0.0471  0.6676
 6141TIP3    H242619   1.880   4.241   2.059  0.6034  0.8151  0.3020
 6142TIP3   OH242620   7.348   7.559   2.531  0.2540 -0.8600 -0.4203
 6142TIP3    H142621   7.349   7.613   2.611 -0.0835  0.1860 -1.0930
 6142TIP3    H242622   7.287   7.488   2.551 -2.0911  0.9416 -0.6602
 6143TIP3   OH242623   6.345   1.643   0.828 -0.1944 -0.3719  0.3135
 6143TIP3    H142624   6.344   1.602   0.915 -0.6488  0.7017  0.8452
 6143TIP3    H242625   6.327   1.736   0.846  2.7056  0.4602 -0.6308
 6144TIP3   OH242626   7.172   5.427   1.053 -0.2641 -0.5629 -0.0091
 6144TIP3    H142627   7.098   5.466   1.007 -0.3133  0.0922  0.6054
 6144TIP3    H242628   7.134   5.361   1.111 -0.5840  0.8923  1.5247
 6145TIP3   OH242629   4.604   0.368   1.662  0.0255 -0.1990 -0.5366
 6145TIP3    H142630   4.567   0.292   1.616  1.6983 -2.2111  1.1829
 6145TIP3    H242631   4.549   0.377   1.740  0.0238  0.1331 -0.5782
 6146TIP3   OH242632   3.086   3.213   0.589 -0.1120  0.1239  0.1559
 6146TIP3    H142633   3.066   3.278   0.657 -0.1277 -2.7882  3.1691
 6146TIP3    H242634   3.001   3.184   0.558 -0.1122  0.8903 -0.6085
 6147TIP3   OH242635   6.280   2.200   0.655  0.1776  0.1446  0.6604
 6147TIP3    H142636   6.375   2.210   0.649  0.1234  0.1890 -0.2686
 6147TIP3    H242637   6.267   2.114   0.694  0.6056 -0.4828 -0.5255
 6148TIP3   OH242638   0.112   3.765   2.019  0.6552  0.1077 -0.3195
 6148TIP3    H142639   0.100   3.678   1.983  0.2893 -0.5908  1.3856
 6148TIP3    H242640   0.117   3.823   1.943  0.9943 -1.4013 -1.4740
 6149TIP3   OH242641   3.377   0.100   2.384 -0.0841  0.1865  0.1365
 6149TIP3    H142642   3.442   0.115   2.315 -0.7482  0.3485 -0.4633
 6149TIP3    H242643   3.340   0.014   2.364  0.4985 -0.2648  0.9410
 6150TIP3   OH242644   6.379   2.289   2.110 -0.1626  0.5286 -0.6322
 6150TIP3    H142645   6.299   2.291   2.057 -0.0569  2.4978 -0.7598
 6150TIP3    H242646   6.362   2.348   2.183 -0.1421 -1.7952  1.4097
 6151TIP3   OH242647   7.623   6.475   3.034  0.4071  0.0644 -0.0954
 6151TIP3    H142648   7.710   6.451   3.067  0.1162 -1.5553 -0.4233
 6151TIP3    H242649   7.564   6.411   3.075 -0.5257  0.6513 -0.4955
 6152TIP3   OH242650   4.440   1.829   1.965 -0.2808  0.0239 -0.2853
 6152TIP3    H142651   4.497   1.821   1.888 -0.4933 -1.0336 -0.3463
 6152TIP3    H242652   4.375   1.895   1.939  0.1323  0.2737 -0.7054
 6153TIP3   OH242653   2.031   7.669   1.472 -0.2243 -0.1915 -0.8242
 6153TIP3    H142654   1.944   7.648   1.435 -0.7030 -0.9297  0.6502
 6153TIP3    H242655   2.092   7.639   1.405 -1.0926 -0.3737 -1.5627
 6154TIP3   OH242656   3.701   0.659   2.834  0.2271 -0.3484 -0.0385
 6154TIP3    H142657   3.741   0.572   2.826  1.4348  0.0480  1.3220
 6154TIP3    H242658   3.642   0.651   2.909  0.0759 -0.0728 -0.1274
 6155TIP3   OH242659   4.384   0.661   1.212  0.0788 -0.2149  0.1401
 6155TIP3    H142660   4.308   0.709   1.179  0.6050 -0.2409 -1.1771
 6155TIP3    H242661   4.349   0.604   1.280 -1.2301 -0.7684 -0.9472
 6156TIP3   OH242662   2.491   2.323   0.840 -0.0085 -0.0579  0.2907
 6156TIP3    H142663   2.442   2.241   0.843  1.4635 -1.0666 -1.2062
 6156TIP3    H242664   2.557   2.314   0.909  0.2845 -0.2405 -0.0093
 6157TIP3   OH242665   1.238   0.828   1.640  0.1649  0.1126  0.1842
 6157TIP3    H142666   1.182   0.861   1.570  0.1118  0.0545  0.1992
 6157TIP3    H242667   1.325   0.862   1.619 -0.0943  1.1892  0.7932
 6158TIP3   OH242668   6.052   5.210   1.565  0.1191  0.0827  0.5348
 6158TIP3    H142669   6.025   5.286   1.513  2.1620  2.3268  2.5210
 6158TIP3    H242670   6.004   5.219   1.648  0.5628 -0.6850  0.8904
 6159TIP3   OH242671   3.257   0.996   3.096  0.0213  0.8477  0.0306
 6159TIP3    H142672   3.247   1.085   3.129  0.8595  2.6715 -3.9751
 6159TIP3    H242673   3.351   0.987   3.078 -0.1959 -0.4460 -0.6248
 6160TIP3   OH242674   1.478   6.608   1.475 -0.1481 -0.5193 -0.2650
 6160TIP3    H142675   1.560   6.615   1.525 -1.0733  1.3391  1.1185
 6160TIP3    H242676   1.447   6.699   1.469 -1.8492 -1.1353 -1.1974
 6161TIP3   OH242677   7.287   6.429   1.316 -0.8633 -0.1656 -0.2641
 6161TIP3    H142678   7.362   6.369   1.313  0.0828  0.9087  0.7158
 6161TIP3    H242679   7.325   6.515   1.298 -1.6687  0.5428  1.2254
 6162TIP3   OH242680   7.125   1.928   2.480 -0.1793  0.5957 -0.1600
 6162TIP3    H142681   7.097   1.851   2.431  0.3092  1.0066 -1.1028
 6162TIP3    H242682   7.218   1.913   2.498 -0.6837 -0.2940  2.0734
 6163TIP3   OH242683   5.262   2.786   2.232  0.0907 -0.1028 -0.4259
 6163TIP3    H142684   5.257   2.862   2.173  1.2517 -1.2170 -2.0480
 6163TIP3    H242685   5.354   2.761   2.230 -0.1726 -1.2018  0.5546
 6164TIP3   OH242686   4.213   2.766   2.504  0.0119  0.2069 -0.0591
 6164TIP3    H142687   4.282   2.719   2.552 -0.1223  0.4391  0.3634
 6164TIP3    H242688   4.132   2.744   2.551 -0.1037  0.5367 -0.1010
 6165TIP3   OH242689   7.163   1.640   0.595 -0.0678 -0.4902  0.3099
 6165TIP3    H142690   7.176   1.734   0.585 -0.6698 -0.1325  2.5144
 6165TIP3    H242691   7.232   1.601   0.541 -0.1892  1.1649 -1.1394
 6166TIP3   OH242692   2.111   2.076   1.689 -0.2665 -0.0995 -0.3460
 6166TIP3    H142693   2.199   2.056   1.721 -0.2510 -1.3371 -1.0834
 6166TIP3    H242694   2.105   2.028   1.606 -1.1944  0.9740 -0.9194
 6167TIP3   OH242695   5.553   2.328   1.987 -0.1852  0.7961 -0.4213
 6167TIP3    H142696   5.629   2.354   2.039  1.6193 -1.5280 -1.7074
 6167TIP3    H242697   5.579   2.344   1.897 -0.5740 -1.4990 -0.9807
 6168TIP3   OH242698   6.812   0.567   1.086 -0.1420  0.3683  0.2691
 6168TIP3    H142699   6.721   0.587   1.108 -0.3050 -0.7455  0.6672
 6168TIP3    H242700   6.807   0.517   1.004 -0.0955 -1.6063  1.4086
 6169TIP3   OH242701   0.568   1.230   7.515  0.0809  0.1943 -0.5849
 6169TIP3    H142702   0.580   1.136   7.525 -0.7543  0.2032  0.7968
 6169TIP3    H242703   0.595   1.267   7.600 -2.2950  0.8786 -0.0384
 6170TIP3   OH242704   7.053   4.597   1.552  0.4790  0.8799  0.0626
 6170TIP3    H142705   6.978   4.539   1.562 -0.3351  1.8515 -0.3066
 6170TIP3    H242706   7.035   4.647   1.473  2.4610 -0.2341 -1.2037
 6171TIP3   OH242707   7.571   2.305   1.240 -0.4389 -0.1559  0.0353
 6171TIP3    H142708   7.602   2.255   1.315 -1.5891  0.6496  1.0844
 6171TIP3    H242709   7.522   2.241   1.187 -0.7551 -0.4498  0.6678
 6172TIP3   OH242710   1.919   7.452   0.654  0.6368 -0.5143 -0.2208
 6172TIP3    H142711   1.958   7.368   0.677 -0.9686 -1.0997  0.4740
 6172TIP3    H242712   1.827   7.433   0.639  0.1796  1.1555  0.2491
 6173TIP3   OH242713   0.364   5.055   0.693 -0.1936 -0.1376  0.3724
 6173TIP3    H142714   0.329   4.992   0.630  0.0816 -0.4785  0.5561
 6173TIP3    H242715   0.436   5.009   0.735  0.4970  0.5696 -0.0195
 6174TIP3   OH242716   0.234   5.507   1.278  0.4921 -0.0713  0.4071
 6174TIP3    H142717   0.275   5.424   1.254  0.4053 -0.1512  0.5358
 6174TIP3    H242718   0.160   5.483   1.333  0.1761  0.0646  0.0478
 6175TIP3   OH242719   5.802   2.378   0.773 -0.3712  0.5811 -0.0739
 6175TIP3    H142720   5.768   2.453   0.725  1.1109  1.4184  0.1270
 6175TIP3    H242721   5.897   2.391   0.774 -0.2679  0.1058  2.2403
 6176TIP3   OH242722   5.428   1.980   0.690 -0.1268  0.0369  0.1258
 6176TIP3    H142723   5.504   2.035   0.711  0.6192 -0.5504 -0.9266
 6176TIP3    H242724   5.382   2.030   0.622  0.6238 -0.6660 -0.9262
 6177TIP3   OH242725   3.671   1.761   1.943  0.0133 -0.8764  0.2661
 6177TIP3    H142726   3.728   1.706   1.997 -1.0351 -1.4356  0.8325
 6177TIP3    H242727   3.640   1.702   1.874  2.4502  0.1611 -1.8839
 6178TIP3   OH242728   4.710   5.943   0.983 -0.2574  0.6944  0.5386
 6178TIP3    H142729   4.637   5.902   1.028 -0.0297 -2.4146 -1.6565
 6178TIP3    H242730   4.671   6.011   0.929 -1.6361 -0.9560 -0.6462
 6179TIP3   OH242731   6.653   4.957   2.000 -0.5989  0.1047  0.3016
 6179TIP3    H142732   6.564   4.953   1.965 -0.3622 -0.6500 -0.2497
 6179TIP3    H242733   6.707   4.917   1.932  0.5707  2.9999 -0.6482
 6180TIP3   OH242734   5.031   5.994   0.764  0.1433 -0.3291 -0.1602
 6180TIP3    H142735   4.997   6.082   0.750 -2.6301 -1.4214 -0.7833
 6180TIP3    H242736   4.990   5.965   0.845 -0.6279 -1.7841 -1.0392
 6181TIP3   OH242737   7.071   4.240   1.747 -0.2186 -0.1094  0.4296
 6181TIP3    H142738   7.077   4.274   1.836 -0.4207 -1.6452  1.0671
 6181TIP3    H242739   7.161   4.225   1.720 -0.1121  1.1695  0.0241
 6182TIP3   OH242740   4.361   5.888   2.075 -0.3589 -0.2328 -0.0007
 6182TIP3    H142741   4.356   5.951   2.147  2.9015  1.9822 -1.4586
 6182TIP3    H242742   4.402   5.810   2.114 -1.5558 -0.3435  1.1352
 6183TIP3   OH242743   3.255   7.496   1.604 -0.0812  0.5232 -0.6001
 6183TIP3    H142744   3.193   7.449   1.548  0.5446 -0.3380 -0.5933
 6183TIP3    H242745   3.341   7.473   1.568  0.3275  0.0370  0.6547
 6184TIP3   OH242746   1.828   6.631   3.111  0.0080 -0.2090  0.1909
 6184TIP3    H142747   1.859   6.721   3.119 -1.4827  0.2922  0.6116
 6184TIP3    H242748   1.898   6.585   3.064  0.9885  1.0483  0.3814
 6185TIP3   OH242749   2.920   5.664   0.761 -0.1342 -0.4076 -0.0703
 6185TIP3    H142750   2.873   5.629   0.836 -1.8876  2.9392  0.5627
 6185TIP3    H242751   2.859   5.656   0.688 -0.0386  0.0687 -0.2082
 6186TIP3   OH242752   3.481   6.985   0.674  0.0680  0.2595 -0.2957
 6186TIP3    H142753   3.489   6.895   0.640 -3.3074 -0.7704  1.1279
 6186TIP3    H242754   3.505   6.978   0.766  0.2240  0.9435 -0.2797
 6187TIP3   OH242755   5.159   5.622   1.195 -0.3830 -0.3210  0.2119
 6187TIP3    H142756   5.224   5.552   1.200 -1.3329 -1.1916  1.0424
 6187TIP3    H242757   5.172   5.673   1.275 -0.7918 -0.5914  0.4607
 6188TIP3   OH242758   2.754   6.880   2.904  0.3097 -0.4238 -0.4414
 6188TIP3    H142759   2.696   6.949   2.935  0.2120 -0.6648 -0.0818
 6188TIP3    H242760   2.701   6.828   2.844  0.1472 -0.6644 -0.0861
 6189TIP3   OH242761   0.436   1.944   2.901  0.0585 -0.1879  0.0286
 6189TIP3    H142762   0.439   1.881   2.973  0.6009  1.0823  1.1567
 6189TIP3    H242763   0.502   2.009   2.923 -1.0895  1.2621 -0.6351
 6190TIP3   OH242764   4.683   6.079   2.873  0.3917 -0.3573  0.5439
 6190TIP3    H142765   4.757   6.129   2.838 -0.8227  1.0954 -0.0561
 6190TIP3    H242766   4.689   5.994   2.829  1.6180 -0.2249  0.4225
 6191TIP3   OH242767   5.948   2.022   2.234  0.6825 -0.2056 -0.2143
 6191TIP3    H142768   5.970   2.112   2.260 -2.2018  1.5434 -3.1803
 6191TIP3    H242769   6.032   1.983   2.211  2.0724  1.5396  1.5166
 6192TIP3   OH242770   5.538   0.027   1.947 -0.5193 -0.0369 -0.1966
 6192TIP3    H142771   5.481   0.082   1.894  0.7512  0.9547 -0.5631
 6192TIP3    H242772   5.478  -0.038   1.986 -1.8861  0.9513 -0.5636
 6193TIP3   OH242773   4.938   1.538   2.218 -0.8913  0.5516 -0.1870
 6193TIP3    H142774   4.853   1.581   2.224 -0.9494  0.4056  0.0257
 6193TIP3    H242775   4.928   1.477   2.145 -0.5544  1.4708 -1.0273
 6194TIP3   OH242776   2.444   7.193   1.455 -0.0007  0.0804  0.2115
 6194TIP3    H142777   2.516   7.253   1.477 -0.4247  1.7881 -2.5436
 6194TIP3    H242778   2.405   7.231   1.376 -1.5662 -2.8341 -0.5488
 6195TIP3   OH242779   5.420   7.121   1.386 -0.0428  0.2800  0.3181
 6195TIP3    H142780   5.453   7.152   1.302  1.7724  1.0321  1.2582
 6195TIP3    H242781   5.325   7.121   1.376 -0.0645 -4.8002 -3.5472
 6196TIP3   OH242782   1.575   6.182   2.098 -0.0452  0.1689  0.0797
 6196TIP3    H142783   1.617   6.096   2.104  1.1315  0.4432 -2.6238
 6196TIP3    H242784   1.481   6.163   2.102  0.2130 -1.1426  0.4325
 6197TIP3   OH242785   1.960   0.412   3.701  0.1203 -0.0560  0.5249
 6197TIP3    H142786   1.882   0.439   3.652 -1.7823 -1.3714  2.5971
 6197TIP3    H242787   1.953   0.317   3.707  1.9033 -0.2042  0.7976
 6198TIP3   OH242788   6.586   1.107   2.208 -0.0633 -0.0050 -0.7651
 6198TIP3    H142789   6.640   1.121   2.130  1.6694  0.0709  0.3934
 6198TIP3    H242790   6.535   1.029   2.188  1.5559 -0.9578 -1.3776
 6199TIP3   OH242791   6.948   7.555   3.653  0.0765 -0.0306  0.1826
 6199TIP3    H142792   6.885   7.527   3.720 -0.3640  2.0360  0.7096
 6199TIP3    H242793   6.951   7.483   3.591  0.4037 -1.9771  2.3395
 6200TIP3   OH242794   0.121   7.403   1.148 -0.1119 -0.0937  0.3298
 6200TIP3    H142795   0.084   7.426   1.063 -0.2996 -0.4874  0.3024
 6200TIP3    H242796   0.051   7.422   1.211  0.7773  2.3545  0.6778
 6201TIP3   OH242797   4.498   3.900   1.118  0.3368  0.0738 -0.5395
 6201TIP3    H142798   4.427   3.838   1.136  0.4281 -0.1488 -0.9213
 6201TIP3    H242799   4.576   3.860   1.158  0.5384 -0.4172 -1.3847
 6202TIP3   OH242800   2.992   6.888   0.810  0.4360  0.3870 -0.1057
 6202TIP3    H142801   3.064   6.881   0.747 -1.7965  0.3337 -2.8490
 6202TIP3    H242802   2.961   6.798   0.822 -0.0450  0.5647 -0.0104
 6203TIP3   OH242803   6.103   5.578   0.719  0.3162  0.7756 -0.3619
 6203TIP3    H142804   6.030   5.626   0.757  1.0146  0.6546  1.2229
 6203TIP3    H242805   6.135   5.523   0.791  0.6901 -0.6850 -1.6085
 6204TIP3   OH242806   2.617   2.184   2.862  0.0657  0.3934  0.5638
 6204TIP3    H142807   2.689   2.134   2.823 -0.7261  0.3479 -0.9515
 6204TIP3    H242808   2.658   2.263   2.897  1.0473 -0.3477  1.1413
 6205TIP3   OH242809   3.115   1.224   3.190 -0.2168  0.4201 -0.5072
 6205TIP3    H142810   3.039   1.219   3.248  1.4669  1.2462  1.9341
 6205TIP3    H242811   3.098   1.300   3.135 -1.7272 -0.1937 -0.9413
 6206TIP3   OH242812   0.580   0.450   1.112 -0.6772 -0.1314  0.5302
 6206TIP3    H142813   0.501   0.432   1.062  0.3909  0.7424 -1.5934
 6206TIP3    H242814   0.650   0.406   1.064  0.4533  1.0292  1.0472
 6207TIP3   OH242815   5.503   3.743   2.238 -0.9111  0.0902  0.4121
 6207TIP3    H142816   5.496   3.653   2.206 -0.1828  0.7893 -1.9346
 6207TIP3    H242817   5.415   3.765   2.268 -1.2242 -1.2319  0.4975
 6208TIP3   OH242818   3.407   3.532   1.573 -0.1630 -0.3173 -0.0082
 6208TIP3    H142819   3.337   3.570   1.626 -1.5428 -1.3682 -1.0289
 6208TIP3    H242820   3.447   3.467   1.630  0.1558  0.4392  0.6558
 6209TIP3   OH242821   2.991   7.274   1.208  0.0633 -0.0926 -0.0423
 6209TIP3    H142822   3.012   7.212   1.139  1.5500  2.6716 -2.2533
 6209TIP3    H242823   2.907   7.312   1.183  0.3727  0.5687 -0.1251
 6210TIP3   OH242824   2.592   6.013   0.996  0.3015  0.5313 -0.0136
 6210TIP3    H142825   2.648   5.955   0.944 -0.5946  0.7772 -1.2887
 6210TIP3    H242826   2.595   5.976   1.085 -0.4007 -1.6053 -0.8159
 6211TIP3   OH242827   4.239   7.362   2.545 -0.0308 -0.1627 -0.1631
 6211TIP3    H142828   4.153   7.400   2.563  0.6582  0.9737  0.9321
 6211TIP3    H242829   4.237   7.277   2.589 -0.3851  0.1253  0.3984
 6212TIP3   OH242830   0.465   0.348   2.614  0.0632 -0.6227 -0.1253
 6212TIP3    H142831   0.551   0.352   2.655 -0.4980 -0.3450  1.0751
 6212TIP3    H242832   0.455   0.432   2.570  0.9635 -1.1978 -1.4939
 6213TIP3   OH242833   0.930   5.893   0.753  0.0226 -0.4393  0.1878
 6213TIP3    H142834   0.989   5.965   0.730  1.7253 -1.6377  0.6589
 6213TIP3    H242835   0.898   5.915   0.840  0.1155 -0.0061  0.1166
 6214TIP3   OH242836   5.228   7.272   1.082  0.4064  0.3238  0.7311
 6214TIP3    H142837   5.151   7.265   1.025  0.0780  0.3994  1.1606
 6214TIP3    H242838   5.193   7.304   1.166  1.0299  1.1711  0.6745
 6215TIP3   OH242839   7.249   2.008   1.796 -0.0654  0.0307 -0.3195
 6215TIP3    H142840   7.252   2.103   1.786 -0.4959  0.1401  0.4476
 6215TIP3    H242841   7.306   1.975   1.728 -2.5618  0.6632 -2.9052
 6216TIP3   OH242842   7.259   4.252   2.026  0.5590 -0.0947 -0.4922
 6216TIP3    H142843   7.343   4.224   1.989  1.0416  1.0007 -0.2732
 6216TIP3    H242844   7.225   4.175   2.070  1.5692 -0.4908 -0.3799
 6217TIP3   OH242845   3.703   7.605   2.326 -0.1833  0.3300  0.7989
 6217TIP3    H142846   3.737   7.517   2.311  0.6966  0.3645  2.3418
 6217TIP3    H242847   3.679   7.637   2.239 -1.5362 -1.8095  0.3285
 6218TIP3   OH242848   2.998   2.649   0.541 -1.1821 -0.3786  0.1402
 6218TIP3    H142849   2.926   2.707   0.519 -1.0896 -0.6606 -0.9793
 6218TIP3    H242850   2.959   2.580   0.595 -1.5062  0.1166  0.5380
 6219TIP3   OH242851   4.804   6.326   2.548  0.1263 -0.3882  0.1163
 6219TIP3    H142852   4.822   6.356   2.459 -0.2413 -0.5333 -0.0088
 6219TIP3    H242853   4.880   6.273   2.572 -0.3856 -1.4998 -0.6297
 6220TIP3   OH242854   4.540   2.809   1.330  0.2120 -0.3285 -0.4916
 6220TIP3    H142855   4.577   2.856   1.405 -0.6190 -1.7872  0.8880
 6220TIP3    H242856   4.610   2.810   1.264  0.8111  1.3477  0.1186
 6221TIP3   OH242857   5.203   3.641   1.958 -0.2042 -0.1672 -0.7194
 6221TIP3    H142858   5.247   3.582   2.019  0.2664 -0.2390 -1.1150
 6221TIP3    H242859   5.121   3.664   2.001 -0.6432 -1.5264 -0.7745
 6222TIP3   OH242860   5.234   4.758   1.080 -0.2792  0.2988 -0.2921
 6222TIP3    H142861   5.292   4.771   1.006 -0.2542  0.4768 -0.2425
 6222TIP3    H242862   5.168   4.828   1.072  0.2375  0.8827  0.3429
 6223TIP3   OH242863   4.076   4.251   1.212 -0.3504 -0.2152  0.1673
 6223TIP3    H142864   4.027   4.168   1.214 -0.7679 -0.0159 -0.9748
 6223TIP3    H242865   4.167   4.225   1.198 -0.5649 -0.4673 -0.8313
 6224TIP3   OH242866   6.695   1.494   0.853  0.0983  0.3085 -0.2247
 6224TIP3    H142867   6.690   1.498   0.948 -1.1241 -1.6314 -0.1318
 6224TIP3    H242868   6.770   1.437   0.835 -1.1614 -1.4470 -0.2580
 6225TIP3   OH242869   3.275   6.167   3.125 -0.0293 -0.5899  0.5158
 6225TIP3    H142870   3.329   6.095   3.157  0.1547 -1.6345 -1.9392
 6225TIP3    H242871   3.206   6.176   3.191 -0.2535 -3.2437  0.7526
 6226TIP3   OH242872   4.546   4.949   1.126  0.0576  0.4742  0.4697
 6226TIP3    H142873   4.450   4.945   1.129  0.0091  0.3431 -0.6872
 6226TIP3    H242874   4.568   5.035   1.161 -0.5752  1.0489 -0.4904
 6227TIP3   OH242875   0.965   5.338   2.796 -0.0984 -0.3732  0.0009
 6227TIP3    H142876   0.880   5.379   2.814  0.5121  0.5416  0.9453
 6227TIP3    H242877   1.029   5.399   2.834  1.0119 -0.8103 -1.1189
 6228TIP3   OH242878   2.487   4.660   1.835 -0.3998  0.0984  0.3360
 6228TIP3    H142879   2.407   4.609   1.817 -1.0467  1.7594 -1.9703
 6228TIP3    H242880   2.455   4.747   1.858  0.7498  0.2757  1.3561
 6229TIP3   OH242881   0.891   1.770   2.409 -0.2668  0.4954 -0.0192
 6229TIP3    H142882   0.949   1.815   2.472  2.1811 -1.6953 -0.5198
 6229TIP3    H242883   0.928   1.792   2.323 -1.4628  0.6723 -0.5014
 6230TIP3   OH242884   0.237   2.793   2.523  0.6574 -0.0269 -0.2622
 6230TIP3    H142885   0.155   2.830   2.556  2.2322  1.2732  2.6028
 6230TIP3    H242886   0.284   2.867   2.486  0.9070 -0.6108 -1.1501
 6231TIP3   OH242887   2.112   0.226   2.966 -0.0100  0.1473 -0.3499
 6231TIP3    H142888   2.162   0.185   2.895 -0.8073 -0.3596 -0.6359
 6231TIP3    H242889   2.143   0.316   2.967  0.2830  0.0682 -1.1011
 6232TIP3   OH242890   0.929   1.740   1.856 -0.0440 -0.0038 -0.1525
 6232TIP3    H142891   0.955   1.832   1.849 -1.3471  0.5121  1.2782
 6232TIP3    H242892   0.903   1.716   1.767 -2.3232  1.8905 -0.1019
 6233TIP3   OH242893   2.937   2.563   1.643 -0.5798 -0.1878  0.9016
 6233TIP3    H142894   2.998   2.632   1.619 -1.1958 -0.4255 -1.6335
 6233TIP3    H242895   2.859   2.579   1.589 -1.0255 -2.3772  0.7792
 6234TIP3   OH242896   0.202   5.220   0.911 -0.0906  0.7953  0.2168
 6234TIP3    H142897   0.224   5.256   0.825  0.8922  1.6504  0.8121
 6234TIP3    H242898   0.270   5.253   0.969  0.8864 -2.0175  0.8225
 6235TIP3   OH242899   7.360   5.615   1.190 -0.0479 -0.0680  0.0979
 6235TIP3    H142900   7.327   5.622   1.280  0.9107 -1.1456  0.5582
 6235TIP3    H242901   7.299   5.556   1.147  0.4623 -0.9508  0.5543
 6236TIP3   OH242902   3.228   7.382   3.123 -0.0180  0.2389 -0.4615
 6236TIP3    H142903   3.178   7.390   3.204 -0.7006 -0.0280 -0.8506
 6236TIP3    H242904   3.185   7.312   3.075  1.3965 -0.7585 -0.3407
 6237TIP3   OH242905   0.152   5.006   2.030  0.1136  0.0287 -0.1062
 6237TIP3    H142906   0.092   5.036   2.098  0.6064  2.3371 -0.6247
 6237TIP3    H242907   0.185   4.922   2.063 -1.0822  0.1626  1.5831
 6238TIP3   OH242908   6.821   6.476   2.213 -0.2611 -0.2800  0.4299
 6238TIP3    H142909   6.729   6.499   2.219 -0.1814  0.4072 -0.6228
 6238TIP3    H242910   6.825   6.408   2.145 -0.1060 -1.1126  1.2442
 6239TIP3   OH242911   1.732   4.980   0.403  0.0558  0.9021 -0.5376
 6239TIP3    H142912   1.740   5.054   0.462 -0.2700 -0.1834  0.9244
 6239TIP3    H242913   1.816   4.936   0.408 -1.1983 -1.5371  2.4755
 6240TIP3   OH242914   0.584   0.522   3.130 -0.3289 -0.3624 -0.3219
 6240TIP3    H142915   0.599   0.614   3.107 -0.3340  0.0895  1.3897
 6240TIP3    H242916   0.498   0.522   3.172  0.9168 -0.5796  2.4431
 6241TIP3   OH242917   6.755   6.367   3.150 -0.2702 -0.0432 -0.2078
 6241TIP3    H142918   6.827   6.356   3.088 -0.7363  2.9040 -1.4487
 6241TIP3    H242919   6.722   6.278   3.165  2.5238 -1.2893 -0.8850
 6242TIP3   OH242920   0.684   3.188   2.711  0.1325 -0.0393  0.0653
 6242TIP3    H142921   0.618   3.234   2.762 -0.8765 -1.9982  0.6307
 6242TIP3    H242922   0.649   3.187   2.622  0.5486  0.9447 -0.1211
 6243TIP3   OH242923   6.149   0.220   1.284  0.4443 -0.4161 -0.5908
 6243TIP3    H142924   6.072   0.254   1.331  0.9707  1.2812 -0.8716
 6243TIP3    H242925   6.222   0.237   1.343  0.7887 -0.6401 -0.9503
 6244TIP3   OH242926   3.463   4.885   1.780 -0.0934 -0.6152 -0.6472
 6244TIP3    H142927   3.399   4.838   1.725 -0.7304  0.1240 -0.5455
 6244TIP3    H242928   3.525   4.922   1.717 -0.4817 -0.2732 -0.8321
 6245TIP3   OH242929   5.517   2.508   0.947 -0.9813  0.0685  0.5046
 6245TIP3    H142930   5.526   2.603   0.950 -2.0589  0.1713  1.1400
 6245TIP3    H242931   5.590   2.476   1.000  1.7441  0.3038 -2.8048
 6246TIP3   OH242932   6.248   4.412   0.998 -0.2532  0.0123 -0.0107
 6246TIP3    H142933   6.255   4.327   0.955 -1.2985  0.4420 -1.0642
 6246TIP3    H242934   6.179   4.401   1.063  0.3639 -0.2340  0.6235
 6247TIP3   OH242935   7.653   1.902   1.094  0.0726 -0.2159  0.0971
 6247TIP3    H142936   7.662   1.818   1.140  0.7369 -0.1072  0.1835
 6247TIP3    H242937   7.715   1.897   1.022  0.6091  0.4548  0.4975
 6248TIP3   OH242938   0.144   3.464   2.225 -0.3126 -0.0478  0.2443
 6248TIP3    H142939   0.213   3.520   2.262 -1.0519  1.1993 -0.1947
 6248TIP3    H242940   0.097   3.431   2.302 -1.7516  2.4158  0.5259
 6249TIP3   OH242941   1.895   2.368   2.654  0.1486  0.3713  0.5321
 6249TIP3    H142942   1.799   2.372   2.647  0.0881  1.2996  1.6007
 6249TIP3    H242943   1.915   2.275   2.651 -0.7832  0.1624  0.2822
 6250TIP3   OH242944   4.500   5.077   2.198  0.1126 -0.1676 -0.1852
 6250TIP3    H142945   4.422   5.062   2.251  0.5037 -0.3072  0.3586
 6250TIP3    H242946   4.471   5.138   2.130 -1.4197 -2.9258 -2.2080
 6251TIP3   OH242947   3.744   0.525   0.561 -0.4192 -0.4838 -0.1782
 6251TIP3    H142948   3.796   0.600   0.531  0.1915 -0.2646  1.3724
 6251TIP3    H242949   3.660   0.535   0.516 -0.8457  1.9155  1.0040
 6252TIP3   OH242950   3.107   2.271   2.982 -0.2109 -0.4675  0.2513
 6252TIP3    H142951   3.085   2.258   2.890  0.4638 -2.1582  0.3036
 6252TIP3    H242952   3.201   2.289   2.982 -0.2846 -0.0581  0.5898
 6253TIP3   OH242953   7.035   7.237   2.643  0.0689 -0.2782 -0.3311
 6253TIP3    H142954   7.009   7.249   2.734  1.0372 -0.7130  0.0163
 6253TIP3    H242955   6.959   7.197   2.601  0.3545 -2.1030  0.7876
 6254TIP3   OH242956   7.335   6.863   0.997 -0.0688  0.4931  0.8219
 6254TIP3    H142957   7.359   6.783   1.044  0.4661 -0.2945 -0.7225
 6254TIP3    H242958   7.394   6.865   0.921  0.5088  2.8265  1.2808
 6255TIP3   OH242959   6.092   6.234   1.342  0.2543 -0.2234  0.2489
 6255TIP3    H142960   6.115   6.151   1.383  0.5086  0.4778  1.5749
 6255TIP3    H242961   5.997   6.242   1.356  0.1379 -0.4934 -0.3128
 6256TIP3   OH242962   5.172   5.920   3.109  0.1018 -0.0390 -0.3383
 6256TIP3    H142963   5.127   5.959   3.184  1.0092  2.3057 -0.9418
 6256TIP3    H242964   5.120   5.945   3.033 -0.5701 -2.0287 -0.5909
 6257TIP3   OH242965   5.384   5.710   1.723 -0.5500  0.0732 -0.3686
 6257TIP3    H142966   5.338   5.789   1.695 -0.9907  0.6368  1.7853
 6257TIP3    H242967   5.340   5.684   1.804  1.5880 -0.5899  0.6386
 6258TIP3   OH242968   0.065   2.391   2.778  0.3047 -0.5323  0.5153
 6258TIP3    H142969   0.078   2.430   2.865  0.2110 -0.2205  0.3926
 6258TIP3    H242970   0.101   2.303   2.786  0.3089 -0.5032  0.8678
 6259TIP3   OH242971   3.638   4.711   2.439  0.1117  0.1507 -0.4564
 6259TIP3    H142972   3.583   4.770   2.490 -1.0965  0.1679 -1.6997
 6259TIP3    H242973   3.582   4.684   2.366  0.4678 -2.8488  0.2570
 6260TIP3   OH242974   5.245   6.700   1.459 -0.3963 -0.1763  0.2388
 6260TIP3    H142975   5.318   6.748   1.498 -0.4305  0.4378 -0.4542
 6260TIP3    H242976   5.173   6.711   1.522  0.1086 -0.8569  0.9683
 6261TIP3   OH242977   5.230   6.742   1.188 -0.5423  0.5675  0.4436
 6261TIP3    H142978   5.231   6.728   1.283 -2.1336 -1.2583  0.2616
 6261TIP3    H242979   5.174   6.818   1.175 -0.4450  0.7296  0.9472
 6262TIP3   OH242980   1.913   5.103   1.696  0.0739 -0.3371 -0.7087
 6262TIP3    H142981   1.881   5.034   1.755  1.4788 -0.7469 -0.3903
 6262TIP3    H242982   1.861   5.093   1.617 -1.6572  0.0289  0.3114
 6263TIP3   OH242983   3.560   3.918   0.932  0.5281  0.0111  0.0913
 6263TIP3    H142984   3.631   3.982   0.927 -1.4456  2.4671  1.0272
 6263TIP3    H242985   3.490   3.965   0.978 -1.5127 -2.4501 -0.3250
 6264TIP3   OH242986   2.304   6.159   0.733 -0.2268  0.1730  0.2930
 6264TIP3    H142987   2.219   6.135   0.697 -0.5525 -0.6440  1.5394
 6264TIP3    H242988   2.320   6.248   0.701 -1.8430  0.5837  0.5419
 6265TIP3   OH242989   6.417   3.941   2.055 -0.3450 -0.2587 -0.2772
 6265TIP3    H142990   6.401   3.884   1.980 -0.1675 -0.4254 -0.1892
 6265TIP3    H242991   6.491   3.900   2.101 -0.0370  0.1900 -0.3679
 6266TIP3   OH242992   4.212   1.374   1.217  0.0209 -0.3757  0.1239
 6266TIP3    H142993   4.239   1.409   1.132  0.8201 -1.7936 -0.2489
 6266TIP3    H242994   4.248   1.435   1.281 -0.3085  0.5365 -0.5446
 6267TIP3   OH242995   3.561   2.583   1.209 -0.0054 -0.0227  0.4155
 6267TIP3    H142996   3.604   2.539   1.282  0.2078 -0.8984 -0.2246
 6267TIP3    H242997   3.481   2.620   1.248 -2.0071 -3.8291  0.3842
 6268TIP3   OH242998   1.779   4.618   1.906 -0.3110 -0.4382 -0.0976
 6268TIP3    H142999   1.732   4.697   1.880  0.9181  0.8031  1.2313
 6268TIP3    H243000   1.764   4.612   2.001  2.5712  0.3504  0.5062
 6269TIP3   OH243001   3.105   7.181   1.986 -0.0770  0.4211  0.3555
 6269TIP3    H143002   3.031   7.139   1.941  1.4012 -1.5221 -0.3796
 6269TIP3    H243003   3.137   7.246   1.924 -0.2221  0.1898  0.0340
 6270TIP3   OH243004   6.530   4.041   1.050  0.2420  0.2942 -0.1743
 6270TIP3    H143005   6.600   3.994   1.005 -0.9539 -1.2128 -0.5213
 6270TIP3    H243006   6.535   4.010   1.141  1.7892  2.3258  0.5137
 6271TIP3   OH243007   6.432   7.588   3.266 -0.5991 -0.0965  0.2689
 6271TIP3    H143008   6.419   7.610   3.358 -1.2512  0.3634  0.0702
 6271TIP3    H243009   6.479   7.664   3.230  0.3131 -0.5888  0.3738
 6272TIP3   OH243010   7.589   0.549   3.306  0.2762 -0.2025  0.5333
 6272TIP3    H143011   7.616   0.461   3.278 -1.5726 -0.8684  0.7087
 6272TIP3    H243012   7.543   0.585   3.230 -1.5002 -0.5666  1.3762
 6273TIP3   OH243013   4.226   6.121   2.238 -0.0916  0.8742  0.3321
 6273TIP3    H143014   4.167   6.122   2.313 -1.2035  1.4641 -0.5211
 6273TIP3    H243015   4.282   6.197   2.250  0.1399  0.6255  0.8592
 6274TIP3   OH243016   5.726   4.413   0.938  0.9986 -0.2041  0.3192
 6274TIP3    H143017   5.647   4.421   0.884  0.9879 -1.9873  0.0033
 6274TIP3    H243018   5.699   4.446   1.024  0.1529  0.0136 -0.0199
 6275TIP3   OH243019   0.148   4.805   3.289 -0.8493 -0.3477 -0.2837
 6275TIP3    H143020   0.057   4.793   3.317 -0.4221 -1.6092  0.6544
 6275TIP3    H243021   0.155   4.898   3.270 -2.2824 -0.1898 -0.1511
 6276TIP3   OH243022   3.381   6.113   1.327  0.9228 -0.5334  0.2214
 6276TIP3    H143023   3.399   6.019   1.332  0.4131 -0.6917 -0.7855
 6276TIP3    H243024   3.331   6.132   1.407  1.7170 -0.9509  0.8287
 6277TIP3   OH243025   6.871   7.126   1.047 -0.0442 -0.2996 -0.0865
 6277TIP3    H143026   6.788   7.145   1.091 -0.4258 -1.3699 -0.3080
 6277TIP3    H243027   6.938   7.160   1.106 -0.6113 -0.0942  0.4510
 6278TIP3   OH243028   4.558   1.446   1.895 -0.1197  0.1029 -0.0241
 6278TIP3    H143029   4.572   1.359   1.932  1.0172 -0.0174 -0.6855
 6278TIP3    H243030   4.626   1.501   1.934 -1.4707  0.9783  1.1893
 6279TIP3   OH243031   1.281   3.549   2.563  0.6794  0.8411  0.2806
 6279TIP3    H143032   1.308   3.525   2.652 -0.7686 -1.5708  0.1576
 6279TIP3    H243033   1.203   3.602   2.575 -0.0072 -0.1847  0.4718
 6280TIP3   OH243034   4.841   5.848   1.746 -0.3359  0.1324 -0.0418
 6280TIP3    H143035   4.758   5.831   1.701 -0.3023  0.1899 -0.1256
 6280TIP3    H243036   4.902   5.784   1.709  0.5042  2.0538 -2.2890
 6281TIP3   OH243037   3.275   5.759   2.469  0.6612  0.0389 -0.1919
 6281TIP3    H143038   3.370   5.753   2.461  0.9863  1.7369  1.5101
 6281TIP3    H243039   3.249   5.816   2.397  1.4817  2.5466  1.3589
 6282TIP3   OH243040   0.393   1.403   3.014 -0.3951  0.1692  0.3378
 6282TIP3    H143041   0.421   1.334   2.954 -1.3408 -0.1346  0.2193
 6282TIP3    H243042   0.431   1.379   3.098  0.2825  0.1680  0.0366
 6283TIP3   OH243043   6.065   7.135   0.740  0.1455  0.1344 -0.0187
 6283TIP3    H143044   6.077   7.216   0.789 -0.7921  0.2789 -0.0003
 6283TIP3    H243045   5.995   7.089   0.786  1.0943 -0.9995  0.3467
 6284TIP3   OH243046   1.031   1.987   2.593  0.3648 -0.0504 -0.0037
 6284TIP3    H143047   1.011   2.069   2.639 -0.1835 -0.6546  0.8612
 6284TIP3    H243048   1.059   2.015   2.506 -1.9495  0.9647 -0.4936
 6285TIP3   OH243049   4.121   5.552   1.903  0.8427  0.1508  0.7416
 6285TIP3    H143050   4.141   5.641   1.874  0.1721 -0.0804 -0.4844
 6285TIP3    H243051   4.200   5.523   1.948  0.6101  1.8497  2.4004
 6286TIP3   OH243052   4.330   6.858   1.024  0.4261 -0.0794 -0.2487
 6286TIP3    H143053   4.304   6.767   1.039  0.1693  0.3295  2.3799
 6286TIP3    H243054   4.286   6.907   1.094  3.7023  1.4691  0.9507
 6287TIP3   OH243055   5.744   6.741   0.755 -0.0181  0.4877  0.6642
 6287TIP3    H143056   5.663   6.776   0.717 -0.1154 -1.5837 -1.2307
 6287TIP3    H243057   5.718   6.661   0.799  0.9696 -0.2411 -0.0254
 6288TIP3   OH243058   7.080   0.714   3.048 -0.0680 -0.1289 -0.1095
 6288TIP3    H143059   7.128   0.631   3.044 -1.0194 -0.6865 -0.2231
 6288TIP3    H243060   6.988   0.689   3.038 -0.4939  0.8014  1.1845
 6289TIP3   OH243061   5.335   7.221   2.412 -0.3125  0.5628  0.6054
 6289TIP3    H143062   5.319   7.279   2.338  0.1421  0.7473  0.6464
 6289TIP3    H243063   5.309   7.134   2.381 -2.4898  0.9907  1.0499
 6290TIP3   OH243064   3.647   2.186   2.144 -0.2227 -0.4126  0.5851
 6290TIP3    H143065   3.642   2.273   2.106  1.8579 -0.3437  0.3867
 6290TIP3    H243066   3.617   2.128   2.074  0.3950 -0.0153 -0.0176
 6291TIP3   OH243067   6.394   2.699   1.002  0.2882 -0.1804  0.2633
 6291TIP3    H143068   6.457   2.770   0.992  0.2745 -0.3368 -1.1634
 6291TIP3    H243069   6.326   2.718   0.937 -1.6225  0.4502  2.3451
 6292TIP3   OH243070   0.728   4.368   1.154 -0.4830 -0.1084 -0.3895
 6292TIP3    H143071   0.754   4.437   1.215 -1.2967  0.2400 -0.4176
 6292TIP3    H243072   0.776   4.387   1.074 -0.6042  0.3616 -0.3564
 6293TIP3   OH243073   2.643   0.144   2.191  0.0387 -0.0572 -0.5350
 6293TIP3    H143074   2.625   0.050   2.188  0.6992 -0.1800 -0.8079
 6293TIP3    H243075   2.646   0.164   2.284 -3.5246  0.3982 -0.3521
 6294TIP3   OH243076   3.222   5.157   1.582  0.3645  0.1037 -0.1631
 6294TIP3    H143077   3.156   5.227   1.582  1.1966  0.9799  1.6824
 6294TIP3    H243078   3.302   5.200   1.552  0.7705 -0.1525  0.5207
 6295TIP3   OH243079   5.227   4.350   1.781  0.1404  0.1303 -0.5089
 6295TIP3    H143080   5.207   4.257   1.775  1.6884 -0.2890  0.3900
 6295TIP3    H243081   5.249   4.376   1.692 -1.0975 -0.1583 -0.9112
 6296TIP3   OH243082   7.608   7.013   2.773 -0.2950  0.1346  0.0005
 6296TIP3    H143083   7.528   7.055   2.743  0.8767  1.4760 -1.3476
 6296TIP3    H243084   7.679   7.062   2.732  1.2455 -0.9788  1.1952
 6297TIP3   OH243085   2.244   1.950   2.098 -0.1872 -0.1217  0.1526
 6297TIP3    H143086   2.276   1.890   2.165  2.0771  1.0836  0.2430
 6297TIP3    H243087   2.301   1.935   2.022 -0.6989  0.6983 -0.4173
 6298TIP3   OH243088   2.727   5.734   1.611  0.0218 -0.1622 -0.0965
 6298TIP3    H143089   2.656   5.746   1.547  0.9199 -1.0715 -1.3277
 6298TIP3    H243090   2.769   5.819   1.616 -0.5265  0.1182 -0.1365
 6299TIP3   OH243091   2.565   1.777   2.764  0.0934 -0.0039 -0.3531
 6299TIP3    H143092   2.608   1.751   2.845 -3.3360  0.7611  1.9624
 6299TIP3    H243093   2.511   1.702   2.740 -0.9120  0.6797 -0.3318
 6300TIP3   OH243094   6.868   5.504   1.331  0.0477 -0.4629 -0.2642
 6300TIP3    H143095   6.939   5.444   1.309 -0.1307 -0.1611 -1.7775
 6300TIP3    H243096   6.843   5.481   1.421  3.8309  1.1811  1.3972
 6301TIP3   OH243097   1.442   3.184   3.100 -0.7167  0.0169 -0.6552
 6301TIP3    H143098   1.416   3.275   3.111  0.3984  0.3162 -0.4030
 6301TIP3    H243099   1.384   3.135   3.157 -0.8415  0.6447 -0.2385
 6302TIP3   OH243100   0.583   4.919   1.358  0.1899  0.6485 -0.3911
 6302TIP3    H143101   0.490   4.902   1.373 -0.3778  1.0193 -3.0047
 6302TIP3    H243102   0.614   4.957   1.439 -2.1937  1.4877  0.2010
 6303TIP3   OH243103   1.617   5.181   2.203  0.5587  0.5435 -0.2643
 6303TIP3    H143104   1.690   5.124   2.181  0.6943  0.3886  0.5508
 6303TIP3    H243105   1.619   5.250   2.138  0.2776 -0.4774 -1.3876
 6304TIP3   OH243106   2.765   6.247   1.674 -0.1641  0.4492  0.4091
 6304TIP3    H143107   2.779   6.335   1.640  1.0563 -0.4993 -1.7181
 6304TIP3    H243108   2.707   6.205   1.610  2.6130 -1.5566 -0.9907
 6305TIP3   OH243109   2.087   2.836   1.118  0.2898 -0.0471  0.2299
 6305TIP3    H143110   2.024   2.893   1.162  2.7541  1.4354  2.0632
 6305TIP3    H243111   2.109   2.883   1.038  0.3274  0.2546  0.4161
 6306TIP3   OH243112   1.823   3.286   1.395 -0.2444 -0.7010  0.4118
 6306TIP3    H143113   1.793   3.195   1.387  0.3455 -0.8159 -0.8648
 6306TIP3    H243114   1.872   3.289   1.477 -0.1830 -1.5744  0.4147
 6307TIP3   OH243115   0.322   4.801   1.350  0.7349 -0.0918  0.4190
 6307TIP3    H143116   0.361   4.716   1.329 -0.2969 -0.8747  1.5422
 6307TIP3    H243117   0.265   4.820   1.276  1.4869 -0.0335 -0.1588
 6308TIP3   OH243118   2.152   0.400   3.502 -0.2249  0.2901  0.2668
 6308TIP3    H143119   2.109   0.429   3.582 -3.1492  0.9667 -1.4068
 6308TIP3    H243120   2.136   0.306   3.500  0.2674  0.1927  0.6856
 6309TIP3   OH243121   7.610   4.054   2.661  0.1764  0.0882 -0.1084
 6309TIP3    H143122   7.591   4.057   2.567 -0.0954 -1.1276 -0.1100
 6309TIP3    H243123   7.692   4.006   2.668  1.0818  1.6083  0.1922
 6310TIP3   OH243124   7.026   0.126   3.527  0.5698  0.0673  0.2323
 6310TIP3    H143125   6.989   0.041   3.551  0.6631  0.0533  0.3313
 6310TIP3    H243126   7.120   0.108   3.515  0.3596 -0.1654 -1.2637
 6311TIP3   OH243127   6.021   5.888   0.746  0.1456 -0.6551  0.1953
 6311TIP3    H143128   6.002   5.814   0.803  0.3047  0.1298  1.2889
 6311TIP3    H243129   6.116   5.901   0.755  0.1108 -0.2937  0.0459
 6312TIP3   OH243130   3.583   2.268   0.778 -0.1348  0.7534  0.5750
 6312TIP3    H143131   3.650   2.221   0.829  0.7679  1.0535 -0.3094
 6312TIP3    H243132   3.607   2.360   0.786  0.3651  0.7603 -0.8716
 6313TIP3   OH243133   0.288   0.511   1.471 -0.4112  0.3023 -0.5629
 6313TIP3    H143134   0.371   0.490   1.512 -0.5050 -1.3987 -1.1438
 6313TIP3    H243135   0.244   0.570   1.533  0.6451  0.1182  0.3895
 6314TIP3   OH243136   1.015   0.584   1.510  0.0190  0.5297  0.2743
 6314TIP3    H143137   1.014   0.679   1.511 -1.4777  0.5424 -0.0529
 6314TIP3    H243138   1.066   0.559   1.588  0.3819  1.5845  0.3807
 6315TIP3   OH243139   4.184   5.820   2.516  0.4008 -0.7131  0.2075
 6315TIP3    H143140   4.121   5.882   2.552 -0.5141 -1.5954  0.1474
 6315TIP3    H243141   4.255   5.875   2.482 -1.0539  0.4044 -1.1646
 6316TIP3   OH243142   2.552   4.143   3.152 -0.1316 -0.4136 -0.0246
 6316TIP3    H143143   2.559   4.168   3.060 -2.0326 -0.5804 -0.2526
 6316TIP3    H243144   2.468   4.178   3.180 -0.4953 -2.0833  1.0960
 6317TIP3   OH243145   5.735   2.421   1.085  0.3650  0.2619 -0.2970
 6317TIP3    H143146   5.816   2.401   1.038  1.1378  0.9621  0.6870
 6317TIP3    H243147   5.712   2.338   1.128 -0.4882 -0.4582 -2.0241
 6318TIP3   OH243148   2.555   1.828   2.206  0.5345 -0.1215  0.6919
 6318TIP3    H143149   2.616   1.783   2.147  0.9894  0.1576  0.9473
 6318TIP3    H243150   2.472   1.784   2.192  1.1386 -1.6035  1.5208
 6319TIP3   OH243151   0.401   0.580   2.456 -0.4236 -0.5105 -0.2624
 6319TIP3    H143152   0.335   0.634   2.413  0.6210  0.7043 -0.4082
 6319TIP3    H243153   0.471   0.573   2.391 -0.4718 -1.9348 -0.1825
 6320TIP3   OH243154   7.471   6.547   1.505 -0.8637  0.5188 -0.4039
 6320TIP3    H143155   7.426   6.631   1.500 -0.5107  0.7640  0.4164
 6320TIP3    H243156   7.402   6.481   1.494 -1.3313  0.8938  0.2541
 6321TIP3   OH243157   1.019   4.999   2.784  0.5400  0.1453 -0.0314
 6321TIP3    H143158   1.024   4.941   2.860  0.3539 -0.9299 -0.7988
 6321TIP3    H243159   1.050   5.083   2.815 -0.0951 -0.1117  1.3846
 6322TIP3   OH243160   3.887   0.891   1.931  0.0636 -0.3762 -0.3492
 6322TIP3    H143161   3.911   0.929   1.847  0.5156 -0.8123 -0.4271
 6322TIP3    H243162   3.811   0.836   1.912 -0.7999  0.7254 -0.1713
 6323TIP3   OH243163   0.800   2.906   3.187 -0.1221 -0.0325 -0.3630
 6323TIP3    H143164   0.831   2.989   3.223  1.1009 -0.4509 -0.4031
 6323TIP3    H243165   0.750   2.866   3.258 -1.3365  1.0452 -0.5862
 6324TIP3   OH243166   5.945   7.085   2.610 -0.3125 -0.1846  0.3304
 6324TIP3    H143167   5.936   7.165   2.660 -0.0962 -0.4331  0.7735
 6324TIP3    H243168   5.856   7.063   2.583 -0.4859 -0.2443  0.9253
 6325TIP3   OH243169   5.661   7.507   2.190 -0.0767  0.2867 -0.3977
 6325TIP3    H143170   5.626   7.593   2.215 -1.0463  0.1664 -1.2708
 6325TIP3    H243171   5.703   7.521   2.105 -2.3090 -0.5197 -1.7235
 6326TIP3   OH243172   2.469   7.486   0.952 -0.4369 -0.2470 -0.2023
 6326TIP3    H143173   2.456   7.541   1.029  0.6679  0.2878 -0.3780
 6326TIP3    H243174   2.390   7.499   0.900 -0.1569  1.2782 -0.2941
 6327TIP3   OH243175   3.826   3.343   0.488  0.5388  0.3581 -0.0682
 6327TIP3    H143176   3.840   3.252   0.514 -0.0745  0.3867  0.3702
 6327TIP3    H243177   3.887   3.356   0.415  0.2473 -0.5559 -0.4887
 6328TIP3   OH243178   1.887   1.923   3.831 -0.4317 -0.1427  0.0510
 6328TIP3    H143179   1.910   1.883   3.915 -1.3297 -0.7304  0.0210
 6328TIP3    H243180   1.817   1.868   3.796  0.4698 -0.3812 -1.4657
 6329TIP3   OH243181   1.273   6.828   1.166 -0.3232 -0.3014  0.0787
 6329TIP3    H143182   1.276   6.745   1.213  0.7328 -0.9562 -1.0815
 6329TIP3    H243183   1.346   6.878   1.201  0.8315 -1.0184 -1.1981
 6330TIP3   OH243184   7.432   4.057   1.082 -0.3326 -0.2795  0.4510
 6330TIP3    H143185   7.383   4.095   1.155 -1.2316 -1.7116  0.6276
 6330TIP3    H243186   7.522   4.050   1.115 -0.2260  1.2277  0.5598
 6331TIP3   OH243187   1.394   3.181   2.677 -0.3765 -0.5846 -0.3302
 6331TIP3    H143188   1.376   3.274   2.690  1.6526 -0.4200  2.1871
 6331TIP3    H243189   1.454   3.179   2.603  0.0347  0.1913 -0.0336
 6332TIP3   OH243190   3.177   2.721   2.435 -0.0310  0.5164 -0.3358
 6332TIP3    H143191   3.260   2.674   2.450 -1.0513 -1.2310  0.0703
 6332TIP3    H243192   3.134   2.720   2.520 -2.9451 -3.6627 -1.5686
 6333TIP3   OH243193   1.645   1.741   4.041 -0.0937  0.9933 -0.0166
 6333TIP3    H143194   1.737   1.731   4.066 -0.2066 -0.4031 -0.0615
 6333TIP3    H243195   1.603   1.780   4.118  0.1396 -0.4020  0.8580
 6334TIP3   OH243196   0.580   5.767   2.434  0.2449 -0.2070 -0.1109
 6334TIP3    H143197   0.511   5.737   2.494  0.0863 -0.9629 -0.6650
 6334TIP3    H243198   0.604   5.689   2.384  1.3779  0.0932 -0.0570
 6335TIP3   OH243199   3.323   2.618   1.662 -0.0988  0.3282 -0.4253
 6335TIP3    H143200   3.247   2.626   1.605 -1.2094  0.1122  0.9935
 6335TIP3    H243201   3.320   2.696   1.718  1.1575  0.6984 -0.8282
 6336TIP3   OH243202   5.891   2.937   1.179 -0.0979 -0.0095  0.4714
 6336TIP3    H143203   5.848   2.854   1.197 -0.1892 -0.0374  0.1253
 6336TIP3    H243204   5.828   3.003   1.207  0.4702 -0.0443  1.9524
 6337TIP3   OH243205   5.215   0.849   0.681  0.0414 -0.8589  0.5444
 6337TIP3    H143206   5.175   0.774   0.637 -0.1180  0.7073 -2.1791
 6337TIP3    H243207   5.143   0.911   0.693  0.7473  0.1702 -0.3015
 6338TIP3   OH243208   0.423   0.051   1.049  0.3179 -0.3424  0.1897
 6338TIP3    H143209   0.412   0.124   1.110  1.2650 -0.1453  0.1451
 6338TIP3    H243210   0.379  -0.023   1.092 -0.1308  0.1086  0.5108
 6339TIP3   OH243211   6.112   5.790   1.932  0.3496  0.4096  0.3833
 6339TIP3    H143212   6.025   5.754   1.913  0.6591  0.1758 -0.6304
 6339TIP3    H243213   6.095   5.882   1.953 -0.1676  0.3080  0.4319
 6340TIP3   OH243214   6.448   5.870   1.805  0.3797  0.7207  0.3224
 6340TIP3    H143215   6.533   5.883   1.847  0.5450 -1.0658  0.6301
 6340TIP3    H243216   6.467   5.870   1.711  0.7627  0.2276  0.3929
 6341TIP3   OH243217   2.764   3.221   1.761 -0.1700  0.4067 -0.3322
 6341TIP3    H143218   2.689   3.238   1.704 -0.9342 -0.4390  0.3830
 6341TIP3    H243219   2.789   3.131   1.742  0.6242  0.6645 -0.5146
 6342TIP3   OH243220   2.549   7.590   3.248  0.0317 -0.2183  0.1640
 6342TIP3    H143221   2.580   7.672   3.209 -0.2620 -1.1193 -2.1227
 6342TIP3    H243222   2.629   7.547   3.280  1.4697 -2.1593 -4.9769
 6343TIP3   OH243223   0.916   4.837   1.485 -0.1229 -0.0545 -0.2088
 6343TIP3    H143224   0.892   4.927   1.504  0.2018 -0.2071  1.0103
 6343TIP3    H243225   0.864   4.785   1.546  0.6541 -0.6035  0.0007
 6344TIP3   OH243226   4.483   6.121   2.612 -0.7221 -0.7050  0.2363
 6344TIP3    H143227   4.576   6.114   2.633 -0.8415 -2.7714  0.2772
 6344TIP3    H243228   4.468   6.054   2.545 -2.5072 -1.7020  1.5507
 6345TIP3   OH243229   4.653   3.146   2.506 -0.0752  0.0994  0.3438
 6345TIP3    H143230   4.676   3.158   2.414 -0.2613 -0.5941  0.1950
 6345TIP3    H243231   4.698   3.065   2.531  0.9384  0.9032  1.2036
 6346TIP3   OH243232   0.202   3.503   1.644 -0.6387  0.1323  0.0614
 6346TIP3    H143233   0.182   3.438   1.576  0.4465  1.1431 -1.2800
 6346TIP3    H243234   0.297   3.496   1.657 -0.9699 -0.9842  2.5296
 6347TIP3   OH243235   5.839   6.826   1.037  0.9580  0.5241 -0.0524
 6347TIP3    H143236   5.818   6.805   0.946  1.3864  0.1005 -0.0558
 6347TIP3    H243237   5.787   6.904   1.056  1.2498  0.9185 -0.8228
 6348TIP3   OH243238   7.398   0.914   2.139 -0.0862  0.5905 -0.3522
 6348TIP3    H143239   7.463   0.916   2.069  0.5937  3.0908  0.2505
 6348TIP3    H243240   7.438   0.964   2.210 -1.5739 -0.1786  1.1006
 6349TIP3   OH243241   2.155   2.347   1.749 -0.3008  0.0510 -0.2284
 6349TIP3    H143242   2.123   2.258   1.737 -0.8653  0.1603  0.4268
 6349TIP3    H243243   2.150   2.386   1.661 -0.8426 -0.3005 -0.3575
 6350TIP3   OH243244   3.857   4.673   0.756  0.1261 -0.0727 -0.2462
 6350TIP3    H143245   3.912   4.674   0.834 -2.1277 -1.0608  1.4757
 6350TIP3    H243246   3.876   4.589   0.714  1.3341  0.4552 -0.8019
 6351TIP3   OH243247   3.297   2.331   1.122 -0.2767  0.0739 -0.4474
 6351TIP3    H143248   3.310   2.396   1.053  0.0483  1.7272  1.0904
 6351TIP3    H243249   3.354   2.258   1.098  1.7121  1.6299 -0.7044
 6352TIP3   OH243250   5.666   3.736   1.208 -0.0398  0.3505  0.8221
 6352TIP3    H143251   5.634   3.787   1.133  1.1180 -0.8965 -0.5984
 6352TIP3    H243252   5.749   3.778   1.231 -1.6080  2.4486  3.3173
 6353TIP3   OH243253   2.492   6.636   1.492 -0.2980 -0.0086 -0.1415
 6353TIP3    H143254   2.473   6.616   1.584  2.1185 -0.3732  0.3420
 6353TIP3    H243255   2.574   6.589   1.474  0.5383  1.9341 -1.7898
 6354TIP3   OH243256   1.674   2.528   1.212  0.6355  0.0817  0.2839
 6354TIP3    H143257   1.704   2.448   1.254  1.9151  0.8938  0.9948
 6354TIP3    H243258   1.726   2.535   1.132  0.8069  0.3938  0.4197
 6355TIP3   OH243259   3.323   4.528   2.096  0.1424 -0.1668  0.4883
 6355TIP3    H143260   3.355   4.576   2.173  1.5761  0.2865 -0.3625
 6355TIP3    H243261   3.255   4.584   2.059  0.6751  0.4619  0.4342
 6356TIP3   OH243262   3.758   5.624   1.365  0.2532 -0.7564 -0.1168
 6356TIP3    H143263   3.744   5.615   1.271  0.5675 -0.4513 -0.1916
 6356TIP3    H243264   3.793   5.712   1.377  1.8682 -1.3930  0.0889
 6357TIP3   OH243265   5.941   6.920   2.843 -0.0436 -0.1415  0.1457
 6357TIP3    H143266   5.868   6.859   2.852 -0.0946 -0.0455  0.3916
 6357TIP3    H243267   5.925   6.964   2.759 -0.1250 -0.3082  0.0733
 6358TIP3   OH243268   7.188   7.428   2.175 -0.6480  0.4271  0.4814
 6358TIP3    H143269   7.209   7.521   2.180  0.9645  0.1691 -0.7254
 6358TIP3    H243270   7.108   7.419   2.227 -0.6263  2.4038  0.9473
 6359TIP3   OH243271   5.364   0.475   2.781 -0.1751 -0.4941 -0.2053
 6359TIP3    H143272   5.401   0.389   2.801 -1.0045 -0.7516  0.2827
 6359TIP3    H243273   5.269   0.462   2.788 -0.2793  0.8670  1.6269
 6360TIP3   OH243274   7.587   2.151   1.787 -0.4708 -0.1801 -0.3447
 6360TIP3    H143275   7.661   2.102   1.753  0.6513  0.6285  0.8181
 6360TIP3    H243276   7.523   2.151   1.716  0.3180 -1.5612 -1.0911
 6361TIP3   OH243277   5.508   1.157   1.588 -0.0134 -0.0159  0.0177
 6361TIP3    H143278   5.501   1.112   1.503  2.4938 -0.4357 -0.0435
 6361TIP3    H243279   5.523   1.249   1.565 -0.8847  0.1346  0.0459
 6362TIP3   OH243280   4.148   2.170   1.680  0.1706 -0.4935 -0.2662
 6362TIP3    H143281   4.107   2.255   1.697  0.1690 -0.1615 -1.7887
 6362TIP3    H243282   4.240   2.191   1.666  0.6014 -1.0364  1.4851
 6363TIP3   OH243283   6.504   1.843   1.204  0.0557  0.2536 -0.0486
 6363TIP3    H143284   6.529   1.809   1.118 -1.2657  0.6147 -0.5978
 6363TIP3    H243285   6.562   1.918   1.219 -0.0945  0.5474 -0.8966
 6364TIP3   OH243286   7.037   7.513   1.914  0.1744  0.1728 -0.3302
 6364TIP3    H143287   6.943   7.500   1.908  0.2192 -0.0326 -0.6038
 6364TIP3    H243288   7.070   7.434   1.957  0.0622  0.8632  1.0831
 6365TIP3   OH243289   4.631   4.003   1.485  0.2269 -0.1643  0.2950
 6365TIP3    H143290   4.720   4.017   1.517  0.8577 -2.0945 -0.4530
 6365TIP3    H243291   4.595   4.091   1.472  2.0951  0.6455  0.3955
 6366TIP3   OH243292   2.841   1.500   1.017  0.4943 -0.4852  0.5402
 6366TIP3    H143293   2.923   1.452   1.003  0.3446 -0.9926  1.3357
 6366TIP3    H243294   2.780   1.464   0.953  1.1169  0.4902 -0.6429
 6367TIP3   OH243295   6.767   2.303   1.488 -0.1570  0.2229 -0.0127
 6367TIP3    H143296   6.696   2.252   1.451 -0.4414  0.9259 -0.4564
 6367TIP3    H243297   6.773   2.381   1.432  0.4608  0.5329  0.4654
 6368TIP3   OH243298   0.530   5.769   2.028 -0.3115 -0.1029  0.4701
 6368TIP3    H143299   0.482   5.752   1.947 -2.0331 -1.1620  1.6553
 6368TIP3    H243300   0.495   5.707   2.091  1.6225  0.0789  1.8298
 6369TIP3   OH243301   5.824   1.781   1.795 -0.6922  0.1252 -0.0987
 6369TIP3    H143302   5.853   1.865   1.830 -1.5949  0.1675  0.5817
 6369TIP3    H243303   5.822   1.794   1.700  0.5521  0.4125 -0.0976
 6370TIP3   OH243304   4.124   4.405   2.188  0.4018  0.0908  0.2786
 6370TIP3    H143305   4.206   4.447   2.160 -0.7634  0.5453 -2.8008
 6370TIP3    H243306   4.060   4.476   2.187 -0.8366 -0.9804 -1.3842
 6371TIP3   OH243307   3.836   5.526   1.997  0.8940  0.3922  0.4845
 6371TIP3    H143308   3.864   5.617   1.988  0.6850  0.2509 -2.2052
 6371TIP3    H243309   3.883   5.479   1.928 -0.8973 -1.0565  0.1715
 6372TIP3   OH243310   2.231   2.091   2.377  0.2625 -0.0401 -0.1309
 6372TIP3    H143311   2.325   2.090   2.396  0.5070  0.2664 -1.2444
 6372TIP3    H243312   2.225   2.064   2.285 -0.7789 -0.5103  0.0596
 6373TIP3   OH243313   5.033   6.104   2.031 -0.4776 -0.3722  0.0518
 6373TIP3    H143314   4.999   6.015   2.044  0.9408 -1.2452 -1.6607
 6373TIP3    H243315   5.081   6.124   2.111  0.1322 -1.6332  0.0202
 6374TIP3   OH243316   2.525   5.459   3.069  0.2303  0.2183 -0.2706
 6374TIP3    H143317   2.605   5.477   3.117 -0.2240 -0.3961  0.7385
 6374TIP3    H243318   2.502   5.369   3.093 -0.1333 -0.0245 -1.4632
 6375TIP3   OH243319   5.177   2.761   1.557  0.3766  0.6524  0.1540
 6375TIP3    H143320   5.262   2.719   1.575 -0.0728 -0.4526 -0.2261
 6375TIP3    H243321   5.116   2.688   1.547 -0.1000  1.3170 -2.3131
 6376TIP3   OH243322   2.010   5.454   0.474 -0.2047 -0.1279 -0.3518
 6376TIP3    H143323   1.962   5.477   0.394  0.6540  3.0653 -0.0606
 6376TIP3    H243324   1.946   5.461   0.544  0.0514  1.6541 -0.2627
 6377TIP3   OH243325   0.890   4.353   1.789  0.2026 -0.4716 -0.8275
 6377TIP3    H143326   0.964   4.292   1.787  1.4836  0.8939  1.1162
 6377TIP3    H243327   0.930   4.440   1.796 -1.5639  0.3222  0.2999
 6378TIP3   OH243328   6.690   1.597   2.527  0.2193 -0.0166  0.5009
 6378TIP3    H143329   6.747   1.629   2.598 -0.6965  0.5258  1.0144
 6378TIP3    H243330   6.690   1.502   2.538 -0.5518  0.1038  1.7531
 6379TIP3   OH243331   2.017   3.051   0.662  0.5821 -0.7708 -0.2605
 6379TIP3    H143332   2.072   3.009   0.596  4.0708  3.5370 -0.5543
 6379TIP3    H243333   2.063   3.035   0.745 -0.3514 -1.0051  0.2228
 6380TIP3   OH243334   1.194   2.152   1.580 -0.0228  0.0712  0.0048
 6380TIP3    H143335   1.264   2.103   1.537  1.0218  0.8773  0.7508
 6380TIP3    H243336   1.125   2.157   1.514  0.4095 -1.1628 -0.5770
 6381TIP3   OH243337   0.978   5.390   2.466  0.1523 -0.1074 -0.1027
 6381TIP3    H143338   0.897   5.372   2.512 -1.3543  3.5758 -0.9297
 6381TIP3    H243339   1.022   5.456   2.520  2.8491 -2.1796  0.4546
 6382TIP3   OH243340   0.452   1.246   2.598  0.7632 -0.3022 -0.2856
 6382TIP3    H143341   0.503   1.325   2.618 -0.0009 -0.0637  0.8612
 6382TIP3    H243342   0.402   1.268   2.520  1.4370 -0.0789 -0.6594
 6383TIP3   OH243343   0.196   1.675   2.162 -0.2673 -0.5872  0.0989
 6383TIP3    H143344   0.243   1.666   2.080  2.6287  4.1534  0.9047
 6383TIP3    H243345   0.107   1.701   2.136  0.0790 -0.8925 -1.4824
 6384TIP3   OH243346   0.204   0.099   0.718 -0.1539  0.2003  0.1979
 6384TIP3    H143347   0.137   0.055   0.770 -0.1858 -3.3181 -2.4531
 6384TIP3    H243348   0.156   0.164   0.667 -1.2670 -0.8765 -0.1785
 6385TIP3   OH243349   1.172   2.461   1.261 -0.5864 -0.3147  0.1919
 6385TIP3    H143350   1.236   2.397   1.294 -1.0483 -1.5641 -1.2233
 6385TIP3    H243351   1.220   2.510   1.194 -0.1380  1.0913  1.4919
 6386TIP3   OH243352   7.550   4.837   0.937 -0.4526  0.1339 -0.3688
 6386TIP3    H143353   7.458   4.852   0.913 -0.5446  1.2061  0.5663
 6386TIP3    H243354   7.582   4.923   0.963  0.1720 -0.6033  1.4378
 6387TIP3   OH243355   2.391   6.107   1.643  1.0366 -0.3477 -0.4245
 6387TIP3    H143356   2.379   6.152   1.559 -0.0731 -0.8587 -0.5521
 6387TIP3    H243357   2.427   6.173   1.701  0.4390  0.4038 -0.9014
 6388TIP3   OH243358   4.900   3.678   0.934 -0.6932  0.1030 -0.6577
 6388TIP3    H143359   4.843   3.634   0.870  0.8882 -0.5061 -1.7029
 6388TIP3    H243360   4.989   3.654   0.907  0.0948  1.5200  0.5645
 6389TIP3   OH243361   1.615   0.400   1.662  0.1856  0.3037 -0.1169
 6389TIP3    H143362   1.628   0.332   1.728 -1.2639  0.0108 -0.0981
 6389TIP3    H243363   1.647   0.480   1.703  3.0499 -0.4958 -0.5818
 6390TIP3   OH243364   1.257   1.534   3.165  0.3540 -0.7782 -0.1816
 6390TIP3    H143365   1.312   1.611   3.179 -1.4109  0.5631 -0.2943
 6390TIP3    H243366   1.257   1.521   3.070 -0.4992 -0.0085 -0.2953
 6391TIP3   OH243367   6.720   4.009   1.836  0.2426  0.2977 -0.1897
 6391TIP3    H143368   6.674   3.976   1.913 -0.7156  0.4441 -0.6804
 6391TIP3    H243369   6.683   4.096   1.822  1.4727  0.8729  0.0455
 6392TIP3   OH243370   1.471   4.100   0.695 -0.8430 -0.2559  0.4197
 6392TIP3    H143371   1.416   4.131   0.623  0.0398 -0.7854 -0.5017
 6392TIP3    H243372   1.492   4.010   0.673  1.7493  0.3963 -0.1382
 6393TIP3   OH243373   5.043   7.302   2.561  0.9260 -0.0585 -0.0251
 6393TIP3    H143374   5.071   7.315   2.652  2.0075  1.8887 -0.5949
 6393TIP3    H243375   5.032   7.390   2.526  0.2327 -0.7727 -1.7248
 6394TIP3   OH243376   0.477   6.530   3.369 -0.2822  0.2610 -0.5184
 6394TIP3    H143377   0.507   6.597   3.431  2.3887 -2.2035  1.1035
 6394TIP3    H243378   0.516   6.556   3.285 -0.9149  1.7243 -0.3921
 6395TIP3   OH243379   0.793   2.334   2.992  0.0800  0.0668 -0.0185
 6395TIP3    H143380   0.741   2.378   3.059  0.3272 -1.7108  1.4120
 6395TIP3    H243381   0.882   2.338   3.025  0.3009 -0.2753 -0.5720
 6396TIP3   OH243382   1.753   1.643   7.700  0.0489  0.5801 -0.7529
 6396TIP3    H143383   1.717   1.602   7.622 -0.6511  1.2843 -0.8195
 6396TIP3    H243384   1.726   1.735   7.693  0.8411  0.8671 -0.1888
 6397TIP3   OH243385   4.509   7.277   0.503 -0.0318  0.3072  0.7550
 6397TIP3    H143386   4.594   7.280   0.459 -1.3085  1.8260 -1.8295
 6397TIP3    H243387   4.514   7.198   0.558  1.8549 -1.5901 -1.8764
 6398TIP3   OH243388   4.545   1.540   1.425 -0.1816  0.0550 -0.4906
 6398TIP3    H143389   4.606   1.536   1.499 -0.0465 -1.3466 -0.6503
 6398TIP3    H243390   4.600   1.563   1.350 -0.3609  1.7583 -0.1528
 6399TIP3   OH243391   1.725   2.078   1.993 -0.2618 -0.2710 -0.5291
 6399TIP3    H143392   1.739   2.032   1.910  0.1922 -0.1038 -0.5476
 6399TIP3    H243393   1.811   2.111   2.017 -0.1475 -1.2901  0.5870
 6400TIP3   OH243394   0.569   4.625   1.642 -0.5142 -0.0949  0.1531
 6400TIP3    H143395   0.528   4.710   1.654 -0.5803  0.1110 -1.3319
 6400TIP3    H243396   0.495   4.565   1.628 -0.4146 -0.1128 -0.3197
 6401TIP3   OH243397   6.137   2.199   2.457  0.2639 -0.7588 -0.3010
 6401TIP3    H143398   6.105   2.254   2.529  1.1544 -0.5852 -0.0311
 6401TIP3    H243399   6.097   2.236   2.379  0.4522 -0.0341 -0.0629
 6402TIP3   OH243400   6.146   5.540   2.059  0.4602 -0.3852  0.5757
 6402TIP3    H143401   6.122   5.541   2.152  1.6027  1.0399  0.8818
 6402TIP3    H243402   6.133   5.630   2.030 -2.7500 -1.3518 -1.4698
 6403TIP3   OH243403   2.728   0.305   0.981  0.0063 -0.2038  0.4914
 6403TIP3    H143404   2.793   0.296   1.050  0.3340 -0.8300  0.1131
 6403TIP3    H243405   2.779   0.322   0.902 -0.3857  0.9592  0.4630
 6404TIP3   OH243406   6.091   2.991   1.389  0.1228 -0.0786 -0.0320
 6404TIP3    H143407   6.111   3.069   1.441 -0.0240  0.3526 -0.6169
 6404TIP3    H243408   6.006   3.010   1.349 -0.0322 -0.6450  0.0189
 6405TIP3   OH243409   2.941   4.821   1.153  0.0380 -0.1093 -0.4872
 6405TIP3    H143410   2.966   4.856   1.239  0.7643 -0.3031 -0.6170
 6405TIP3    H243411   2.991   4.740   1.145  2.3211  1.3351 -2.3366
 6406TIP3   OH243412   1.360   2.901   1.918  0.0998 -0.4377 -0.1865
 6406TIP3    H143413   1.325   2.913   1.830 -0.3682 -0.6266 -0.0261
 6406TIP3    H243414   1.351   2.987   1.959 -0.4594 -0.5616 -0.0451
 6407TIP3   OH243415   4.432   1.221   1.716 -0.5896  0.0235 -0.0876
 6407TIP3    H143416   4.350   1.269   1.728 -0.8331 -0.1279 -1.0412
 6407TIP3    H243417   4.468   1.213   1.804 -1.7487 -0.1640  0.3946
 6408TIP3   OH243418   4.306   4.933   0.469  0.0309 -0.5810 -0.1151
 6408TIP3    H143419   4.324   4.980   0.550 -0.2185 -2.1827  0.9185
 6408TIP3    H243420   4.213   4.948   0.452  0.1593  0.0313 -0.3049
 6409TIP3   OH243421   3.259   3.498   1.843 -0.3496 -0.1214 -0.1235
 6409TIP3    H143422   3.264   3.503   1.938 -1.7048  2.4883 -0.1012
 6409TIP3    H243423   3.171   3.531   1.822  0.5151  0.9795 -2.3263
 6410TIP3   OH243424   2.664   3.617   1.527  0.1705 -0.0761  0.4656
 6410TIP3    H143425   2.645   3.662   1.610 -1.9844 -0.2737  0.1229
 6410TIP3    H243426   2.656   3.685   1.461 -1.1759 -0.5354  0.1359
 6411TIP3   OH243427   4.586   3.248   0.808 -0.2588  0.1858 -0.2585
 6411TIP3    H143428   4.553   3.160   0.792 -1.0296  0.4015  0.1313
 6411TIP3    H243429   4.508   3.304   0.805  0.2142  0.8463 -0.4357
 6412TIP3   OH243430   6.796   5.611   2.530 -0.1540  0.4737 -0.3596
 6412TIP3    H143431   6.733   5.543   2.554  0.4627 -0.0269 -0.0983
 6412TIP3    H243432   6.744   5.689   2.512 -1.1100 -0.6039 -2.7816
 6413TIP3   OH243433   1.479   1.057   1.551 -0.4828  0.4383  0.0573
 6413TIP3    H143434   1.530   1.138   1.558  0.2271  0.0179 -0.2254
 6413TIP3    H243435   1.408   1.069   1.614  0.2271  0.8326  0.8090
 6414TIP3   OH243436   0.290   1.678   2.734  0.5386  0.3712  0.3276
 6414TIP3    H143437   0.336   1.659   2.815  2.2876  0.1530 -0.6750
 6414TIP3    H243438   0.278   1.773   2.735 -0.2780  0.2746  1.2396
 6415TIP3   OH243439   1.270   0.397   0.907 -0.6013 -0.1183  0.4569
 6415TIP3    H143440   1.211   0.428   0.839  1.1242  1.1287 -0.5698
 6415TIP3    H243441   1.336   0.346   0.860 -0.3548 -0.7346  1.4450
 6416TIP3   OH243442   1.705   7.493   3.811 -0.1261 -0.3350 -0.4702
 6416TIP3    H143443   1.616   7.488   3.777 -0.9084 -0.6690  1.4717
 6416TIP3    H243444   1.730   7.402   3.826  0.4800 -0.2314 -0.8305
 6417TIP3   OH243445   2.163   4.196   2.561 -0.1629  0.0516 -0.2426
 6417TIP3    H143446   2.230   4.184   2.628 -1.9591 -1.9472  1.3119
 6417TIP3    H243447   2.205   4.167   2.480  1.4467  0.7159  0.3072
 6418TIP3   OH243448   2.719   4.108   2.031  0.3604  0.0336  0.5039
 6418TIP3    H143449   2.741   4.014   2.028  1.0014  0.1478  1.2368
 6418TIP3    H243450   2.773   4.142   2.103 -1.5927  0.5064  1.8134
 6419TIP3   OH243451   6.628   1.238   3.201 -0.2839  0.2331 -0.3270
 6419TIP3    H143452   6.665   1.171   3.259 -1.6402 -2.2813 -2.1447
 6419TIP3    H243453   6.552   1.271   3.249  0.5242  0.6923  0.6881
 6420TIP3   OH243454   2.881   2.877   0.763  0.1653 -0.5057  0.5413
 6420TIP3    H143455   2.969   2.892   0.798  1.3620 -0.9910 -2.0235
 6420TIP3    H243456   2.836   2.960   0.776  2.1607  0.9305 -1.0988
 6421TIP3   OH243457   7.334   6.341   2.212  0.1573  0.1369 -0.7831
 6421TIP3    H143458   7.247   6.302   2.209  0.0384  0.4300 -1.2097
 6421TIP3    H243459   7.388   6.282   2.159  0.1879  0.0367 -0.6420
 6422TIP3   OH243460   6.699   6.867   2.707  0.2046  0.5093 -0.2630
 6422TIP3    H143461   6.684   6.949   2.754  1.2253  0.2603  0.5278
 6422TIP3    H243462   6.619   6.854   2.656 -0.1215  1.7985 -0.1137
 6423TIP3   OH243463   7.649   3.855   1.392 -0.4387 -0.2402  0.3284
 6423TIP3    H143464   7.662   3.918   1.321 -0.4906 -0.7898 -0.1718
 6423TIP3    H243465   7.736   3.843   1.430 -0.2312 -0.6855 -0.2774
 6424TIP3   OH243466   0.752   5.437   2.915 -0.2078 -0.0373 -0.1017
 6424TIP3    H143467   0.795   5.517   2.944 -2.1639  0.5805  1.3788
 6424TIP3    H243468   0.678   5.468   2.862 -2.0878 -0.6589  1.9975
 6425TIP3   OH243469   0.511   2.497   2.534 -0.0307  0.5455  0.0683
 6425TIP3    H143470   0.435   2.521   2.587 -1.1076 -0.1050 -1.1326
 6425TIP3    H243471   0.586   2.526   2.586 -0.8408 -2.2711  3.2484
 6426TIP3   OH243472   3.276   7.296   2.655  0.2423  0.4271  0.2167
 6426TIP3    H143473   3.206   7.323   2.594  0.4755  1.6090  0.4465
 6426TIP3    H243474   3.355   7.335   2.618  1.1620 -2.4449 -1.0760
 6427TIP3   OH243475   5.238   5.581   0.477 -0.6371  0.0012 -0.3504
 6427TIP3    H143476   5.161   5.526   0.463 -1.6732  1.5724 -1.1094
 6427TIP3    H243477   5.218   5.630   0.557  1.7639 -3.0596  2.4081
 6428TIP3   OH243478   6.816   4.667   2.726  0.3823  0.2006  0.1819
 6428TIP3    H143479   6.780   4.753   2.750 -0.3168  0.1698 -0.7313
 6428TIP3    H243480   6.839   4.627   2.810 -1.6438  0.2557  0.8259
 6429TIP3   OH243481   1.602   0.262   1.373 -0.0957 -0.3795 -0.6348
 6429TIP3    H143482   1.543   0.187   1.385 -0.7394  0.2074  0.0027
 6429TIP3    H243483   1.625   0.289   1.462 -2.3836  2.1015 -0.6498
 6430TIP3   OH243484   2.639   4.665   0.754  0.3028  0.0819  0.6397
 6430TIP3    H143485   2.566   4.726   0.746  1.1770  1.0033 -0.6327
 6430TIP3    H243486   2.717   4.718   0.737  1.1057 -1.3372 -0.2907
 6431TIP3   OH243487   2.587   6.694   1.142 -0.7328  0.2551  0.0742
 6431TIP3    H143488   2.517   6.632   1.159 -0.0213 -1.3843 -2.3889
 6431TIP3    H243489   2.552   6.752   1.075 -0.2961  0.4529  0.0102
 6432TIP3   OH243490   1.668   0.735   0.772  0.2836  0.0358 -0.3390
 6432TIP3    H143491   1.657   0.700   0.861 -0.9690 -0.0176 -0.4973
 6432TIP3    H243492   1.763   0.733   0.757  0.3473 -3.3529 -0.3652
 6433TIP3   OH243493   7.358   0.834   2.814 -0.2547  0.0755  0.0301
 6433TIP3    H143494   7.271   0.794   2.823 -0.9120  0.8502 -2.2195
 6433TIP3    H243495   7.341   0.928   2.821  0.7192  0.1531  1.5402
 6434TIP3   OH243496   3.900   2.898   2.844 -0.2430  0.1394 -0.5434
 6434TIP3    H143497   3.959   2.857   2.908 -0.1501  0.6672 -0.2790
 6434TIP3    H243498   3.835   2.943   2.898 -0.3657  0.3039 -0.8281
 6435TIP3   OH243499   1.718   6.438   0.770  0.4087  0.6627  0.1077
 6435TIP3    H143500   1.649   6.504   0.776 -1.2778 -0.9521 -0.3266
 6435TIP3    H243501   1.716   6.395   0.856  0.3854  0.1648 -0.1394
 6436TIP3   OH243502   3.966   1.021   1.359  0.2738  0.4361  0.1529
 6436TIP3    H143503   3.978   1.114   1.378 -0.7791  0.2785  1.8046
 6436TIP3    H243504   3.940   1.018   1.266  0.1260  1.8033  0.1346
 6437TIP3   OH243505   4.247   1.953   0.691  0.2811 -0.3666 -1.0055
 6437TIP3    H143506   4.203   1.886   0.743  0.4707  0.7848  0.7473
 6437TIP3    H243507   4.181   1.986   0.631 -0.9216  0.3881  0.6518
 6438TIP3   OH243508   1.248   6.562   1.619  0.0889 -0.0236 -0.0531
 6438TIP3    H143509   1.246   6.657   1.617 -0.2742  0.2440  3.9699
 6438TIP3    H243510   1.309   6.537   1.550  2.2574  3.3146  0.4376
 6439TIP3   OH243511   2.276   7.412   0.597 -0.1952 -0.5053  1.1329
 6439TIP3    H143512   2.307   7.502   0.594 -0.9900 -0.2424 -0.4699
 6439TIP3    H243513   2.196   7.412   0.543  0.1800 -2.2954  0.4969
 6440TIP3   OH243514   2.589   2.037   1.208 -0.1479 -0.7435  0.5779
 6440TIP3    H143515   2.563   1.992   1.128 -0.1996 -0.1902  0.2798
 6440TIP3    H243516   2.537   2.118   1.208  1.3831  0.2875  0.0710
 6441TIP3   OH243517   5.094   6.911   0.565  0.2367 -0.1898  0.1388
 6441TIP3    H143518   5.154   6.931   0.637  0.6472 -0.4701 -0.1167
 6441TIP3    H243519   5.099   6.988   0.507 -0.2831  0.1425  0.5318
 6442TIP3   OH243520   5.102   4.992   2.011  0.1707  0.2708 -0.2167
 6442TIP3    H143521   5.192   5.020   1.993  0.2538  1.2452  1.4840
 6442TIP3    H243522   5.063   4.978   1.925  0.9829  2.9789 -1.1300
 6443TIP3   OH243523   3.894   3.099   0.602 -0.0445 -0.5388  0.4198
 6443TIP3    H143524   3.911   3.021   0.549  1.4481 -1.0687  1.5933
 6443TIP3    H243525   3.861   3.065   0.685  1.5376 -0.0239  1.3012
 6444TIP3   OH243526   2.586   1.676   0.784  0.4102 -0.0292 -0.2460
 6444TIP3    H143527   2.597   1.581   0.787 -0.0540 -0.1404 -1.4879
 6444TIP3    H243528   2.675   1.711   0.782  0.5971 -0.5224 -1.4191
 6445TIP3   OH243529   0.020   5.969   1.986 -0.3374  0.2116 -0.1423
 6445TIP3    H143530   0.044   6.049   2.032  2.0135 -0.1344 -0.6370
 6445TIP3    H243531  -0.036   5.922   2.047  0.1247  1.1928  1.0753
 6446TIP3   OH243532   6.222   0.247   3.138 -0.1647  0.2722 -0.9598
 6446TIP3    H143533   6.184   0.178   3.192  2.5247 -1.8296 -1.5300
 6446TIP3    H243534   6.202   0.328   3.185 -0.9595 -1.1345  1.3083
 6447TIP3   OH243535   1.284   7.328   2.807  0.3410  0.3477 -0.4291
 6447TIP3    H143536   1.338   7.351   2.883 -0.8586  1.4003  0.1252
 6447TIP3    H243537   1.294   7.233   2.799  0.4392  0.2085  1.0885
 6448TIP3   OH243538   0.738   4.097   1.177  0.0007  0.0679  0.2743
 6448TIP3    H143539   0.653   4.089   1.219  0.5863  0.1281  1.5146
 6448TIP3    H243540   0.744   4.189   1.152 -0.9732 -0.2697 -1.3720
 6449TIP3   OH243541   7.633   2.143   3.762 -0.5298 -0.2237 -0.1046
 6449TIP3    H143542   7.644   2.207   3.691  1.1665  0.8931  1.0902
 6449TIP3    H243543   7.721   2.107   3.776 -0.5983  0.3085  2.0430
 6450TIP3   OH243544   6.508   7.091   2.754  0.1259 -0.4166  0.3272
 6450TIP3    H143545   6.448   7.104   2.681  0.2062  2.9482  0.7096
 6450TIP3    H243546   6.484   7.159   2.817  2.1506 -1.1368  1.9806
 6451TIP3   OH243547   3.025   0.404   1.439 -0.0091 -0.2369 -0.6992
 6451TIP3    H143548   3.116   0.390   1.414  0.4205  0.1704  0.5464
 6451TIP3    H243549   3.015   0.500   1.441 -0.3833 -0.2754 -0.5482
 6452TIP3   OH243550   2.527   3.047   1.479 -0.0673 -0.1928 -0.4374
 6452TIP3    H143551   2.524   3.136   1.514 -0.6027  0.4215 -1.9316
 6452TIP3    H243552   2.591   3.001   1.533 -0.0083  1.0159  0.5480
 6453TIP3   OH243553   7.393   4.663   1.540  0.1073  1.1529  0.2260
 6453TIP3    H143554   7.365   4.755   1.536  0.1714  1.1463 -0.5416
 6453TIP3    H243555   7.314   4.613   1.520 -0.5230  0.9155  2.9338
 6454TIP3   OH243556   4.895   3.005   1.299  0.3641  0.5593  0.2865
 6454TIP3    H143557   4.896   2.946   1.374  0.7313 -0.9025 -0.8256
 6454TIP3    H243558   4.954   3.076   1.323  0.0823  0.3703  1.5709
 6455TIP3   OH243559   5.267   4.194   2.508 -0.4924 -0.2470 -0.0556
 6455TIP3    H143560   5.211   4.266   2.479  0.4497  1.2316  1.5401
 6455TIP3    H243561   5.354   4.234   2.517  0.5197 -2.1063 -1.0317
 6456TIP3   OH243562   5.954   7.592   1.618  1.1513  0.7031 -0.1345
 6456TIP3    H143563   5.903   7.576   1.539  0.7799  1.8678 -0.1457
 6456TIP3    H243564   5.895   7.641   1.676  1.7722  0.8047  0.4265
 6457TIP3   OH243565   7.562   2.193   0.572  0.1413  0.2445 -0.4862
 6457TIP3    H143566   7.488   2.166   0.627 -0.4582  0.2541 -1.2667
 6457TIP3    H243567   7.540   2.159   0.485  0.3948  1.4196 -1.0239
 6458TIP3   OH243568   7.239   3.400   0.501  0.5088  0.0233 -0.3626
 6458TIP3    H143569   7.163   3.418   0.557 -1.0716 -0.6106 -2.1809
 6458TIP3    H243570   7.237   3.305   0.488  2.0488 -0.0913  0.0906
 6459TIP3   OH243571   6.695   2.883   2.229  0.3890  0.1988 -0.2514
 6459TIP3    H143572   6.784   2.848   2.237  0.9676  1.2969 -1.4988
 6459TIP3    H243573   6.665   2.893   2.319  1.5773 -0.0771  0.1977
 6460TIP3   OH243574   7.624   0.823   2.841 -0.0081  0.4523 -0.4270
 6460TIP3    H143575   7.532   0.821   2.812  0.0142  0.2370 -0.4867
 6460TIP3    H243576   7.627   0.894   2.905 -0.5126 -0.3990  0.5690
 6461TIP3   OH243577   2.048   4.932   1.044  1.1572 -0.0040  0.0489
 6461TIP3    H143578   2.064   4.868   0.975 -0.5125  1.0027 -1.3714
 6461TIP3    H243579   1.961   4.967   1.025  1.1135  1.1613  2.0139
 6462TIP3   OH243580   1.090   5.823   1.516  0.5426 -0.0381  0.5600
 6462TIP3    H143581   1.138   5.749   1.553  0.9438  0.1902  0.5020
 6462TIP3    H243582   1.157   5.877   1.474  0.5308  1.2986  2.1454
 6463TIP3   OH243583   6.400   7.623   2.656  0.1992  0.5313  0.3434
 6463TIP3    H143584   6.330   7.666   2.607  0.9446  2.0759  0.5566
 6463TIP3    H243585   6.479   7.673   2.633  1.1554 -0.8710  0.4644
 6464TIP3   OH243586   7.123   6.421   0.596  0.2239  0.3371  0.2212
 6464TIP3    H143587   7.212   6.386   0.603  0.0723  0.0521  0.7681
 6464TIP3    H243588   7.131   6.512   0.626  0.6147  0.7953 -1.1944
 6465TIP3   OH243589   2.369   0.497   1.485 -0.2228 -0.0569 -0.7717
 6465TIP3    H143590   2.445   0.480   1.541 -2.3949 -0.8301  2.1453
 6465TIP3    H243591   2.319   0.563   1.532 -1.8522 -0.2676 -2.1235
 6466TIP3   OH243592   5.028   7.060   2.408  0.1508 -0.3886 -0.5456
 6466TIP3    H143593   5.109   7.080   2.360  1.5166 -0.2632  1.6690
 6466TIP3    H243594   5.016   7.136   2.465 -0.7292 -1.0588  0.1777
 6467TIP3   OH243595   6.816   5.444   0.401  0.0935  0.1734  0.2722
 6467TIP3    H143596   6.804   5.517   0.462 -2.0316  0.1497 -0.0366
 6467TIP3    H243597   6.727   5.421   0.373  0.9292  1.8878 -4.8425
 6468TIP3   OH243598   0.071   2.392   2.123  0.2298 -0.5915 -0.3612
 6468TIP3    H143599   0.081   2.460   2.057 -1.2652  0.1452  0.1230
 6468TIP3    H243600   0.036   2.316   2.075  1.0205 -0.7262 -0.7383
 6469TIP3   OH243601   7.509   3.761   2.447 -0.6759 -0.4476 -0.0624
 6469TIP3    H143602   7.591   3.800   2.416 -0.2587 -1.7761 -0.7160
 6469TIP3    H243603   7.536   3.706   2.521 -0.9253 -1.0230 -0.3866
 6470TIP3   OH243604   1.949   1.987   2.273 -0.3416 -0.1681 -0.0302
 6470TIP3    H143605   2.020   1.954   2.218 -1.6047 -0.0141 -1.8024
 6470TIP3    H243606   1.872   1.936   2.247 -1.0152  0.0109  1.5052
 6471TIP3   OH243607   0.500   6.655   2.291  0.6657 -0.3160  0.1264
 6471TIP3    H143608   0.491   6.750   2.302  1.1696 -0.3550  0.9719
 6471TIP3    H243609   0.426   6.618   2.339  1.7366 -0.4131  1.7869
 6472TIP3   OH243610   1.474   6.480   2.374 -0.1728  0.2345 -0.9989
 6472TIP3    H143611   1.447   6.421   2.444 -2.2022  0.8061 -1.2113
 6472TIP3    H243612   1.569   6.487   2.382 -0.0762 -1.7251  0.0535
 6473TIP3   OH243613   3.213   1.913   1.601  0.0636 -1.1767  0.0994
 6473TIP3    H143614   3.118   1.925   1.603  0.0562 -1.2993  1.4435
 6473TIP3    H243615   3.245   1.986   1.547 -0.6775 -0.1639  0.9741
 6474TIP3   OH243616   1.109   6.239   1.979  0.0717  0.1428 -0.4128
 6474TIP3    H143617   1.079   6.330   1.981 -0.3065  0.0124  1.0453
 6474TIP3    H243618   1.030   6.188   1.962  0.2479  0.0599 -1.0115
 6475TIP3   OH243619   6.817   0.059   3.204  0.2254  0.1211 -0.3004
 6475TIP3    H143620   6.897   0.110   3.191  1.8168 -2.2620 -0.3506
 6475TIP3    H243621   6.789   0.082   3.293  1.8951 -0.1732  0.3502
 6476TIP3   OH243622   2.056   6.760   1.595  0.1134 -0.2952 -0.3064
 6476TIP3    H143623   2.022   6.741   1.682 -0.9256 -0.3388 -0.7166
 6476TIP3    H243624   2.150   6.743   1.603 -0.0599 -0.9104  0.6367
 6477TIP3   OH243625   4.813   4.851   0.935  0.7539 -0.4345  0.4230
 6477TIP3    H143626   4.749   4.826   1.001  0.0476 -2.1013 -0.8176
 6477TIP3    H243627   4.777   4.931   0.896  0.2409 -0.4714  0.8107
 6478TIP3   OH243628   1.931   3.205   2.471 -0.1803  0.7622 -0.6169
 6478TIP3    H143629   1.940   3.183   2.564 -1.2913  1.3540 -0.3605
 6478TIP3    H243630   1.842   3.180   2.449 -0.2147  1.4638 -1.2933
 6479TIP3   OH243631   1.367   2.513   2.685 -0.0470 -0.3509  0.0346
 6479TIP3    H143632   1.376   2.607   2.673  0.9065 -0.2959  0.9947
 6479TIP3    H243633   1.318   2.483   2.609 -0.7465  0.9799 -0.0671
 6480TIP3   OH243634   5.498   5.521   0.562 -0.1845  0.6221  0.7411
 6480TIP3    H143635   5.536   5.606   0.539  2.5157 -0.1475  1.8734
 6480TIP3    H243636   5.407   5.526   0.534  0.9228  2.2899 -3.2093
 6481TIP3   OH243637   1.070   3.709   1.011  0.5755 -0.2178 -0.1571
 6481TIP3    H143638   1.012   3.634   1.028 -0.1668  0.5218  0.6789
 6481TIP3    H243639   1.040   3.776   1.072 -0.6738  1.7920 -2.7848
 6482TIP3   OH243640   5.981   7.534   3.200  0.3690  0.3471  0.2310
 6482TIP3    H143641   6.005   7.468   3.135 -1.5836 -1.4951  1.2624
 6482TIP3    H243642   6.050   7.530   3.266 -0.3622 -1.7250  0.9573
 6483TIP3   OH243643   4.158   4.944   0.876 -0.0735  0.0128  0.1349
 6483TIP3    H143644   4.246   4.907   0.873 -0.8977 -2.1875  1.0259
 6483TIP3    H243645   4.156   4.997   0.955  0.7491  0.9616 -0.4625
 6484TIP3   OH243646   0.672   2.813   1.354 -0.7788  0.1691  0.3050
 6484TIP3    H143647   0.623   2.787   1.276 -0.6828  0.1275  0.2579
 6484TIP3    H243648   0.673   2.736   1.410  1.1111 -0.5621 -0.6454
 6485TIP3   OH243649   1.911   4.535   2.751  0.6916  0.0816 -0.1483
 6485TIP3    H143650   1.837   4.543   2.811 -0.4650  1.5764 -1.6678
 6485TIP3    H243651   1.980   4.494   2.803 -0.9037 -0.5725  1.5746
 6486TIP3   OH243652   3.641   1.961   2.321  0.1631  0.0772 -0.8041
 6486TIP3    H143653   3.702   2.001   2.382  1.0800 -0.8419 -1.0775
 6486TIP3    H243654   3.625   2.028   2.255  1.5992  0.0549 -1.2113
 6487TIP3   OH243655   6.078   3.567   1.645 -0.2733 -0.0112 -0.2813
 6487TIP3    H143656   5.991   3.562   1.607 -0.1943  1.3049 -0.6588
 6487TIP3    H243657   6.069   3.625   1.720  0.1875 -0.2557 -0.0281
 6488TIP3   OH243658   4.685   3.509   1.123  0.6534 -0.2140 -0.2819
 6488TIP3    H143659   4.667   3.524   1.030  1.3509 -0.4860 -0.4667
 6488TIP3    H243660   4.768   3.554   1.139  0.1300  0.5347  0.4152
 6489TIP3   OH243661   7.420   0.192   0.586 -0.0455 -0.3982  0.2576
 6489TIP3    H143662   7.372   0.110   0.591  0.0821 -0.4320  1.0145
 6489TIP3    H243663   7.388   0.244   0.659  1.0034 -0.3903  0.7291
 6490TIP3   OH243664   7.494   4.331   0.511 -0.1876 -0.0428 -0.3584
 6490TIP3    H143665   7.536   4.384   0.444  0.0547  0.2982  0.0587
 6490TIP3    H243666   7.446   4.394   0.565 -0.4641 -0.3240 -0.2739
 6491TIP3   OH243667   4.426   4.274   2.236  0.5043  0.6587  0.1291
 6491TIP3    H143668   4.499   4.277   2.297  0.5218  1.3909  0.0772
 6491TIP3    H243669   4.350   4.303   2.288  0.1791 -0.4163  0.2753
 6492TIP3   OH243670   5.441   5.797   1.366 -0.4262 -0.2961 -0.2434
 6492TIP3    H143671   5.509   5.734   1.388 -1.4552 -1.5077 -0.3757
 6492TIP3    H243672   5.432   5.851   1.444 -0.1223 -0.8739  0.1969
 6493TIP3   OH243673   5.648   0.011   2.861 -0.4978  0.1066 -0.2520
 6493TIP3    H143674   5.674   0.054   2.943 -0.5443  1.0018 -0.6901
 6493TIP3    H243675   5.722  -0.047   2.840  0.1056  0.8488 -0.2417
 6494TIP3   OH243676   6.410   6.125   1.410  0.2507 -0.3109  0.5169
 6494TIP3    H143677   6.458   6.052   1.449  0.1420 -0.3802  0.5223
 6494TIP3    H243678   6.413   6.108   1.316  0.3053 -0.2719  0.5114
 6495TIP3   OH243679   2.597   2.652   0.708  0.1119 -0.1326 -0.1517
 6495TIP3    H143680   2.601   2.668   0.614 -0.8852 -4.6384 -1.1848
 6495TIP3    H243681   2.688   2.649   0.736  0.4766 -0.2179 -1.2965
 6496TIP3   OH243682   5.269   6.695   2.631 -0.1892  0.3640  0.1317
 6496TIP3    H143683   5.206   6.723   2.564 -0.0551  1.0507  0.2889
 6496TIP3    H243684   5.346   6.750   2.617  0.2469 -0.2308  0.1667
 6497TIP3   OH243685   4.993   3.854   1.836 -0.0091  0.0130 -0.3438
 6497TIP3    H143686   4.996   3.807   1.920  0.4653 -0.3001 -0.5293
 6497TIP3    H243687   4.960   3.789   1.774  0.2357  0.0510 -0.5169
 6498TIP3   OH243688   4.134   2.353   2.461 -0.7278 -0.4329 -0.3435
 6498TIP3    H143689   4.061   2.399   2.419 -0.7807  0.5882  0.7806
 6498TIP3    H243690   4.113   2.357   2.555  1.2467  0.7995  0.1136
 6499TIP3   OH243691   5.099   0.673   1.205  0.4140  0.2927  0.0944
 6499TIP3    H143692   5.149   0.607   1.157  0.8572  0.2754  0.5767
 6499TIP3    H243693   5.009   0.662   1.174  0.4222 -0.7584  0.4005
 6500TIP3   OH243694   2.741   1.138   1.804 -0.2324 -0.1061 -0.0899
 6500TIP3    H143695   2.770   1.074   1.869  0.8326  0.1028 -0.3450
 6500TIP3    H243696   2.806   1.132   1.734 -1.9918 -1.1874 -1.7273
 6501TIP3   OH243697   3.238   6.738   0.990 -0.3103  0.0595 -0.2809
 6501TIP3    H143698   3.298   6.724   0.916 -0.6865  0.1694 -0.6044
 6501TIP3    H243699   3.272   6.816   1.033  0.7604 -0.7971  0.5072
 6502TIP3   OH243700   2.670   7.601   2.594  0.4566 -0.1062 -0.4380
 6502TIP3    H143701   2.760   7.581   2.619 -0.2113 -0.7845  1.6523
 6502TIP3    H243702   2.645   7.675   2.650 -0.5842 -0.5761 -0.2434
 6503TIP3   OH243703   0.973   1.168   3.292  0.8855  0.0026 -0.5056
 6503TIP3    H143704   0.996   1.084   3.253 -0.8112 -1.2305  0.9895
 6503TIP3    H243705   0.909   1.206   3.232  2.4647  0.7996 -1.7544
 6504TIP3   OH243706   6.495   3.668   1.617  0.1214  0.0508  0.3088
 6504TIP3    H143707   6.440   3.597   1.651  1.9476 -0.3896  2.6396
 6504TIP3    H243708   6.442   3.747   1.626 -1.1149 -0.6955 -0.1837
 6505TIP3   OH243709   4.106   5.555   1.179  0.3854  0.1333 -0.1532
 6505TIP3    H143710   4.095   5.586   1.269  0.2315  0.8701 -0.4125
 6505TIP3    H243711   4.024   5.511   1.158  0.6287 -0.5067  0.2469
 6506TIP3   OH243712   0.128   2.012   1.678  0.2759 -0.0332  0.0209
 6506TIP3    H143713   0.102   1.928   1.640  0.4573 -0.0058 -0.1641
 6506TIP3    H243714   0.223   2.005   1.688  0.1940 -0.1478  0.7310
 6507TIP3   OH243715   1.768   2.421   0.689 -0.6501 -0.1497  0.4576
 6507TIP3    H143716   1.695   2.366   0.716 -0.2658 -0.9129 -0.0173
 6507TIP3    H243717   1.844   2.362   0.690 -0.3572  0.1741 -0.7799
 6508TIP3   OH243718   1.292   4.165   0.907  0.9528 -0.3428 -0.3296
 6508TIP3    H143719   1.209   4.159   0.860 -0.3949  1.5313  1.6626
 6508TIP3    H243720   1.358   4.137   0.843 -1.0819 -0.9658 -2.2596
 6509TIP3   OH243721   1.752   3.763   1.146  0.2711 -0.6663 -0.1852
 6509TIP3    H143722   1.837   3.793   1.113  0.4019  0.5801  1.1827
 6509TIP3    H243723   1.774   3.691   1.205  0.3955 -0.2387  0.2923
 6510TIP3   OH243724   6.354   2.526   1.358  0.3188  0.4361 -0.3788
 6510TIP3    H143725   6.308   2.458   1.309  1.0826  1.0604 -2.0267
 6510TIP3    H243726   6.289   2.596   1.367  0.6934  1.0562 -2.1402
 6511TIP3   OH243727   2.597   7.568   2.305  0.0364 -0.1370  0.8486
 6511TIP3    H143728   2.512   7.541   2.340  0.8289 -2.9379  0.8236
 6511TIP3    H243729   2.656   7.568   2.381  0.7206 -1.5482  0.3487
 6512TIP3   OH243730   7.196   2.915   1.858 -0.5048  0.2937  0.3019
 6512TIP3    H143731   7.125   2.928   1.922 -0.1189 -1.6116  1.1761
 6512TIP3    H243732   7.218   2.822   1.866  0.5804  0.3625 -1.5628
 6513TIP3   OH243733   4.551   0.404   1.035 -0.0577 -0.4740  0.2268
 6513TIP3    H143734   4.572   0.494   1.011  0.6047 -0.5944  0.3374
 6513TIP3    H243735   4.567   0.354   0.955  2.2938 -0.8993  0.8741
 6514TIP3   OH243736   3.449   4.714   2.259  0.4882 -0.6210  0.2125
 6514TIP3    H143737   3.396   4.776   2.311  0.7201 -0.4781  0.2815
 6514TIP3    H243738   3.475   4.764   2.182  1.2805 -0.3979  0.6147
 6515TIP3   OH243739   7.096   2.839   1.605 -0.2043  0.6087 -0.5323
 6515TIP3    H143740   7.081   2.926   1.568 -0.5972  0.5132 -0.6039
 6515TIP3    H243741   7.149   2.855   1.683  1.4221  0.7293 -1.6154
 6516TIP3   OH243742   3.741   1.402   1.299  0.6628 -0.9518 -0.2189
 6516TIP3    H143743   3.721   1.490   1.266 -1.2297 -0.0706  2.8590
 6516TIP3    H243744   3.835   1.405   1.317  0.4506  0.9448  0.9360
 6517TIP3   OH243745   4.994   4.972   1.770 -0.1476  0.1079  0.6845
 6517TIP3    H143746   4.901   4.959   1.752  0.2791 -1.9500 -0.2570
 6517TIP3    H243747   5.035   4.973   1.684  0.8459 -0.2121  1.1515
 6518TIP3   OH243748   1.711   0.197   2.678 -0.0600 -0.2576  0.3050
 6518TIP3    H143749   1.653   0.125   2.701 -1.5075  0.7993  0.1201
 6518TIP3    H243750   1.765   0.163   2.607  1.0588 -1.9505  1.8731
 6519TIP3   OH243751   0.667   2.319   1.023 -0.1780 -0.5659  0.0662
 6519TIP3    H143752   0.676   2.375   0.946 -0.7448 -1.3395 -0.5680
 6519TIP3    H243753   0.577   2.288   1.021 -0.4477  0.0510  1.4995
 6520TIP3   OH243754   2.532   3.865   1.798 -0.1637 -0.6512 -0.4132
 6520TIP3    H143755   2.507   3.953   1.824 -0.6868 -0.4720 -1.4718
 6520TIP3    H243756   2.624   3.857   1.823 -0.2880 -0.0421  0.2610
 6521TIP3   OH243757   6.678   0.043   2.933 -0.8440  0.1605  1.4350
 6521TIP3    H143758   6.691  -0.042   2.973  0.1925 -0.0657  0.6674
 6521TIP3    H243759   6.583   0.054   2.928 -1.0362 -1.6553  0.1306
 6522TIP3   OH243760   4.504   4.364   1.036 -0.4454 -0.2267  0.0546
 6522TIP3    H143761   4.581   4.381   1.091 -0.0920 -1.1365 -0.1325
 6522TIP3    H243762   4.457   4.447   1.034  0.6229  0.3975  0.0408
 6523TIP3   OH243763   3.728   7.158   0.699 -0.2962 -0.3408  0.0943
 6523TIP3    H143764   3.774   7.120   0.774  0.4247 -0.2678 -0.3031
 6523TIP3    H243765   3.652   7.101   0.686 -0.4268 -0.3550  0.8726
 6524TIP3   OH243766   0.914   6.236   0.719 -0.8682 -0.0731  0.1331
 6524TIP3    H143767   0.923   6.331   0.724  0.4347 -0.1363 -0.4712
 6524TIP3    H243768   0.955   6.204   0.800 -0.2302 -0.1563 -0.2152
 6525TIP3   OH243769   0.341   6.388   0.806  0.0939  0.1328  0.0332
 6525TIP3    H143770   0.374   6.412   0.893  0.6214  0.0732 -0.1451
 6525TIP3    H243771   0.362   6.295   0.798  1.7422  0.5386 -0.8813
 6526TIP3   OH243772   4.485   2.130   1.136  0.2587 -0.1545  0.0295
 6526TIP3    H143773   4.415   2.160   1.080  1.9760  1.9242 -1.1357
 6526TIP3    H243774   4.441   2.101   1.216 -1.7861  3.1924  0.2750
 6527TIP3   OH243775   1.992   5.726   1.024  0.0553 -0.2042  0.2779
 6527TIP3    H143776   1.970   5.707   1.116 -0.3964 -1.4819 -0.0660
 6527TIP3    H243777   1.909   5.715   0.978 -0.4070  3.2635  0.0548
 6528TIP3   OH243778   5.537   4.354   2.211 -0.1217  0.3899 -0.6291
 6528TIP3    H143779   5.456   4.372   2.162 -1.1208  0.4614  0.9845
 6528TIP3    H243780   5.516   4.278   2.265  0.6765  0.7923  0.2796
 6529TIP3   OH243781   7.597   0.084   2.392 -0.3885  0.2728 -0.0993
 6529TIP3    H143782   7.569   0.058   2.304 -1.2766 -1.4158  0.6297
 6529TIP3    H243783   7.572   0.176   2.400 -0.2613  0.4618 -1.6044
 6530TIP3   OH243784   3.184   6.880   1.928 -0.0811  0.6098 -0.0003
 6530TIP3    H143785   3.189   6.863   1.834 -0.7725  1.2730 -0.1672
 6530TIP3    H243786   3.150   6.969   1.935  1.1070  1.0161  0.8668
 6531TIP3   OH243787   0.084   3.699   0.895 -0.0319 -0.3797  0.5843
 6531TIP3    H143788   0.091   3.625   0.834 -0.2829 -0.5778  0.7961
 6531TIP3    H243789   0.062   3.659   0.979  0.6123 -0.1324  0.8745
 6532TIP3   OH243790   6.883   5.458   2.221 -0.1356 -0.0794 -0.6130
 6532TIP3    H143791   6.867   5.466   2.127 -3.5797  0.2637 -0.1349
 6532TIP3    H243792   6.826   5.524   2.260  1.9774  0.4904  1.7390
 6533TIP3   OH243793   2.101   2.131   2.674  0.4456 -1.0487 -0.1331
 6533TIP3    H143794   2.194   2.136   2.695  0.2922 -0.3404  0.4055
 6533TIP3    H243795   2.066   2.069   2.738  0.2258  0.0870  0.8911
 6534TIP3   OH243796   6.562   2.595   1.193  0.0022 -0.1377 -0.3287
 6534TIP3    H143797   6.496   2.571   1.258  0.0989 -0.2509 -0.2718
 6534TIP3    H243798   6.517   2.654   1.133  0.0300  0.3228  0.0957
 6535TIP3   OH243799   6.271   5.194   1.181 -0.1268  0.1306  0.2762
 6535TIP3    H143800   6.190   5.220   1.138  0.0123 -1.1492 -0.8197
 6535TIP3    H243801   6.340   5.231   1.126  0.0464 -1.1731 -0.4191
 6536TIP3   OH243802   5.506   0.888   2.329 -0.1754 -0.1389  0.1762
 6536TIP3    H143803   5.551   0.965   2.296  0.5321 -0.2578  0.8451
 6536TIP3    H243804   5.575   0.832   2.364 -0.8874  0.1604  2.2181
 6537TIP3   OH243805   3.981   5.783   1.733  0.0798  0.3059 -0.3858
 6537TIP3    H143806   4.062   5.834   1.735 -0.4797  1.1873  0.9663
 6537TIP3    H243807   3.947   5.795   1.645  1.7442 -0.6217 -1.1925
 6538TIP3   OH243808   1.585   3.624   0.670 -0.3713  0.2631 -0.5963
 6538TIP3    H143809   1.578   3.658   0.759  3.2078  1.2931 -0.5761
 6538TIP3    H243810   1.558   3.532   0.677 -0.2911  0.3622  1.5180
 6539TIP3   OH243811   4.307   3.393   1.358  0.2524 -0.2813  0.1569
 6539TIP3    H143812   4.337   3.304   1.340  0.9119  0.1980 -1.2754
 6539TIP3    H243813   4.216   3.383   1.385  0.0951 -1.3467 -0.7122
 6540TIP3   OH243814   1.735   1.326   1.874 -0.3883 -0.6741  0.5609
 6540TIP3    H143815   1.805   1.387   1.897 -1.0356  0.4580 -0.3090
 6540TIP3    H243816   1.654   1.377   1.885 -0.8521 -0.6863 -1.9989
 6541TIP3   OH243817   7.394   4.230   1.311  0.0534 -0.8008  0.4551
 6541TIP3    H143818   7.355   4.315   1.292  0.8345 -0.8522 -1.5746
 6541TIP3    H243819   7.485   4.250   1.335  0.2996 -1.0637 -0.2397
 6542TIP3   OH243820   2.151   4.835   2.177 -0.3776 -0.4959  0.0821
 6542TIP3    H143821   2.215   4.900   2.207 -0.0125 -0.4265 -0.8140
 6542TIP3    H243822   2.191   4.751   2.199 -0.1023 -0.4447 -0.2059
 6543TIP3   OH243823   3.760   1.798   2.595  0.8682 -0.0364 -0.2334
 6543TIP3    H143824   3.701   1.789   2.521  1.2580 -1.3447 -0.4131
 6543TIP3    H243825   3.718   1.862   2.652  0.2082  0.4403 -1.2259
 6544TIP3   OH243826   0.331   3.193   1.661 -0.1741 -0.5598  0.2201
 6544TIP3    H143827   0.317   3.099   1.670 -3.0117 -0.3388 -0.8861
 6544TIP3    H243828   0.266   3.233   1.719  1.4209  0.7734  1.1893
 6545TIP3   OH243829   0.021   5.059   0.706  0.1781 -0.5353  0.0594
 6545TIP3    H143830   0.094   5.088   0.760 -0.5694  1.7310 -0.0148
 6545TIP3    H243831   0.038   5.097   0.619 -0.5061 -0.9518 -0.2696
 6546TIP3   OH243832   3.332   5.941   0.867 -0.1202  0.4201 -0.0535
 6546TIP3    H143833   3.275   5.864   0.870 -0.7253  0.9027  1.4623
 6546TIP3    H243834   3.318   5.985   0.950  3.5596 -0.1693  1.0322
 6547TIP3   OH243835   4.718   4.453   1.205  0.3368  0.4534  0.8283
 6547TIP3    H143836   4.682   4.539   1.181  1.3391  0.8697  0.7880
 6547TIP3    H243837   4.808   4.455   1.174  0.4910 -0.4698  1.1898
 6548TIP3   OH243838   4.476   5.064   3.020  0.3408  0.1461  0.2773
 6548TIP3    H143839   4.485   5.054   3.115 -0.5778 -1.0311  0.2774
 6548TIP3    H243840   4.477   4.974   2.987  0.7547  0.5509 -0.8468
 6549TIP3   OH243841   2.821   2.421   0.561  0.0027  0.0909  0.5352
 6549TIP3    H143842   2.852   2.337   0.597  0.1350 -0.2550 -0.3677
 6549TIP3    H243843   2.730   2.406   0.539 -0.8815  1.1026  3.1606
 6550TIP3   OH243844   7.084   3.437   1.206 -0.1763  0.0863 -0.2981
 6550TIP3    H143845   7.158   3.409   1.152  1.2842 -0.3247  1.7882
 6550TIP3    H243846   7.088   3.381   1.283 -2.2170  0.5897  0.2320
 6551TIP3   OH243847   0.016   1.725   2.854 -0.0093 -0.2608  0.9191
 6551TIP3    H143848  -0.011   1.663   2.922  1.7730 -1.2591  0.7747
 6551TIP3    H243849   0.110   1.708   2.842 -0.6496 -1.9762 -3.5783
 6552TIP3   OH243850   5.943   6.849   0.620 -0.3253  0.2670  0.5250
 6552TIP3    H143851   6.013   6.784   0.616  0.1937  0.8689 -0.6095
 6552TIP3    H243852   5.874   6.806   0.672 -0.4452 -1.6301 -1.0825
 6553TIP3   OH243853   1.528   6.333   1.416 -0.2286 -0.2027  0.0378
 6553TIP3    H143854   1.594   6.378   1.364  1.1032 -0.9519  0.9976
 6553TIP3    H243855   1.507   6.394   1.486  0.6597 -0.5541  0.6345
 6554TIP3   OH243856   2.243   4.853   1.734  0.6079 -0.3306  0.1130
 6554TIP3    H143857   2.172   4.807   1.780  2.6212 -2.5050  1.2562
 6554TIP3    H243858   2.300   4.884   1.804  0.6113  1.8393 -0.7701
 6555TIP3   OH243859   0.439   1.661   2.949  0.2926  0.2789 -0.3293
 6555TIP3    H143860   0.447   1.699   3.036  1.3747 -0.4758 -0.0751
 6555TIP3    H243861   0.450   1.567   2.963  1.4093  0.2288 -1.3786
 6556TIP3   OH243862   3.102   0.440   2.219 -0.2268  0.3739  0.2383
 6556TIP3    H143863   3.046   0.434   2.142 -2.1693  0.0468  1.6282
 6556TIP3    H243864   3.046   0.417   2.292  1.4831  0.9872  1.8209
 6557TIP3   OH243865   0.145   1.313   0.620  0.6153 -0.0199  0.3923
 6557TIP3    H143866   0.160   1.246   0.687  0.3017  1.4942  2.0627
 6557TIP3    H243867   0.049   1.317   0.612  0.6134  0.4882  0.6109
 6558TIP3   OH243868   0.805   3.244   1.074 -0.2533  0.4467  0.2398
 6558TIP3    H143869   0.717   3.250   1.112 -0.9090 -0.1562 -1.0873
 6558TIP3    H243870   0.800   3.167   1.016  1.4898 -0.2647  0.9718
 6559TIP3   OH243871   7.215   5.856   1.276  0.3472  0.0195  0.3689
 6559TIP3    H143872   7.285   5.874   1.213  0.4080  0.9435  0.7002
 6559TIP3    H243873   7.145   5.817   1.223 -0.3297  2.4226 -0.6417
 6560TIP3   OH243874   0.495   1.789   0.503 -0.4446  0.2745 -0.7000
 6560TIP3    H143875   0.426   1.856   0.498 -0.4856  0.2152 -0.9714
 6560TIP3    H243876   0.450   1.707   0.485  0.0175  0.4457 -2.9085
 6561TIP3   OH243877   3.793   6.219   1.696  0.3265  0.7035 -0.1323
 6561TIP3    H143878   3.779   6.254   1.608  0.2139  0.2568 -0.2915
 6561TIP3    H243879   3.871   6.165   1.689 -0.8831 -1.1011 -0.4860
 6562TIP3   OH243880   6.679   4.564   2.510 -0.2976 -0.4653 -0.8180
 6562TIP3    H143881   6.619   4.634   2.484 -1.2387 -0.6885  0.6367
 6562TIP3    H243882   6.718   4.595   2.592 -1.6999 -2.1477  0.5491
 6563TIP3   OH243883   3.470   3.107   2.404  0.2390  0.9675 -0.0975
 6563TIP3    H143884   3.391   3.065   2.369 -0.5570  1.9183  0.5186
 6563TIP3    H243885   3.501   3.047   2.472  0.2890  0.4033 -0.6028
 6564TIP3   OH243886   7.450   0.426   1.372  0.1387 -0.2258 -0.1048
 6564TIP3    H143887   7.523   0.484   1.347  0.5729 -0.2125  1.1367
 6564TIP3    H243888   7.493   0.354   1.419 -0.6591 -0.1999  0.6688
 6565TIP3   OH243889   6.050   4.749   1.186  0.0417  0.0166  0.8183
 6565TIP3    H143890   6.142   4.724   1.185  0.4028  1.2578  0.0270
 6565TIP3    H243891   6.028   4.755   1.279  0.2348 -1.9886  1.0354
 6566TIP3   OH243892   4.906   2.352   1.589  0.3238  0.0202  0.4272
 6566TIP3    H143893   4.871   2.320   1.506  1.9690  0.4161 -0.4507
 6566TIP3    H243894   4.931   2.273   1.637 -0.6824 -0.2109  0.6007
 6567TIP3   OH243895   4.460   3.482   1.856  0.2806 -0.2097  0.2785
 6567TIP3    H143896   4.403   3.497   1.932 -0.8942  0.1662 -0.6533
 6567TIP3    H243897   4.400   3.479   1.782  1.2426 -2.1207 -0.4727
 6568TIP3   OH243898   5.857   7.519   1.363 -0.2821  0.5280  0.3716
 6568TIP3    H143899   5.762   7.506   1.352 -0.0776 -1.0998  0.2508
 6568TIP3    H243900   5.890   7.532   1.274 -0.3830  1.1870  0.4216
 6569TIP3   OH243901   6.878   2.376   3.275 -0.0524 -0.1013  0.0399
 6569TIP3    H143902   6.867   2.318   3.200 -1.2012  1.3978 -1.0207
 6569TIP3    H243903   6.950   2.434   3.250 -0.6295  0.5909 -0.0692
 6570TIP3   OH243904   5.811   2.707   1.512  0.7017 -0.2242  0.0048
 6570TIP3    H143905   5.745   2.747   1.569  0.3614  0.3636 -0.7738
 6570TIP3    H243906   5.762   2.679   1.435  1.1644 -0.9464 -0.0393
 6571TIP3   OH243907   2.180   6.266   1.499 -0.0647 -0.1813 -0.1963
 6571TIP3    H143908   2.255   6.321   1.523 -1.9327  3.3945 -1.8268
 6571TIP3    H243909   2.196   6.242   1.408 -0.0843 -0.9481 -0.0039
 6572TIP3   OH243910   4.693   5.456   1.160  0.5167 -0.2364  0.7085
 6572TIP3    H143911   4.771   5.499   1.124  1.1176 -1.4205  0.5655
 6572TIP3    H243912   4.630   5.527   1.171  1.7921  0.8344  1.3358
 6573TIP3   OH243913   3.948   2.752   2.286 -0.0030  0.0263 -0.3450
 6573TIP3    H143914   3.942   2.804   2.366 -1.4640  1.4286 -1.3137
 6573TIP3    H243915   4.029   2.782   2.244  0.3916 -0.2052  0.2312
 6574TIP3   OH243916   2.390   7.120   2.561  0.3058 -0.3141 -0.6503
 6574TIP3    H143917   2.316   7.085   2.511 -1.4948  0.0030  1.6446
 6574TIP3    H243918   2.365   7.211   2.579  2.1981  0.4242 -1.4496
 6575TIP3   OH243919   2.278   0.004   0.626 -0.1429 -0.1773 -0.3269
 6575TIP3    H143920   2.190   0.035   0.647  0.0715  0.3256 -0.1683
 6575TIP3    H243921   2.335   0.078   0.645  0.2886 -0.4122 -0.6810
 6576TIP3   OH243922   0.810   6.597   3.262 -0.3700  0.6171 -0.3276
 6576TIP3    H143923   0.840   6.506   3.264  1.3441  1.1312 -0.4824
 6576TIP3    H243924   0.721   6.592   3.228 -0.0257 -0.9462 -1.1338
 6577TIP3   OH243925   3.614   5.790   0.943 -0.4310  0.2262 -0.5427
 6577TIP3    H143926   3.539   5.757   0.894 -0.5717 -0.6284  0.2188
 6577TIP3    H243927   3.689   5.772   0.886 -0.7709  0.8954 -1.2163
 6578TIP3   OH243928   0.778   6.548   2.505  0.1932 -0.3766  0.5679
 6578TIP3    H143929   0.768   6.643   2.510 -0.3244 -0.4737  1.5596
 6578TIP3    H243930   0.809   6.532   2.415 -0.5735  0.6443  0.1026
 6579TIP3   OH243931   6.904   2.541   1.983 -0.8541  0.5666  0.2291
 6579TIP3    H143932   6.882   2.453   2.011  1.0641  0.2278  0.8316
 6579TIP3    H243933   6.961   2.529   1.907  0.2690  1.2095  0.9355
 6580TIP3   OH243934   5.159   6.119   1.221  0.3730  0.5151 -0.3034
 6580TIP3    H143935   5.131   6.209   1.234  0.3548  0.2566  1.6479
 6580TIP3    H243936   5.241   6.126   1.173  1.5884  1.7253  1.8245
 6581TIP3   OH243937   3.802   2.031   1.758 -0.0189  0.3967  0.4257
 6581TIP3    H143938   3.852   1.985   1.825 -1.3855  1.2738  2.1196
 6581TIP3    H243939   3.852   2.017   1.677  0.7103 -2.2526  1.2251
 6582TIP3   OH243940   3.835   2.299   1.480  0.1055  0.2673 -0.0956
 6582TIP3    H143941   3.901   2.363   1.507 -1.0239  1.3224  0.2447
 6582TIP3    H243942   3.854   2.221   1.532 -0.1614  1.2536  1.5406
 6583TIP3   OH243943   4.535   3.528   1.359 -0.0086  0.7640  0.6404
 6583TIP3    H143944   4.598   3.520   1.288  1.6191 -1.0586  2.1508
 6583TIP3    H243945   4.473   3.457   1.344  0.7957 -0.1287  1.4117
 6584TIP3   OH243946   3.282   5.922   1.678 -0.6090 -0.1569  0.2068
 6584TIP3    H143947   3.369   5.909   1.642 -0.6184 -1.5223  0.6037
 6584TIP3    H243948   3.296   5.974   1.757 -0.4672  1.8650 -1.0859
 6585TIP3   OH243949   6.316   0.696   1.512  0.3472 -0.0585  0.1099
 6585TIP3    H143950   6.406   0.665   1.518  0.4109 -0.0870 -0.8303
 6585TIP3    H243951   6.273   0.635   1.452 -0.0915  0.4014 -0.0554
 6586TIP3   OH243952   1.301   7.284   0.882  0.0470 -0.1210  0.3230
 6586TIP3    H143953   1.307   7.303   0.975 -0.3922  0.8563  0.1656
 6586TIP3    H243954   1.252   7.358   0.845  0.2737 -0.4541 -0.6911
 6587TIP3   OH243955   5.468   0.959   2.763  0.5113  0.0701 -0.0365
 6587TIP3    H143956   5.527   0.965   2.838  0.1797 -0.6075  0.2826
 6587TIP3    H243957   5.465   1.048   2.728  1.6180  0.1463  0.0165
 6588TIP3   OH243958   0.796   0.394   2.563 -0.0340 -0.2022  0.2057
 6588TIP3    H143959   0.760   0.391   2.652  0.5988 -1.1984  0.4433
 6588TIP3    H243960   0.766   0.314   2.522 -1.1891  0.7353 -0.8592
 6589TIP3   OH243961   2.936   2.255   1.743 -0.2312  0.3784 -0.5652
 6589TIP3    H143962   2.842   2.262   1.762 -0.3781  1.1891 -1.5356
 6589TIP3    H243963   2.949   2.306   1.663  1.2903  1.5115  0.3367
 6590TIP3   OH243964   4.925   1.352   2.727  0.0566 -0.2360  0.1666
 6590TIP3    H143965   4.973   1.408   2.789 -1.1735  1.3081 -0.1999
 6590TIP3    H243966   4.905   1.273   2.776  1.6318 -0.2803  0.7924
 6591TIP3   OH243967   4.677   4.255   1.715  0.1764  0.2669 -0.2949
 6591TIP3    H143968   4.688   4.297   1.629  0.1157 -0.1708 -0.5178
 6591TIP3    H243969   4.646   4.326   1.772  2.8363  1.2626  0.0570
 6592TIP3   OH243970   4.080   2.085   2.467  0.0908  0.2976 -0.4364
 6592TIP3    H143971   4.042   2.098   2.554  1.5662  1.1984  0.1265
 6592TIP3    H243972   4.083   2.173   2.429  0.8667  0.1455 -0.7563
 6593TIP3   OH243973   2.880   5.946   1.634 -0.1310  0.2702 -0.5191
 6593TIP3    H143974   2.937   5.965   1.709  0.4281 -3.2693  0.1619
 6593TIP3    H243975   2.916   5.998   1.562  1.4865  1.1320  0.8351
 6594TIP3   OH243976   6.856   1.599   1.793 -0.0542  0.4505 -0.3350
 6594TIP3    H143977   6.868   1.692   1.776 -0.4254  0.8411  1.3834
 6594TIP3    H243978   6.944   1.565   1.807 -0.0533  1.1615  1.8115
 6595TIP3   OH243979   7.041   0.116   1.466  0.2995  0.4305  0.3915
 6595TIP3    H143980   7.032   0.153   1.378 -0.7850 -1.3728 -0.2913
 6595TIP3    H243981   6.952   0.102   1.496  0.6712 -0.6198  1.0568
 6596TIP3   OH243982   4.159   4.563   1.877 -0.0436 -0.2560 -0.2953
 6596TIP3    H143983   4.229   4.566   1.943 -0.3091  0.1380 -0.0306
 6596TIP3    H243984   4.154   4.470   1.853  0.8080 -0.2403 -0.5752
 6597TIP3   OH243985   2.974   1.539   3.322 -0.3585 -0.1701  0.2339
 6597TIP3    H143986   3.040   1.592   3.368 -0.1169 -1.8025  1.8992
 6597TIP3    H243987   3.021   1.502   3.247  0.5027 -0.8329  1.0661
 6598TIP3   OH243988   2.879   1.686   2.832 -0.0302  0.2545  0.1136
 6598TIP3    H143989   2.963   1.676   2.878  0.9448 -0.0506 -1.6152
 6598TIP3    H243990   2.830   1.748   2.885  2.0392  1.9328  0.2137
 6599TIP3   OH243991   5.820   7.258   1.571 -0.0185  0.2511 -0.1218
 6599TIP3    H143992   5.823   7.342   1.618 -1.4751  0.9567 -1.2221
 6599TIP3    H243993   5.872   7.273   1.492  0.9606 -0.3870  0.3756
 6600TIP3   OH243994   3.044   4.692   2.381 -0.1175  0.4818  0.0498
 6600TIP3    H143995   3.052   4.780   2.417 -2.4637 -0.0227  2.1483
 6600TIP3    H243996   2.962   4.658   2.419  0.9840 -2.8100 -0.1855
 6601TIP3   OH243997   3.054   7.337   2.493  0.2502 -0.2898 -0.1783
 6601TIP3    H143998   2.969   7.308   2.460  0.6311 -0.6283 -0.8864
 6601TIP3    H243999   3.033   7.415   2.546 -0.9361 -2.4850  2.8586
 6602TIP3   OH244000   6.685   3.861   2.122 -0.2504 -0.2767 -0.6095
 6602TIP3    H144001   6.767   3.895   2.087  0.0892 -0.7888 -0.3137
 6602TIP3    H244002   6.711   3.803   2.194 -0.8405 -0.8333 -0.8308
 6603TIP3   OH244003   2.214   1.577   1.855 -0.3770 -0.4958  0.1144
 6603TIP3    H144004   2.176   1.494   1.826 -1.0373 -0.2641  0.2939
 6603TIP3    H244005   2.166   1.644   1.805 -0.8823 -0.1450  1.0495
 6604TIP3   OH244006   3.900   0.099   0.657 -0.0386 -0.2773 -0.3554
 6604TIP3    H144007   3.925   0.023   0.604  1.4007  1.0781 -1.7307
 6604TIP3    H244008   3.982   0.129   0.695 -0.5376  0.7753 -0.0814
 6605TIP3   OH244009   7.196   2.575   2.744 -0.0213  0.4455 -0.6169
 6605TIP3    H144010   7.157   2.534   2.821 -2.9957  1.5281 -1.4370
 6605TIP3    H244011   7.198   2.505   2.678 -0.5259  0.3721 -0.5514
 6606TIP3   OH244012   4.030   6.459   1.704 -0.4229 -0.2190 -0.3111
 6606TIP3    H144013   3.936   6.460   1.688 -0.6042 -2.9484  0.1720
 6606TIP3    H244014   4.056   6.367   1.693  1.4891 -0.2877  3.2178
 6607TIP3   OH244015   2.007   1.771   1.721 -0.4493 -0.1818  0.7007
 6607TIP3    H144016   2.077   1.813   1.671  0.0867 -1.1508  0.6038
 6607TIP3    H244017   1.927   1.791   1.673  0.2343 -2.7335 -1.7782
 6608TIP3   OH244018   4.814   6.125   1.786  0.7773  0.0176  0.2649
 6608TIP3    H144019   4.722   6.129   1.760  1.0114  1.6810 -0.3762
 6608TIP3    H244020   4.828   6.032   1.806 -0.0632 -1.0462 -3.2656
 6609TIP3   OH244021   2.359   1.472   2.995  0.5914  0.2560  0.2911
 6609TIP3    H144022   2.401   1.431   3.070 -3.2497  1.8564  3.6878
 6609TIP3    H244023   2.324   1.554   3.029 -4.4405 -0.5230 -2.1691
 6610TIP3   OH244024   0.520   2.739   8.098  0.0366  0.6011 -0.4554
 6610TIP3    H144025   0.597   2.772   8.143 -1.7051  5.5959 -0.5358
 6610TIP3    H244026   0.542   2.744   8.005  0.4409 -0.5380 -0.4342
 6611TIP3   OH244027   3.795   2.106   0.394 -0.1881  0.0189  0.3575
 6611TIP3    H144028   3.748   2.127   0.313 -0.5129  0.0821  0.5642
 6611TIP3    H244029   3.808   2.191   0.437  3.6352  0.6480 -1.5702
 6612TIP3   OH244030   1.805   2.842   0.501 -0.8447 -0.4609  0.5340
 6612TIP3    H144031   1.839   2.875   0.584  0.5657  0.6733 -0.4400
 6612TIP3    H244032   1.823   2.748   0.504 -1.1823 -0.4979  1.6638
 6613TIP3   OH244033   0.277   7.539   2.105 -0.2961 -0.1362  0.5629
 6613TIP3    H144034   0.265   7.615   2.048 -0.4881 -2.6268 -3.0484
 6613TIP3    H244035   0.367   7.547   2.136 -0.3380  1.5936  0.3796
 6614TIP3   OH244036   1.981   4.043   1.525 -0.2150 -0.2168  1.2405
 6614TIP3    H144037   2.075   4.050   1.512 -0.2774 -1.1536  0.1906
 6614TIP3    H244038   1.947   4.130   1.504  0.1921 -0.4680 -0.5697
 6615TIP3   OH244039   0.079   4.157   1.663 -0.2037  0.1609  0.0014
 6615TIP3    H144040   0.098   4.080   1.609  1.0738  0.8940 -0.6222
 6615TIP3    H244041  -0.003   4.191   1.628 -1.9886 -2.1099  1.6702
 6616TIP3   OH244042   7.657   2.979   2.423 -0.0876 -0.2146 -0.3171
 6616TIP3    H144043   7.592   3.031   2.376  0.0847  1.0583  0.8190
 6616TIP3    H244044   7.675   2.905   2.365 -1.7796 -0.0414 -1.0987
 6617TIP3   OH244045   1.090   4.040   3.303 -0.6643  0.1348  0.5421
 6617TIP3    H144046   1.057   3.987   3.230 -0.4970  0.8109 -0.0436
 6617TIP3    H244047   1.180   4.011   3.314 -1.0585 -0.8521  1.3294
 6618TIP3   OH244048   2.671   0.780   0.921  0.1679 -0.1029  0.2251
 6618TIP3    H144049   2.659   0.710   0.857 -0.0627  0.0870  0.0588
 6618TIP3    H244050   2.601   0.842   0.902 -0.6466 -0.6205  1.4447
 6619TIP3   OH244051   4.970   5.192   3.118  0.3460  0.1062 -0.5828
 6619TIP3    H144052   5.011   5.141   3.048  0.7287  0.6777 -0.7760
 6619TIP3    H244053   5.019   5.274   3.121 -1.6445  1.4351 -1.7721
 6620TIP3   OH244054   2.994   2.297   1.456  0.0630 -0.0358 -0.2651
 6620TIP3    H144055   2.961   2.346   1.381  0.4625 -0.5152 -0.7603
 6620TIP3    H244056   3.089   2.294   1.444 -0.0273 -1.8194 -0.8249
 6621TIP3   OH244057   6.154   7.092   2.207 -0.0209  0.2163  0.1660
 6621TIP3    H144058   6.146   7.059   2.297 -2.8366  0.1493 -0.0198
 6621TIP3    H244059   6.141   7.015   2.152  2.7058  0.0600 -0.3972
 6622TIP3   OH244060   5.444   3.457   1.864 -0.1121 -0.2707  0.1889
 6622TIP3    H144061   5.417   3.417   1.947  2.2883 -0.1193  1.1316
 6622TIP3    H244062   5.501   3.529   1.890  0.7041 -0.2172 -1.6153
 6623TIP3   OH244063   2.893   1.293   3.353  0.5039 -0.1394 -0.1931
 6623TIP3    H144064   2.927   1.374   3.390  0.4924  0.1188 -0.7348
 6623TIP3    H244065   2.805   1.285   3.389  0.1936  0.5259 -0.7670
 6624TIP3   OH244066   1.563   4.651   1.191 -0.1771  0.1762 -0.0912
 6624TIP3    H144067   1.643   4.601   1.206  0.6778  1.4692 -0.2447
 6624TIP3    H244068   1.566   4.722   1.256 -1.4124  0.0132  0.1837
 6625TIP3   OH244069   4.579   3.482   2.349  0.1932  0.2363  0.6487
 6625TIP3    H144070   4.541   3.479   2.437  0.4826  0.9126  0.8030
 6625TIP3    H244071   4.657   3.536   2.359 -0.0276  0.7090 -0.1165
 6626TIP3   OH244072   0.498   6.913   2.238  0.4256  0.2653  0.1516
 6626TIP3    H144073   0.489   6.885   2.147  2.4870  0.6706 -0.2171
 6626TIP3    H244074   0.575   6.970   2.239  0.0279  0.8702  2.0295
 6627TIP3   OH244075   5.690   7.489   1.641 -0.0541 -0.0727 -0.1887
 6627TIP3    H144076   5.667   7.579   1.618  0.8268  0.4323  0.8625
 6627TIP3    H244077   5.637   7.470   1.719  0.2047 -0.2617 -0.0587
 6628TIP3   OH244078   3.685   5.429   2.300  0.1270  0.3476  0.1219
 6628TIP3    H144079   3.595   5.463   2.304  0.3876  0.9403  1.2201
 6628TIP3    H244080   3.715   5.454   2.212  0.3613  3.1688  0.9153
 6629TIP3   OH244081   7.449   7.569   0.803  0.3529 -0.4800 -0.1056
 6629TIP3    H144082   7.428   7.659   0.831  1.3349  0.0842 -1.0914
 6629TIP3    H244083   7.394   7.555   0.726  0.8673 -0.3822 -0.4910
 6630TIP3   OH244084   3.741   5.801   2.624  0.1717 -0.4916  0.0632
 6630TIP3    H144085   3.822   5.750   2.623  0.4691 -0.0640 -1.5121
 6630TIP3    H244086   3.676   5.742   2.587  0.1965 -0.2383 -0.4013
 6631TIP3   OH244087   2.791   7.480   3.330 -0.0258 -0.1083  0.0734
 6631TIP3    H144088   2.809   7.387   3.315 -1.3320 -0.4026  0.1605
 6631TIP3    H244089   2.824   7.498   3.418  1.8591 -0.0025 -0.5992
 6632TIP3   OH244090   5.458   0.157   0.535 -0.6703 -0.2460 -0.0443
 6632TIP3    H144091   5.507   0.078   0.511  0.5908  0.3111  0.6045
 6632TIP3    H244092   5.371   0.125   0.558  0.4293 -1.7616  2.3826
 6633TIP3   OH244093   5.064   4.074   2.651  0.2836 -0.0699  0.3287
 6633TIP3    H144094   5.123   4.141   2.616 -0.9398  1.0332  0.3091
 6633TIP3    H244095   5.100   3.992   2.619 -0.0226  0.7954 -2.4406
 6634TIP3   OH244096   4.201   3.235   2.544 -0.4522 -0.4301 -0.2986
 6634TIP3    H144097   4.162   3.206   2.627  1.0092  1.7756  1.2620
 6634TIP3    H244098   4.272   3.172   2.527 -0.4642 -0.6268  0.3638
 6635TIP3   OH244099   2.435   5.771   2.752 -0.1349  0.9433  0.1195
 6635TIP3    H144100   2.493   5.846   2.767 -0.9964  1.6055  0.2204
 6635TIP3    H244101   2.373   5.774   2.825  1.3091 -1.3692  1.6035
 6636TIP3   OH244102   4.216   3.274   1.104  0.5983 -0.2280  0.0826
 6636TIP3    H144103   4.233   3.334   1.176 -1.7472  0.5647  0.0753
 6636TIP3    H244104   4.204   3.189   1.145 -0.0014  0.0825  0.5593
 6637TIP3   OH244105   5.822   5.256   1.241 -0.0489 -0.5505 -0.0014
 6637TIP3    H144106   5.830   5.162   1.225 -0.4125 -0.9196  1.8333
 6637TIP3    H244107   5.842   5.296   1.156 -1.9912 -2.3380 -1.3936
 6638TIP3   OH244108   7.590   0.245   1.543 -0.6593  0.0262  0.7217
 6638TIP3    H144109   7.683   0.239   1.563 -1.0752  1.1495  3.4651
 6638TIP3    H244110   7.556   0.158   1.564 -0.4082 -0.0479  0.8220
 6639TIP3   OH244111   3.983   1.345   2.102 -0.1451 -0.2094  0.6907
 6639TIP3    H144112   4.041   1.279   2.141  1.0809  0.1421 -0.4509
 6639TIP3    H244113   3.896   1.304   2.102  0.2438 -1.0737  1.7124
 6640TIP3   OH244114   0.433   3.171   2.876 -0.0402 -0.4925  0.5685
 6640TIP3    H144115   0.389   3.224   2.943  0.1834  0.1469  0.2152
 6640TIP3    H244116   0.447   3.086   2.919  0.8742  0.1680  1.6495
 6641TIP3   OH244117   3.596   2.124   1.317 -0.8023  0.4049  1.2021
 6641TIP3    H144118   3.673   2.177   1.336  0.6884 -0.3046 -2.1799
 6641TIP3    H244119   3.618   2.037   1.351 -1.0553  0.6783  2.1041
 6642TIP3   OH244120   0.776   2.672   0.979  0.2639 -0.4860  0.0189
 6642TIP3    H144121   0.776   2.662   0.884  2.6094  2.2023 -0.4210
 6642TIP3    H244122   0.843   2.611   1.010  1.3856  0.4712 -0.4317
 6643TIP3   OH244123   4.839   4.831   2.163  0.2758  0.3304 -0.0924
 6643TIP3    H144124   4.784   4.893   2.116  0.5564 -0.9437 -2.2256
 6643TIP3    H244125   4.829   4.749   2.115  0.9717 -0.9559  1.8210
 6644TIP3   OH244126   1.330   5.197   0.739  0.1063 -0.3920  0.5608
 6644TIP3    H144127   1.368   5.135   0.801  1.0642 -0.9337 -0.5246
 6644TIP3    H244128   1.365   5.170   0.654 -0.1323  1.1199 -0.0479
 6645TIP3   OH244129   4.370   7.460   2.300 -0.2202  0.4066 -0.6406
 6645TIP3    H144130   4.454   7.464   2.347  1.1540  1.5353 -2.9907
 6645TIP3    H244131   4.305   7.445   2.368  1.9416 -1.1893  1.2186
 6646TIP3   OH244132   2.626   3.495   3.000  0.0697  0.3207  0.0898
 6646TIP3    H144133   2.542   3.533   3.025  0.9507  2.1407  0.4505
 6646TIP3    H244134   2.617   3.473   2.907 -0.8639  0.2673  0.1892
 6647TIP3   OH244135   3.737   1.577   3.201  0.0585  0.2687  0.4764
 6647TIP3    H144136   3.651   1.611   3.181 -0.6347 -2.1269 -1.1384
 6647TIP3    H244137   3.778   1.644   3.256 -1.8898  2.5731 -0.6933
 6648TIP3   OH244138   2.213   7.504   3.468 -0.0607 -0.1744 -0.2914
 6648TIP3    H144139   2.290   7.502   3.524  0.5109  1.1390 -0.9706
 6648TIP3    H244140   2.248   7.494   3.379 -0.7050  0.0873 -0.5821
 6649TIP3   OH244141   3.577   2.183   2.998 -0.2683  0.4016 -0.1880
 6649TIP3    H144142   3.625   2.116   3.047  0.0128  0.7366 -0.0058
 6649TIP3    H244143   3.498   2.199   3.049 -0.2054  0.4023 -0.0907
 6650TIP3   OH244144   3.780   1.029   2.163 -0.0152  0.4684  0.1723
 6650TIP3    H144145   3.848   0.999   2.224  0.0145 -1.7023 -0.8142
 6650TIP3    H244146   3.795   0.976   2.084 -3.8128 -1.3278  0.4440
 6651TIP3   OH244147   6.845   3.811   0.968 -0.1427 -0.0617  0.1848
 6651TIP3    H144148   6.860   3.752   1.042  0.1021  0.4292  0.5378
 6651TIP3    H244149   6.873   3.897   1.000  0.7044  0.0247 -0.7295
 6652TIP3   OH244150   3.508   1.322   1.193 -0.0320  0.9021  0.6371
 6652TIP3    H144151   3.471   1.392   1.139 -0.5092  0.0904 -0.1111
 6652TIP3    H244152   3.602   1.341   1.196  0.1338  0.5583 -1.1476
 6653TIP3   OH244153   1.975   1.595   2.452 -0.1303  0.7110  0.2989
 6653TIP3    H144154   1.892   1.610   2.407 -1.6537  0.5727  2.8469
 6653TIP3    H244155   1.956   1.525   2.514  2.2882 -0.2318  0.0757
 6654TIP3   OH244156   3.363   7.542   0.881  0.4078  0.0888 -0.0635
 6654TIP3    H144157   3.355   7.632   0.849 -0.6125  0.8093  2.0112
 6654TIP3    H244158   3.443   7.510   0.840  2.5560  3.0211  1.4131
 6655TIP3   OH244159   0.927   2.438   2.495  0.4763  0.1715 -0.3830
 6655TIP3    H144160   0.903   2.522   2.534 -0.2716 -0.6515  0.9960
 6655TIP3    H244161   0.855   2.379   2.517  0.3436 -0.5391 -2.4571
 6656TIP3   OH244162   3.239   3.999   1.932 -0.2253  0.4174 -0.2372
 6656TIP3    H144163   3.313   4.033   1.982 -0.3015  0.8424 -0.4036
 6656TIP3    H244164   3.219   4.069   1.869  0.9862 -0.7746 -2.0555
 6657TIP3   OH244165   4.077   7.533   1.548  0.2976  0.7845 -0.0607
 6657TIP3    H144166   3.993   7.567   1.578  0.1631  0.6418 -0.2698
 6657TIP3    H244167   4.139   7.603   1.566  0.7483 -0.3001  3.1088
 6658TIP3   OH244168   5.651   1.090   0.792 -0.5460 -0.6710  0.2477
 6658TIP3    H144169   5.638   1.157   0.858 -1.1970  0.7094 -1.2097
 6658TIP3    H244170   5.564   1.076   0.754  0.0763 -0.0645 -1.5328
 6659TIP3   OH244171   4.346   1.308   3.111 -0.4224  0.3799 -0.4351
 6659TIP3    H144172   4.361   1.357   3.192 -1.0023 -0.5292  0.2400
 6659TIP3    H244173   4.431   1.309   3.066 -0.0073  0.5993  0.3414
 6660TIP3   OH244174   4.035   6.749   2.858  0.3101 -0.1259  0.1419
 6660TIP3    H144175   3.947   6.780   2.879 -0.1092 -0.9730 -0.2793
 6660TIP3    H244176   4.021   6.662   2.819  1.3617 -0.4547  0.4543
 6661TIP3   OH244177   3.059   4.020   2.782 -0.2016  0.1947  0.6851
 6661TIP3    H144178   3.149   4.053   2.782 -0.5197  1.1444  2.0368
 6661TIP3    H244179   3.053   3.965   2.860 -0.1628 -1.8061 -0.6626
 6662TIP3   OH244180   0.303   7.174   0.780  0.0662  0.3711  0.3293
 6662TIP3    H144181   0.317   7.261   0.743 -2.3802  0.6900  0.0226
 6662TIP3    H244182   0.336   7.181   0.870 -1.0303  1.9644  0.6529
 6663TIP3   OH244183   4.033   5.111   2.673  0.2565  0.7945  0.4000
 6663TIP3    H144184   3.966   5.047   2.649  0.6670  0.7940 -0.8597
 6663TIP3    H244185   4.101   5.061   2.718  0.0976  0.5209  0.3331
 6664TIP3   OH244186   5.322   6.267   1.790 -0.6878 -0.3165  0.1950
 6664TIP3    H144187   5.266   6.335   1.829  1.4397  1.0784  1.0462
 6664TIP3    H244188   5.382   6.316   1.733 -2.5738 -2.1298 -3.6505
 6665TIP3   OH244189   4.850   0.790   1.533  0.0752 -0.5370 -0.9634
 6665TIP3    H144190   4.916   0.731   1.570 -0.9908 -0.6855  0.8540
 6665TIP3    H244191   4.785   0.731   1.494 -0.0194 -0.4823 -0.8887
 6666TIP3   OH244192   4.228   0.206   1.686 -0.5215  0.0475 -0.4082
 6666TIP3    H144193   4.178   0.205   1.605 -0.3167 -0.8669 -0.5314
 6666TIP3    H244194   4.253   0.297   1.698  0.6922 -0.0148 -2.1498
 6667TIP3   OH244195   1.761   4.251   1.451 -0.2973 -0.2034  0.2306
 6667TIP3    H144196   1.762   4.173   1.395 -0.1907 -0.0166 -0.0324
 6667TIP3    H244197   1.695   4.232   1.517 -2.7782  0.8463 -1.7834
 6668TIP3   OH244198   7.450   3.171   1.540  0.2742 -0.4905  0.0689
 6668TIP3    H144199   7.414   3.173   1.629 -1.1115  0.9962 -0.4716
 6668TIP3    H244200   7.531   3.220   1.545 -0.9068  1.5677  0.1239
 6669TIP3   OH244201   0.387   2.323   0.486  0.5074 -0.6103  0.4254
 6669TIP3    H144202   0.365   2.235   0.456  0.0842 -0.5116  0.4419
 6669TIP3    H244203   0.469   2.344   0.441 -0.7767  0.0767 -1.7973
 6670TIP3   OH244204   0.925   0.288   1.951  0.2890  0.7243  0.1871
 6670TIP3    H144205   0.969   0.205   1.972 -1.7876 -0.4345  0.1797
 6670TIP3    H244206   0.955   0.348   2.020  0.5208 -0.5152  1.2138
 6671TIP3   OH244207   4.420   1.528   2.603  0.3021 -0.3290  0.0745
 6671TIP3    H144208   4.446   1.538   2.695  1.2419  1.8436 -0.3690
 6671TIP3    H244209   4.366   1.605   2.585  0.8333 -0.2840 -1.4128
 6672TIP3   OH244210   0.516   5.307   2.411 -0.6817 -0.0734  0.2459
 6672TIP3    H144211   0.430   5.335   2.380 -0.3111  0.7260 -0.0686
 6672TIP3    H244212   0.497   5.248   2.484 -1.4942  0.0874  0.1713
 6673TIP3   OH244213   3.247   1.217   2.233 -0.4910  0.1999  0.6265
 6673TIP3    H144214   3.302   1.260   2.167  1.3890  1.4486  2.8619
 6673TIP3    H244215   3.255   1.124   2.214  2.7877  0.2879  0.9974
 6674TIP3   OH244216   3.489   0.990   2.785 -0.0034 -0.0679  0.4236
 6674TIP3    H144217   3.473   1.079   2.818  0.6134 -0.2753  1.3209
 6674TIP3    H244218   3.475   0.934   2.861  2.0889 -0.5045  0.5429
 6675TIP3   OH244219   2.308   6.281   2.172  0.0507  0.3092  0.4313
 6675TIP3    H144220   2.218   6.256   2.152 -0.3356  2.5101 -0.9855
 6675TIP3    H244221   2.302   6.334   2.252  0.2133 -0.1655  0.7646
 6676TIP3   OH244222   5.161   1.325   2.266  0.4328  0.0555 -0.4210
 6676TIP3    H144223   5.254   1.310   2.282  0.7102  1.7136 -0.2497
 6676TIP3    H244224   5.159   1.371   2.181 -0.2928 -0.5922 -0.7631
 6677TIP3   OH244225   4.103   4.932   2.360  0.0746 -0.1008  0.4047
 6677TIP3    H144226   4.034   4.887   2.408 -0.7207 -0.7234 -1.2489
 6677TIP3    H244227   4.068   5.020   2.345  0.2588  0.0441  0.8010
 6678TIP3   OH244228   6.745   7.493   1.834  0.0948 -0.5678 -0.2962
 6678TIP3    H144229   6.761   7.586   1.820 -1.9810 -0.2058 -0.5705
 6678TIP3    H244230   6.705   7.463   1.753  0.5383 -1.6744 -0.1276
 6679TIP3   OH244231   5.070   7.398   1.657  0.3605 -0.1211 -0.1617
 6679TIP3    H144232   4.976   7.389   1.640  0.2280 -1.2272  1.0052
 6679TIP3    H244233   5.102   7.309   1.662  1.1853  0.2217  0.9416
 6680TIP3   OH244234   7.471   7.241   1.054 -0.0507 -0.4667  0.0126
 6680TIP3    H144235   7.388   7.279   1.028  0.1070  0.7259  1.1604
 6680TIP3    H244236   7.526   7.248   0.976 -0.8142 -0.6792 -0.5571
 6681TIP3   OH244237   3.532   6.154   2.249  0.1851 -0.6181  0.0467
 6681TIP3    H144238   3.624   6.182   2.257 -0.1350  0.3010  0.7035
 6681TIP3    H244239   3.515   6.156   2.154  0.4633  0.5368  0.0054
 6682TIP3   OH244240   2.454   4.162   1.780  0.3732 -0.4323  0.6373
 6682TIP3    H144241   2.536   4.209   1.766 -0.5759  1.2098  0.3578
 6682TIP3    H244242   2.413   4.206   1.855 -0.5200 -0.8634  0.4219
 6683TIP3   OH244243   1.027   7.427   3.044  0.4164  0.2753 -0.0021
 6683TIP3    H144244   1.117   7.459   3.043 -0.1051  1.8274 -0.2879
 6683TIP3    H244245   1.017   7.386   3.130  1.2037  0.6457  0.2726
 6684TIP3   OH244246   7.323   3.170   1.817  0.1115  0.0844 -0.0924
 6684TIP3    H144247   7.280   3.086   1.836  0.0383 -0.3522 -2.0273
 6684TIP3    H244248   7.345   3.205   1.903 -0.1310 -1.7788  0.7789
 6685TIP3   OH244249   6.766   5.724   3.098  0.0891 -0.0169  0.6378
 6685TIP3    H144250   6.844   5.677   3.070 -0.0358 -0.1071  0.4449
 6685TIP3    H244251   6.715   5.659   3.146 -0.0533 -0.0602  0.4258
 6686TIP3   OH244252   2.039   1.782   2.032 -0.5283  0.0119 -0.1045
 6686TIP3    H144253   2.122   1.827   2.046  0.6621 -1.5357 -1.7412
 6686TIP3    H244254   2.026   1.782   1.938 -1.7409 -0.8663  0.0280
 6687TIP3   OH244255   2.096   3.509   2.210  0.4208  0.0168 -0.2725
 6687TIP3    H144256   2.179   3.532   2.169  0.3693  1.8329  0.5424
 6687TIP3    H244257   2.029   3.545   2.151  0.3226  1.5068  0.6943
 6688TIP3   OH244258   4.896   4.448   0.672 -0.0847  0.0400  0.4609
 6688TIP3    H144259   4.834   4.396   0.723  1.5269 -0.6517  1.8078
 6688TIP3    H244260   4.900   4.404   0.587  1.2699 -2.2023  1.5700
 6689TIP3   OH244261   2.659   1.721   1.249 -0.7850 -0.2739  0.0211
 6689TIP3    H144262   2.686   1.646   1.197 -0.4475  0.0768 -0.3199
 6689TIP3    H244263   2.731   1.784   1.240 -0.8629 -0.0859  0.6613
 6690TIP3   OH244264   5.882   1.941   1.500 -0.0296 -0.1790 -0.2847
 6690TIP3    H144265   5.805   1.898   1.464 -0.1612  0.3948 -0.7064
 6690TIP3    H244266   5.847   2.008   1.559  0.1788 -0.8576  0.6369
 6691TIP3   OH244267   4.982   3.060   3.298 -0.0893 -0.5056 -0.0273
 6691TIP3    H144268   4.915   3.123   3.326  1.4662  1.4905 -0.6495
 6691TIP3    H244269   4.987   3.071   3.203  0.7445 -1.0277 -0.0477
 6692TIP3   OH244270   1.854   1.583   3.011 -0.3993 -0.1540 -0.3167
 6692TIP3    H144271   1.891   1.618   3.092 -0.6702 -2.9204  1.1184
 6692TIP3    H244272   1.931   1.554   2.961 -0.3500 -0.5964  0.0172
 6693TIP3   OH244273   2.856   5.225   1.336 -0.2123 -0.3447 -0.4173
 6693TIP3    H144274   2.885   5.289   1.400  1.5191 -1.5727  0.1222
 6693TIP3    H244275   2.762   5.239   1.328 -0.2554  0.7243  1.3973
 6694TIP3   OH244276   6.634   7.604   1.332  0.3140 -0.7865  0.1536
 6694TIP3    H144277   6.655   7.696   1.319  1.4148 -1.3126 -2.5159
 6694TIP3    H244278   6.719   7.561   1.342 -0.1831 -1.5520  1.3221
 6695TIP3   OH244279   6.745   0.156   1.528 -0.5148 -0.3608  0.3203
 6695TIP3    H144280   6.651   0.144   1.523 -0.6451  0.9285 -2.5693
 6695TIP3    H244281   6.770   0.185   1.440  2.3614  0.7655  1.3803
 6696TIP3   OH244282   2.312   0.626   1.724 -0.1872 -0.4579  0.1603
 6696TIP3    H144283   2.333   0.709   1.767  1.2226 -0.0924 -1.1531
 6696TIP3    H244284   2.289   0.567   1.797 -0.9192  0.9749  1.1316
 6697TIP3   OH244285   1.368   4.807   3.025  0.5221 -0.4444  0.2973
 6697TIP3    H144286   1.360   4.713   3.041  0.4337 -0.5957 -0.5762
 6697TIP3    H244287   1.285   4.831   2.984  0.7856 -0.1034 -0.0349
 6698TIP3   OH244288   5.594   0.713   1.867  0.1102 -0.2082  0.1111
 6698TIP3    H144289   5.542   0.668   1.933 -0.6278  1.6966  0.9143
 6698TIP3    H244290   5.533   0.773   1.825  0.6934 -0.9911 -1.9871
 6699TIP3   OH244291   6.515   0.168   3.375 -0.0642 -0.3902 -0.1837
 6699TIP3    H144292   6.480   0.254   3.401  2.4228  0.3051  1.2315
 6699TIP3    H244293   6.610   0.180   3.375  0.3126 -2.6947 -1.7705
 6700TIP3   OH244294   5.520   2.808   1.985 -0.2603  0.4134  0.0079
 6700TIP3    H144295   5.530   2.767   2.071 -0.4766 -0.4339 -0.3628
 6700TIP3    H244296   5.461   2.882   2.000  0.0498  0.5361  0.6640
 6701TIP3   OH244297   5.934   3.674   1.447  0.1506  0.0927  0.1984
 6701TIP3    H144298   5.892   3.760   1.438  0.0404  0.0425  0.2320
 6701TIP3    H244299   5.867   3.619   1.487  0.9453  0.5732  2.3228
 6702TIP3   OH244300   6.365   5.590   2.910 -0.1589 -0.3005 -0.1119
 6702TIP3    H144301   6.319   5.656   2.961  0.1554 -0.2017  0.0476
 6702TIP3    H244302   6.457   5.617   2.913 -0.2915  0.5107 -1.9340
 6703TIP3   OH244303   5.576   3.974   1.061  0.9766  0.2478 -0.1642
 6703TIP3    H144304   5.488   4.000   1.034  0.3775  1.2085  2.3705
 6703TIP3    H244305   5.633   4.011   0.994 -0.4795  0.4484 -1.3546
 6704TIP3   OH244306   7.385   5.668   2.799  0.2545  0.0041  0.0643
 6704TIP3    H144307   7.471   5.694   2.832  0.1797 -0.4896  0.6743
 6704TIP3    H244308   7.389   5.573   2.795  0.2775  0.0397 -1.4362
 6705TIP3   OH244309   2.945   0.453   2.005 -0.4293 -0.3378  0.1991
 6705TIP3    H144310   2.966   0.520   1.939 -0.5671 -0.0710  0.4230
 6705TIP3    H244311   2.865   0.413   1.974  0.0446 -0.9036 -0.3155
 6706TIP3   OH244312   4.789   7.118   0.993  0.4485 -0.5997 -0.1159
 6706TIP3    H144313   4.813   7.040   0.943  2.0920  0.7687 -1.6318
 6706TIP3    H244314   4.703   7.098   1.029  0.3190 -2.6614 -1.3881
 6707TIP3   OH244315   6.092   6.810   2.081  0.0194  0.1492 -0.5878
 6707TIP3    H144316   6.103   6.789   1.988  0.1306 -0.5125 -0.4249
 6707TIP3    H244317   6.011   6.862   2.084 -0.4945 -0.6179 -0.9397
 6708TIP3   OH244318   6.260   1.620   1.668 -0.0640 -1.1134  0.6737
 6708TIP3    H144319   6.327   1.644   1.604  0.1773  1.3524  1.7450
 6708TIP3    H244320   6.298   1.547   1.717  1.6759 -0.0682  0.9501
 6709TIP3   OH244321   0.372   1.778   1.382  0.4865  0.7854  0.5419
 6709TIP3    H144322   0.457   1.789   1.425  0.4176  1.3229  0.5531
 6709TIP3    H244323   0.335   1.866   1.379 -0.2013  0.5171  0.8049
 6710TIP3   OH244324   6.993   0.334   0.526 -0.1174  0.2187 -0.2370
 6710TIP3    H144325   7.032   0.273   0.464 -0.8367  0.4541 -0.9320
 6710TIP3    H244326   6.902   0.305   0.535 -0.2513  0.7049  0.0391
 6711TIP3   OH244327   0.745   5.581   0.929  0.3003 -0.2644  0.1277
 6711TIP3    H144328   0.676   5.638   0.963  0.4881  0.3529 -0.5028
 6711TIP3    H244329   0.720   5.494   0.958 -1.0806 -0.1436 -0.5778
 6712TIP3   OH244330   5.560   6.937   0.395  0.1383 -0.6743  0.5459
 6712TIP3    H144331   5.645   6.981   0.401 -0.2746  0.4913 -1.3696
 6712TIP3    H244332   5.582   6.846   0.375  0.9377 -0.5097  0.6373
 6713TIP3   OH244333   1.581   1.857   2.766  0.1253 -0.0767 -0.5647
 6713TIP3    H144334   1.602   1.793   2.698  0.1688 -1.7196  0.9193
 6713TIP3    H244335   1.620   1.821   2.846  1.6566  2.6866  0.0526
 6714TIP3   OH244336   2.024   4.180   1.791  0.4056  0.5330  0.5425
 6714TIP3    H144337   2.024   4.270   1.825 -0.3536  1.0064 -0.6302
 6714TIP3    H244338   1.943   4.174   1.741  0.3781 -0.8722  0.7251
 6715TIP3   OH244339   6.267   1.228   1.551 -0.1415  0.1901  0.3026
 6715TIP3    H144340   6.231   1.150   1.508  0.6569 -1.2616  2.1308
 6715TIP3    H244341   6.198   1.257   1.611  0.5249 -0.7579  1.5718
 6716TIP3   OH244342   6.770   4.309   1.075 -0.7579 -0.1637  0.0538
 6716TIP3    H144343   6.676   4.326   1.082 -0.6261 -0.0616  1.9487
 6716TIP3    H244344   6.804   4.325   1.162  1.0269 -0.2897 -0.5858
 6717TIP3   OH244345   6.994   1.352   1.680 -0.6451  0.2381  0.2958
 6717TIP3    H144346   6.942   1.315   1.609  0.8544 -0.5161 -0.4502
 6717TIP3    H244347   6.963   1.307   1.759 -0.2841 -1.1148 -0.3122
 6718TIP3   OH244348   2.609   1.990   1.905  0.3864 -0.3735 -0.4722
 6718TIP3    H144349   2.693   1.956   1.876  0.3421 -1.2366  0.3774
 6718TIP3    H244350   2.558   1.912   1.927 -0.4498  0.1621 -0.4750
 6719TIP3   OH244351   4.495   2.369   1.906 -0.1812  0.5737  0.1165
 6719TIP3    H144352   4.550   2.445   1.887 -1.5373  1.3235 -1.1014
 6719TIP3    H244353   4.417   2.406   1.948 -0.5993 -0.2079  0.0429
 6720TIP3   OH244354   4.916   6.777   1.890 -0.2680  0.0152  0.2831
 6720TIP3    H144355   4.861   6.830   1.833  0.2020  1.7086  1.3313
 6720TIP3    H244356   4.854   6.727   1.944 -0.7152 -0.6428 -0.8094
 6721TIP3   OH244357   2.440   1.391   1.441 -0.1228 -0.5470  0.0135
 6721TIP3    H144358   2.507   1.392   1.509 -0.3366  1.2766  0.2394
 6721TIP3    H244359   2.484   1.353   1.365  0.6001 -1.0929  0.6838
 6722TIP3   OH244360   3.471   1.749   3.201  0.6353 -0.7219 -0.1037
 6722TIP3    H144361   3.433   1.798   3.275 -2.1718  0.1159 -1.9200
 6722TIP3    H244362   3.439   1.660   3.214  0.5764 -0.6905 -0.0247
 6723TIP3   OH244363   6.227   3.880   0.894 -0.0957  0.0516  0.9003
 6723TIP3    H144364   6.300   3.845   0.945 -0.2901  0.0019  1.1474
 6723TIP3    H244365   6.232   3.836   0.809  0.9269  0.9790  0.4561
 6724TIP3   OH244366   4.084   4.844   1.601  1.0643 -0.8322  0.1987
 6724TIP3    H144367   4.039   4.829   1.518  2.4075 -0.1113 -0.6936
 6724TIP3    H244368   4.137   4.765   1.614  1.6375 -0.5092 -0.1588
 6725TIP3   OH244369   1.303   4.306   2.525  0.6365  0.8455 -0.2823
 6725TIP3    H144370   1.275   4.381   2.473  0.5740  0.7855 -0.3351
 6725TIP3    H244371   1.311   4.341   2.614  0.4834  0.8864 -0.2832
 6726TIP3   OH244372   5.797   5.977   1.192  0.2377 -0.3312  0.4052
 6726TIP3    H144373   5.706   5.971   1.161 -0.8029  1.7711  2.7478
 6726TIP3    H244374   5.810   5.897   1.243 -1.6343  0.8866  3.0143
 6727TIP3   OH244375   2.885   7.437   1.795  0.0688  0.2835  0.0833
 6727TIP3    H144376   2.973   7.401   1.795  0.2186  0.5895  1.5378
 6727TIP3    H244377   2.864   7.449   1.887 -1.5566  0.0736 -0.2241
 6728TIP3   OH244378   2.685   2.295   3.505  0.0757  0.6887  0.3202
 6728TIP3    H144379   2.599   2.324   3.534 -0.9705 -0.6310 -1.2926
 6728TIP3    H244380   2.701   2.215   3.555  0.1616  0.6709  0.2638
 6729TIP3   OH244381   7.609   3.238   0.667  0.1591  0.4463  0.2909
 6729TIP3    H144382   7.684   3.190   0.704  0.5673  0.4409 -0.5232
 6729TIP3    H244383   7.644   3.279   0.588 -0.6031  0.7735  0.1198
 6730TIP3   OH244384   2.447   6.283   1.418  0.2611 -0.2553  0.4176
 6730TIP3    H144385   2.464   6.360   1.364  0.5348  0.0577  0.9367
 6730TIP3    H244386   2.533   6.245   1.433  0.1321 -0.6251  0.2166
 6731TIP3   OH244387   3.886   4.580   1.524 -0.1893 -0.0377 -0.1478
 6731TIP3    H144388   3.808   4.605   1.574  1.1066  0.4005  1.7316
 6731TIP3    H244389   3.894   4.648   1.457 -1.1121  0.1877 -0.0499
 6732TIP3   OH244390   0.213   1.600   1.522 -0.2185  0.6304  0.5364
 6732TIP3    H144391   0.269   1.656   1.468  1.3650 -1.6580 -0.3451
 6732TIP3    H244392   0.240   1.618   1.612 -0.5314  2.0656  0.3606
 6733TIP3   OH244393   1.860   1.800   0.979  0.1115 -0.1089 -0.1494
 6733TIP3    H144394   1.938   1.746   0.977  2.3420  2.8217 -2.8811
 6733TIP3    H244395   1.808   1.771   0.904  0.1247  0.0186 -0.2078
 6734TIP3   OH244396   1.327   3.790   2.126 -0.4359  0.1340 -0.8497
 6734TIP3    H144397   1.252   3.825   2.079  0.4998  1.4302 -1.4547
 6734TIP3    H244398   1.402   3.835   2.087  0.8526 -2.3994 -1.5384
 6735TIP3   OH244399   6.938   3.637   0.658 -0.5322 -0.1588 -0.1192
 6735TIP3    H144400   6.973   3.717   0.698 -0.7708 -0.1584  0.0888
 6735TIP3    H244401   6.974   3.566   0.712  0.7573 -0.2809 -1.0866
 6736TIP3   OH244402   4.939   4.108   1.321 -0.2792  0.3003  0.1458
 6736TIP3    H144403   4.893   4.095   1.404 -0.0116 -0.3538  0.1981
 6736TIP3    H244404   4.970   4.020   1.297  2.6155  0.9768  1.0796
 6737TIP3   OH244405   5.123   6.433   0.489  0.5271  0.0881  0.5078
 6737TIP3    H144406   5.055   6.392   0.435  0.9815 -1.1916  0.8852
 6737TIP3    H244407   5.155   6.506   0.436  1.4336 -1.5308 -1.2696
 6738TIP3   OH244408   5.022   3.061   1.692 -0.9220  0.0448 -0.5380
 6738TIP3    H144409   5.093   3.000   1.714 -0.8126  0.1433 -0.6155
 6738TIP3    H244410   5.065   3.146   1.687 -1.4505  0.5226  1.8131
 6739TIP3   OH244411   7.479   3.766   0.804  0.1118 -0.0841  0.7953
 6739TIP3    H144412   7.500   3.679   0.771 -1.6231 -0.1330 -0.2744
 6739TIP3    H244413   7.544   3.781   0.873  1.6274 -1.4261 -0.2570
 6740TIP3   OH244414   3.588   5.565   2.574  0.3361 -0.2499 -0.4124
 6740TIP3    H144415   3.527   5.541   2.643  0.6154 -0.1814 -0.1415
 6740TIP3    H244416   3.556   5.518   2.497 -0.6379  0.5477 -0.5225
 6741TIP3   OH244417   6.774   0.207   3.455 -0.1497  0.1363  0.5651
 6741TIP3    H144418   6.757   0.292   3.497 -1.7369  0.4792 -0.6693
 6741TIP3    H244419   6.860   0.181   3.488 -0.6736  1.0728  2.8506
 6742TIP3   OH244420   6.813   4.104   2.445  0.0706 -0.4381 -0.0889
 6742TIP3    H144421   6.778   4.034   2.501 -0.4677 -1.2548 -1.3938
 6742TIP3    H244422   6.905   4.110   2.469 -0.1568 -0.7214  0.9127
 6743TIP3   OH244423   6.264   3.259   1.950  1.1556  0.4614 -0.2822
 6743TIP3    H144424   6.344   3.279   1.998 -0.1598  0.5689  1.9929
 6743TIP3    H244425   6.271   3.166   1.929  0.9042 -0.0970  1.9384
 6744TIP3   OH244426   6.355   0.362   1.425 -0.4725  0.3975  0.1518
 6744TIP3    H144427   6.405   0.345   1.346  1.0816  0.3105  1.1105
 6744TIP3    H244428   6.289   0.427   1.399  0.0563  0.4286 -1.1763
 6745TIP3   OH244429   0.037   7.236   0.624  0.3178 -0.1168 -0.3964
 6745TIP3    H144430   0.120   7.258   0.581  0.1688  0.9974 -0.1476
 6745TIP3    H244431   0.050   7.259   0.716 -1.0668  2.5864 -0.7737
 6746TIP3   OH244432   3.799   4.824   2.264 -0.2921  0.0041  0.0835
 6746TIP3    H144433   3.751   4.768   2.325 -0.1585 -0.0555  0.1367
 6746TIP3    H244434   3.735   4.886   2.232 -0.4362 -0.1612  0.0494
 6747TIP3   OH244435   1.026   7.125   2.952 -0.1153  0.5295  0.6362
 6747TIP3    H144436   0.997   7.182   3.024 -1.2745  0.8272 -0.0419
 6747TIP3    H244437   0.970   7.150   2.879  1.6957  0.9309 -0.6747
 6748TIP3   OH244438   4.671   2.313   1.093  0.1298 -0.0553 -0.2031
 6748TIP3    H144439   4.615   2.386   1.066 -1.4366 -0.9552  0.4848
 6748TIP3    H244440   4.610   2.239   1.104  1.6821 -1.5628 -1.1499
 6749TIP3   OH244441   3.501   2.231   2.446  0.5403  0.2659 -0.2139
 6749TIP3    H144442   3.413   2.248   2.414  0.1769 -2.5496 -0.9853
 6749TIP3    H244443   3.558   2.257   2.374  0.1796  0.1442 -0.5453
 6750TIP3   OH244444   0.014   4.037   1.186 -0.1327 -0.2208  0.5397
 6750TIP3    H144445   0.070   4.062   1.113  2.1830 -0.2392  2.1727
 6750TIP3    H244446   0.024   4.108   1.250 -0.6841 -1.0018  1.5410
 6751TIP3   OH244447   4.294   6.526   1.377  0.0556  0.1282  0.0183
 6751TIP3    H144448   4.351   6.492   1.308  2.1214  2.5776  0.3669
 6751TIP3    H244449   4.225   6.573   1.330  0.1795 -0.1055 -0.4009
 6752TIP3   OH244450   2.865   0.828   2.754  0.2737 -1.0845  0.3779
 6752TIP3    H144451   2.905   0.894   2.697 -2.2931 -0.3889 -0.7615
 6752TIP3    H244452   2.900   0.847   2.841 -0.3170  1.8156  0.0834
 6753TIP3   OH244453   2.717   4.195   1.761  0.5369  0.0008 -0.3522
 6753TIP3    H144454   2.710   4.173   1.854 -0.0300 -1.1093 -0.6341
 6753TIP3    H244455   2.794   4.147   1.731  0.9164  0.6230 -0.3971
 6754TIP3   OH244456   0.841   0.066   3.368 -0.2149 -0.6880  0.6432
 6754TIP3    H144457   0.894  -0.004   3.407  1.5449  1.5634  2.5433
 6754TIP3    H244458   0.880   0.147   3.401 -2.5902  1.2145 -0.9115
 6755TIP3   OH244459   5.350   6.375   1.341  0.0360  0.4328  0.2278
 6755TIP3    H144460   5.352   6.386   1.246 -0.5705  2.3122  0.3878
 6755TIP3    H244461   5.290   6.443   1.372 -0.8049 -0.9545  1.8653
 6756TIP3   OH244462   6.553   0.804   2.330  0.0025 -0.3445 -0.3327
 6756TIP3    H144463   6.612   0.828   2.258  0.3380  0.6121  0.2515
 6756TIP3    H244464   6.597   0.732   2.374  1.2870  1.0518  0.7503
 6757TIP3   OH244465   4.130   4.749   1.195 -0.2459 -0.3849 -0.3720
 6757TIP3    H144466   4.147   4.824   1.253 -1.7700 -0.5433  0.3161
 6757TIP3    H244467   4.107   4.678   1.255  0.1703 -1.1340 -1.0797
 6758TIP3   OH244468   1.019   0.903   1.451 -0.1643 -0.6313  0.0689
 6758TIP3    H144469   1.103   0.938   1.420 -0.0175 -0.1809  0.9706
 6758TIP3    H244470   0.965   0.900   1.372 -0.1232  1.4532 -0.0994
 6759TIP3   OH244471   5.757   0.140   0.494  0.0742 -0.0217  0.5111
 6759TIP3    H144472   5.706   0.060   0.507  1.3732 -1.0293 -0.2759
 6759TIP3    H244473   5.694   0.203   0.458 -0.6597 -1.2015 -0.3659
 6760TIP3   OH244474   3.200   3.908   1.150 -0.1832 -0.3229  0.3625
 6760TIP3    H144475   3.120   3.871   1.187  0.4007 -0.5321  1.4583
 6760TIP3    H244476   3.212   3.862   1.068 -1.0768 -0.4312  0.2768
 6761TIP3   OH244477   0.324   4.201   3.302  0.5097  0.0877  0.4267
 6761TIP3    H144478   0.237   4.234   3.325  0.4719  0.4296 -0.2017
 6761TIP3    H244479   0.384   4.273   3.324  0.5040  0.3090 -0.2775
 6762TIP3   OH244480   2.657   2.289   1.788  0.2079  0.6358  0.2155
 6762TIP3    H144481   2.590   2.233   1.749  2.5663 -3.0764  1.0320
 6762TIP3    H244482   2.644   2.279   1.883  1.2836  0.6255  0.3743
 6763TIP3   OH244483   3.052   7.153   3.064 -0.0617  0.4062  0.7182
 6763TIP3    H144484   3.005   7.076   3.096 -2.1644  1.1962 -0.2577
 6763TIP3    H244485   3.104   7.121   2.990  1.5862 -0.6131  2.2328
 6764TIP3   OH244486   6.583   5.174   1.375 -0.0284  0.8307  0.1128
 6764TIP3    H144487   6.565   5.108   1.441 -1.9170 -1.8509 -2.7909
 6764TIP3    H244488   6.534   5.251   1.403 -2.3481 -0.8643  0.9230
 6765TIP3   OH244489   5.352   6.316   0.872  0.1035  0.1165 -0.1198
 6765TIP3    H144490   5.315   6.403   0.862 -3.8142 -1.1391  1.3532
 6765TIP3    H244491   5.359   6.281   0.783  1.6707  1.8194 -0.7135
 6766TIP3   OH244492   5.130   5.757   0.659 -0.1199  0.5126 -0.2428
 6766TIP3    H144493   5.172   5.732   0.741  0.0360  0.0429 -0.4621
 6766TIP3    H244494   5.093   5.844   0.676 -2.0266 -0.4662  1.0375
 6767TIP3   OH244495   1.702   7.317   1.178 -0.7056 -0.6452 -0.4394
 6767TIP3    H144496   1.794   7.291   1.183 -0.7611 -0.8885 -0.6505
 6767TIP3    H244497   1.680   7.346   1.266 -1.0016 -2.5068  0.1425
 6768TIP3   OH244498   0.360   2.238   0.960 -0.2742  0.3630 -0.3456
 6768TIP3    H144499   0.282   2.250   1.014 -1.1366  0.0136 -1.4788
 6768TIP3    H244500   0.331   2.258   0.871  0.2730 -2.1645 -1.1559
 6769TIP3   OH244501   1.362   0.513   1.503  0.3366 -0.1743 -0.0970
 6769TIP3    H144502   1.352   0.578   1.434 -0.3766  1.9189  1.8247
 6769TIP3    H244503   1.450   0.528   1.538  0.4734 -0.8009 -0.1663
 6770TIP3   OH244504   0.837   6.222   1.978 -0.0458  0.3265  0.5946
 6770TIP3    H144505   0.783   6.195   1.903  0.8075 -0.6906  0.3329
 6770TIP3    H244506   0.826   6.153   2.043 -0.3410  0.9316  1.2095
 6771TIP3   OH244507   1.861   0.518   1.441  0.3405  0.5262  0.0194
 6771TIP3    H144508   1.933   0.580   1.446  2.4875 -1.7252 -1.3211
 6771TIP3    H244509   1.855   0.481   1.530  0.3568  1.2231  0.3122
 6772TIP3   OH244510   5.071   5.871   1.383 -0.4174  0.4047 -0.4085
 6772TIP3    H144511   4.998   5.927   1.410  0.1990  1.4433 -0.8700
 6772TIP3    H244512   5.131   5.929   1.337  1.2888 -0.1624  0.9830
 6773TIP3   OH244513   0.698   5.744   2.942 -0.2637 -0.2603 -0.8615
 6773TIP3    H144514   0.732   5.755   2.853 -0.1000  0.6830 -0.6896
 6773TIP3    H244515   0.764   5.690   2.986  1.0146  1.4521 -0.5662
 6774TIP3   OH244516   1.344   1.310   0.964  0.2892  0.3971  0.0913
 6774TIP3    H144517   1.429   1.303   0.921  0.2227 -0.6132  0.0885
 6774TIP3    H244518   1.364   1.320   1.056  0.4644 -2.3639  0.4451
 6775TIP3   OH244519   0.251   4.189   1.121 -0.3323  0.2551  0.5510
 6775TIP3    H144520   0.332   4.234   1.096 -0.3938  0.5655  0.9008
 6775TIP3    H244521   0.183   4.234   1.071  0.0562 -2.2359 -2.5043
 6776TIP3   OH244522   6.895   1.902   2.300 -0.2629  0.0738  0.2010
 6776TIP3    H144523   6.958   1.950   2.354 -0.1490 -0.9491  1.0126
 6776TIP3    H244524   6.810   1.938   2.326 -0.0481  1.4489 -0.8873
 6777TIP3   OH244525   0.193   2.413   1.261  0.2195 -0.0036 -0.1588
 6777TIP3    H144526   0.134   2.374   1.325  0.5768 -0.6442 -0.2075
 6777TIP3    H244527   0.276   2.422   1.308  1.0602 -2.2552 -1.0182
 6778TIP3   OH244528   1.761   1.495   1.122  0.1032  0.5405  0.2014
 6778TIP3    H144529   1.856   1.505   1.129  0.6883 -1.5922 -2.6731
 6778TIP3    H244530   1.739   1.429   1.187  1.0940 -0.7997 -0.7506
 6779TIP3   OH244531   7.365   2.153   3.009 -0.1799  0.0545  0.0101
 6779TIP3    H144532   7.417   2.180   2.934 -0.2381 -2.2641 -0.9396
 6779TIP3    H244533   7.286   2.114   2.972 -1.0166  0.3962  1.3402
 6780TIP3   OH244534   4.952   0.717   0.681 -0.6968  0.2925 -0.1024
 6780TIP3    H144535   4.878   0.674   0.639 -1.3954  2.2285 -0.9850
 6780TIP3    H244536   4.932   0.811   0.675  1.8755  0.8920 -0.5223
 6781TIP3   OH244537   2.985   1.048   1.985 -0.8965  0.4750 -0.4730
 6781TIP3    H144538   2.990   1.111   2.057  0.8450 -1.6152  1.3866
 6781TIP3    H244539   2.967   0.965   2.028 -1.8646 -0.5590 -2.7305
 6782TIP3   OH244540   3.775   3.330   1.748 -0.6475  0.4719 -0.3248
 6782TIP3    H144541   3.777   3.425   1.743  0.2617  0.5610  1.2024
 6782TIP3    H244542   3.704   3.305   1.689 -1.8624  2.1788  0.3214
 6783TIP3   OH244543   0.479   0.997   2.323 -0.1695  0.2603 -0.3080
 6783TIP3    H144544   0.462   1.085   2.290  1.4939  0.7806  0.1270
 6783TIP3    H244545   0.555   0.967   2.274  1.1446  0.2891  1.6147
 6784TIP3   OH244546   3.714   1.540   2.405 -0.2026  0.1508 -0.2996
 6784TIP3    H144547   3.791   1.531   2.462 -0.6911  0.0009  0.3491
 6784TIP3    H244548   3.691   1.450   2.382  0.8033  0.2612 -1.8625
 6785TIP3   OH244549   5.458   6.601   1.110  0.3801 -0.1772 -0.3561
 6785TIP3    H144550   5.375   6.621   1.154  0.3946  3.2237 -1.5772
 6785TIP3    H244551   5.525   6.644   1.164  1.1019 -0.9859 -0.5820
 6786TIP3   OH244552   5.578   6.864   2.342 -0.1197  0.3473  0.3922
 6786TIP3    H144553   5.610   6.908   2.420  1.2313  0.2011 -0.0464
 6786TIP3    H244554   5.590   6.771   2.359 -0.2154  0.2941  0.1815
 6787TIP3   OH244555   5.216   1.322   1.577 -0.3706 -0.4347  0.0523
 6787TIP3    H144556   5.148   1.350   1.516 -0.7836 -0.4105  0.5162
 6787TIP3    H244557   5.231   1.398   1.632  1.0745  0.0457 -0.9552
 6788TIP3   OH244558   7.673   3.948   2.954 -0.1620  0.3658  0.1842
 6788TIP3    H144559   7.737   3.911   2.893  1.2121  0.8302  1.2985
 6788TIP3    H244560   7.652   3.876   3.013  1.9015  1.0231  1.8528
 6789TIP3   OH244561   3.558   0.071   1.685  0.1801 -0.1840 -0.4771
 6789TIP3    H144562   3.610   0.151   1.674 -3.2606  2.1232 -1.5155
 6789TIP3    H244563   3.595   0.029   1.763  2.8114  1.8250 -0.5073
 6790TIP3   OH244564   1.890   0.535   0.607  0.3669 -0.2067 -0.5706
 6790TIP3    H144565   1.854   0.455   0.644  0.2125 -0.0256 -0.3208
 6790TIP3    H244566   1.942   0.573   0.678 -2.8923  2.0565  0.8052
 6791TIP3   OH244567   0.289   2.566   2.666  0.2807  0.2274  0.4638
 6791TIP3    H144568   0.291   2.640   2.606 -0.4381 -0.0669  0.0711
 6791TIP3    H244569   0.296   2.606   2.753 -0.2753  0.7688  0.2623
 6792TIP3   OH244570   4.685   4.559   3.244 -0.2324  0.7437  0.0572
 6792TIP3    H144571   4.684   4.626   3.176  1.4360  0.8971  0.1384
 6792TIP3    H244572   4.735   4.598   3.315 -0.6218 -0.0002  0.7555
 6793TIP3   OH244573   6.118   3.950   0.472 -0.6135  0.1167  0.2834
 6793TIP3    H144574   6.066   3.955   0.393  0.0819  0.5640 -0.1580
 6793TIP3    H244575   6.132   4.041   0.499 -0.9855 -0.0331  1.0208
 6794TIP3   OH244576   6.370   4.822   2.270 -0.6425 -0.3139 -0.0411
 6794TIP3    H144577   6.277   4.804   2.277 -0.8281  0.4941 -0.3487
 6794TIP3    H244578   6.402   4.760   2.205 -1.1526  0.0401 -0.6368
 6795TIP3   OH244579   3.445   5.545   2.269 -0.0955 -0.0143  0.3184
 6795TIP3    H144580   3.379   5.514   2.207 -0.5127  0.2002  0.6477
 6795TIP3    H244581   3.423   5.638   2.282  1.2183  0.4904 -0.7686
 6796TIP3   OH244582   5.882   2.702   3.056  0.0675 -0.3201  0.3177
 6796TIP3    H144583   5.957   2.749   3.091  0.4094 -1.0672  0.5996
 6796TIP3    H244584   5.812   2.767   3.054  0.3469  0.0235  1.3454
 6797TIP3   OH244585   2.934   1.820   2.592 -0.7465 -0.2327  0.2256
 6797TIP3    H144586   2.910   1.748   2.651  0.1265  0.4073  1.4015
 6797TIP3    H244587   2.977   1.884   2.648  0.0082  0.4694 -1.1000
 6798TIP3   OH244588   3.648   4.411   2.507  0.3540  0.3207 -0.5741
 6798TIP3    H144589   3.633   4.502   2.481  0.5368  0.3732 -0.4944
 6798TIP3    H244590   3.644   4.362   2.425  1.5522  0.5636 -0.7933
 6799TIP3   OH244591   6.226   0.152   2.768  0.4984 -0.0699 -0.0920
 6799TIP3    H144592   6.162   0.082   2.760 -0.1984  0.1427  2.6974
 6799TIP3    H244593   6.202   0.214   2.700 -0.1130 -1.5625 -1.2985
 6800TIP3   OH244594   7.307   6.572   3.404 -0.5546 -0.0050  0.7217
 6800TIP3    H144595   7.302   6.582   3.309  1.5883 -0.0006  0.5427
 6800TIP3    H244596   7.293   6.660   3.438 -1.4665 -0.0315  0.4221
 6801TIP3   OH244597   1.164   2.801   2.626 -0.4723 -0.7306  0.1535
 6801TIP3    H144598   1.144   2.889   2.595  0.6926  0.1699  1.8570
 6801TIP3    H244599   1.257   2.802   2.645 -0.4958 -2.2507  0.4790
 6802TIP3   OH244600   5.680   5.641   1.429 -0.0284  0.2910  0.5744
 6802TIP3    H144601   5.753   5.580   1.426  0.4505  0.8601  0.4414
 6802TIP3    H244602   5.680   5.675   1.519  0.9130  1.5101  0.1525
 6803TIP3   OH244603   6.312   5.465   0.894 -0.0451  0.0533  0.0786
 6803TIP3    H144604   6.385   5.448   0.835  0.0236  1.0762 -0.1578
 6803TIP3    H244605   6.348   5.527   0.958 -1.1143  1.8170 -0.9590
 6804TIP3   OH244606   1.069   1.096   1.971  0.8500  0.9852  0.6300
 6804TIP3    H144607   1.021   1.046   1.904  1.8745  1.6573 -0.6379
 6804TIP3    H244608   1.040   1.057   2.054 -1.2545  0.8304 -0.1152
 6805TIP3   OH244609   4.430   3.161   2.746 -0.4366 -0.0090 -0.0798
 6805TIP3    H144610   4.477   3.184   2.826 -1.5114 -0.7291  0.7686
 6805TIP3    H244611   4.484   3.199   2.676  0.5323  0.6053  0.9619
 6806TIP3   OH244612   7.001   7.390   2.913  0.2375  0.5903  0.1838
 6806TIP3    H144613   7.005   7.308   2.963 -0.2293  0.0142 -0.7003
 6806TIP3    H244614   6.922   7.434   2.943  0.2142  0.4751  0.2894
 6807TIP3   OH244615   5.593   5.773   2.156 -0.2810 -0.6911 -0.1117
 6807TIP3    H144616   5.500   5.777   2.134 -0.1142 -1.4315 -0.9860
 6807TIP3    H244617   5.606   5.685   2.190  0.3484 -1.0436 -1.2142
 6808TIP3   OH244618   3.470   6.977   1.673  0.1153  0.0355  0.5350
 6808TIP3    H144619   3.497   7.025   1.752  0.5141 -2.2503  1.8545
 6808TIP3    H244620   3.498   7.033   1.601  0.7890  1.6659  1.9775
 6809TIP3   OH244621   0.545   5.386   0.318 -0.0569 -0.4173 -0.5023
 6809TIP3    H144622   0.482   5.401   0.249 -0.3965  0.3516 -0.0456
 6809TIP3    H244623   0.546   5.469   0.368 -1.4214 -1.6147  1.6963
 6810TIP3   OH244624   5.102   7.428   3.169  0.2663 -0.1651  0.5573
 6810TIP3    H144625   5.021   7.410   3.216  0.0549 -0.0850  0.2268
 6810TIP3    H244626   5.080   7.498   3.107  0.1908 -1.1593 -0.5792
 6811TIP3   OH244627   1.476   3.600   1.865 -0.4638  0.4180  0.5649
 6811TIP3    H144628   1.559   3.615   1.820  0.2188  1.2371  2.0190
 6811TIP3    H244629   1.409   3.635   1.806  0.1245 -0.9927 -0.9867
 6812TIP3   OH244630   3.230   3.027   2.300 -0.4094 -0.5734 -0.4208
 6812TIP3    H144631   3.142   3.003   2.331 -0.9885 -1.0301 -2.2716
 6812TIP3    H244632   3.217   3.106   2.248  0.6137  0.4782  0.8447
 6813TIP3   OH244633   4.176   0.900   2.328 -0.2618  0.1563 -0.6824
 6813TIP3    H144634   4.119   0.874   2.400 -0.5024  1.6064 -0.3374
 6813TIP3    H244635   4.264   0.900   2.365 -0.4254  1.2550 -0.2775
 6814TIP3   OH244636   6.507   0.524   1.801 -0.5739  0.1171 -0.1705
 6814TIP3    H144637   6.551   0.507   1.718 -1.4358  0.6282 -0.7475
 6814TIP3    H244638   6.462   0.442   1.821 -0.4471  0.0260 -0.2560
 6815TIP3   OH244639   1.030   2.964   1.038  0.2096  0.1740  0.1597
 6815TIP3    H144640   0.935   2.952   1.041 -0.0541  1.9758  0.3170
 6815TIP3    H244641   1.043   3.055   1.066  2.1365 -0.6221  2.1296
 6816TIP3   OH244642   0.638   5.000   2.146  0.1590  0.4830 -0.1860
 6816TIP3    H144643   0.553   5.034   2.121 -0.6875 -0.6330  1.0146
 6816TIP3    H244644   0.683   5.075   2.186 -0.7717  0.7685  0.3527
 6817TIP3   OH244645   4.644   6.762   0.433  0.1545 -0.0834 -0.1267
 6817TIP3    H144646   4.700   6.685   0.420  0.3656  0.0826 -0.2067
 6817TIP3    H244647   4.705   6.834   0.445 -0.0428  0.0273  0.2336
 6818TIP3   OH244648   2.236   3.182   1.083  0.0662  0.0202 -0.1988
 6818TIP3    H144649   2.241   3.259   1.140  0.4010  0.0648 -0.2883
 6818TIP3    H244650   2.312   3.130   1.107  2.2007  1.6372 -2.9431
 6819TIP3   OH244651   3.382   5.855   2.121  0.0446  0.2569 -0.5060
 6819TIP3    H144652   3.441   5.808   2.063  0.2910  0.0290 -0.0765
 6819TIP3    H244653   3.417   5.840   2.209 -1.0042 -0.4013 -0.1803
 6820TIP3   OH244654   0.382   3.450   1.309 -0.2062  0.0686  0.2785
 6820TIP3    H144655   0.309   3.395   1.339  0.3892 -0.0481  1.5777
 6820TIP3    H244656   0.346   3.538   1.307 -1.3227 -0.3482 -2.3159
 6821TIP3   OH244657   5.894   7.579   1.088  0.0292  0.2910 -0.7855
 6821TIP3    H144658   5.972   7.635   1.088 -0.2956  0.7480 -1.0028
 6821TIP3    H244659   5.828   7.630   1.041 -0.4821  0.0176 -0.3658
 6822TIP3   OH244660   6.740   3.200   0.792  0.4991 -0.3336  0.0214
 6822TIP3    H144661   6.687   3.269   0.752  0.1391 -1.4565 -1.5297
 6822TIP3    H244662   6.709   3.196   0.882 -0.2169  0.8031 -0.1467
 6823TIP3   OH244663   4.638   2.552   2.849  0.3598 -0.2482 -0.2648
 6823TIP3    H144664   4.708   2.554   2.913 -0.9080  0.2639  1.1607
 6823TIP3    H244665   4.621   2.643   2.827 -1.6658 -0.1229  1.5194
 6824TIP3   OH244666   3.072   0.789   8.258 -0.0704  0.0070 -0.7817
 6824TIP3    H144667   3.049   0.704   8.295 -0.3701 -0.1236 -1.2554
 6824TIP3    H244668   3.088   0.771   8.165  0.2640  0.3981 -0.8005
 6825TIP3   OH244669   2.388   4.326   2.036 -0.0900  0.8303 -0.1391
 6825TIP3    H144670   2.452   4.359   2.100 -1.7871  1.5653  1.2721
 6825TIP3    H244671   2.333   4.266   2.085  0.2907 -0.8695 -1.6695
 6826TIP3   OH244672   6.685   2.404   0.490 -0.5250  0.2415 -0.3475
 6826TIP3    H144673   6.621   2.352   0.538 -0.5220  1.2843  0.8585
 6826TIP3    H244674   6.666   2.388   0.398 -1.8012 -0.3189 -0.0027
 6827TIP3   OH244675   0.295   5.334   0.645 -0.5135 -0.3637 -0.0661
 6827TIP3    H144676   0.333   5.246   0.649 -1.1817 -0.6294  1.1377
 6827TIP3    H244677   0.209   5.321   0.607 -0.0051  0.0198 -1.3883
 6828TIP3   OH244678   2.176   6.295   2.571  0.7334 -0.2782  0.1929
 6828TIP3    H144679   2.166   6.216   2.623 -2.2449  0.2738  0.6628
 6828TIP3    H244680   2.208   6.361   2.632 -2.4157  0.2796  1.4208
 6829TIP3   OH244681   3.732   2.794   3.187 -0.0342 -0.0758 -0.0818
 6829TIP3    H144682   3.757   2.858   3.120  0.9599 -1.1009 -0.7388
 6829TIP3    H244683   3.815   2.752   3.211 -0.7909 -1.9028 -0.5245
 6830TIP3   OH244684   7.631   5.833   1.413  0.0632  0.1482 -0.2973
 6830TIP3    H144685   7.688   5.889   1.466 -1.3690 -0.3966  1.9690
 6830TIP3    H244686   7.683   5.755   1.396  1.3726  1.2772 -1.7884
 6831TIP3   OH244687   5.953   3.226   0.973  0.3648 -0.2646  0.5222
 6831TIP3    H144688   5.874   3.195   1.018  0.1369  0.1625  0.4241
 6831TIP3    H244689   6.018   3.235   1.043  0.4002 -0.8483  0.5661
 6832TIP3   OH244690   4.386   0.635   0.633  0.6805 -0.0793 -0.0303
 6832TIP3    H144691   4.350   0.650   0.721  0.5953 -0.2631 -0.0332
 6832TIP3    H244692   4.392   0.540   0.626  0.2058 -0.0816 -0.4236
 6833TIP3   OH244693   2.243   2.982   0.446  0.4702  0.4687 -0.0127
 6833TIP3    H144694   2.222   2.889   0.456  0.4126  0.4489 -0.3129
 6833TIP3    H244695   2.233   2.999   0.353 -0.3748  0.9845  0.1606
 6834TIP3   OH244696   6.710   1.007   0.922 -0.0324  0.2815  0.2247
 6834TIP3    H144697   6.803   1.012   0.900 -0.0726 -1.8328 -0.6163
 6834TIP3    H244698   6.669   0.967   0.845 -2.0167  2.9734 -0.2587
 6835TIP3   OH244699   2.321   7.383   2.953  0.1589  0.6342  0.0274
 6835TIP3    H144700   2.288   7.420   2.871  0.0585  0.7335  0.1112
 6835TIP3    H244701   2.327   7.289   2.937 -0.5776  0.5626  0.1525
 6836TIP3   OH244702   7.474   1.208   1.292  0.2157 -0.5799 -0.2954
 6836TIP3    H144703   7.383   1.219   1.319  0.6360  1.2493  0.5508
 6836TIP3    H244704   7.500   1.123   1.329 -0.8250 -0.6125  0.3926
 6837TIP3   OH244705   3.275   5.461   0.744 -0.2597  0.1935  0.2270
 6837TIP3    H144706   3.216   5.492   0.676 -0.4838  3.0485  1.5868
 6837TIP3    H244707   3.234   5.381   0.776 -0.7687 -0.5572 -2.1042
 6838TIP3   OH244708   6.179   0.547   1.332  0.4706 -0.3470 -0.3159
 6838TIP3    H144709   6.213   0.599   1.259  0.8944 -0.4091 -0.1660
 6838TIP3    H244710   6.085   0.542   1.316  0.4482  0.3260 -0.4197
 6839TIP3   OH244711   1.529   5.732   2.119 -0.6936 -0.2708  0.3857
 6839TIP3    H144712   1.556   5.804   2.176  0.2496 -0.1707 -0.1637
 6839TIP3    H244713   1.602   5.721   2.057 -1.4441 -0.7405 -0.4502
 6840TIP3   OH244714   1.460   4.280   1.306  0.0995  0.3099 -0.2888
 6840TIP3    H144715   1.464   4.307   1.214  2.4328  0.4317 -0.2023
 6840TIP3    H244716   1.529   4.214   1.315 -0.0582  0.3232  1.3988
 6841TIP3   OH244717   3.296   3.517   2.373 -0.3869 -0.0321 -0.2510
 6841TIP3    H144718   3.320   3.446   2.433  1.3795  0.1196 -0.7119
 6841TIP3    H244719   3.255   3.473   2.299  2.2021 -0.8360 -1.3179
 6842TIP3   OH244720   3.982   4.129   1.889  0.2248 -0.1465  0.8813
 6842TIP3    H144721   4.060   4.123   1.944  0.5795 -0.4664  0.3526
 6842TIP3    H244722   4.011   4.174   1.810 -0.3556  0.5948  1.0692
 6843TIP3   OH244723   5.814   2.677   1.204 -0.1671 -0.1598  0.1635
 6843TIP3    H144724   5.894   2.676   1.151 -0.8478  0.7288 -0.9030
 6843TIP3    H244725   5.768   2.597   1.178 -0.6213  0.4059 -0.7786
 6844TIP3   OH244726   2.346   5.278   2.630 -0.0075 -0.4711 -0.0376
 6844TIP3    H144727   2.286   5.208   2.655 -0.0444 -0.4221  0.0113
 6844TIP3    H244728   2.309   5.357   2.670 -0.5202 -0.2475 -0.9340
 6845TIP3   OH244729   6.900   5.795   2.133 -0.2979  0.7586  0.3036
 6845TIP3    H144730   6.902   5.706   2.097  1.0218  1.7099 -2.1306
 6845TIP3    H244731   6.819   5.797   2.184 -1.5435 -1.1646 -1.4087
 6846TIP3   OH244732   0.469   4.760   1.025 -0.2440 -0.1994  0.8943
 6846TIP3    H144733   0.544   4.733   1.078 -0.6709  0.0214  1.6118
 6846TIP3    H244734   0.505   4.827   0.966  0.4428 -1.1200  0.2399
 6847TIP3   OH244735   4.888   0.371   0.940  0.0477 -0.3561  0.4734
 6847TIP3    H144736   4.889   0.379   0.845  1.4827  0.6960  0.5316
 6847TIP3    H244737   4.932   0.288   0.958 -1.2859 -1.1350  0.2072
 6848TIP3   OH244738   1.065   0.612   0.755  0.1270 -0.1752 -0.2074
 6848TIP3    H144739   0.994   0.669   0.783 -0.5880 -0.3525 -1.5544
 6848TIP3    H244740   1.145   0.658   0.780 -0.4555  0.7679 -0.0606
 6849TIP3   OH244741   7.220   3.097   1.284 -0.6271  0.2205 -0.2074
 6849TIP3    H144742   7.147   3.052   1.326 -0.7010 -1.5953 -2.1053
 6849TIP3    H244743   7.244   3.167   1.346 -2.7083 -0.3074  1.3201
 6850TIP3   OH244744   3.875   3.506   2.288  0.0554 -0.7009  0.5170
 6850TIP3    H144745   3.830   3.463   2.361 -0.5650  0.7472  1.0239
 6850TIP3    H244746   3.877   3.599   2.312  0.0030 -0.2170 -1.2200
 6851TIP3   OH244747   7.680   4.284   1.322  0.0830 -0.8339  0.8320
 6851TIP3    H144748   7.765   4.275   1.365  0.6907 -0.1320 -0.1695
 6851TIP3    H244749   7.702   4.304   1.231 -1.1588 -1.3729  0.3936
 6852TIP3   OH244750   1.458   0.672   1.274  0.1682 -0.3196  0.3458
 6852TIP3    H144751   1.530   0.646   1.331  0.7466 -0.1880 -0.3132
 6852TIP3    H244752   1.450   0.766   1.287  0.3646 -0.2735  0.1450
 6853TIP3   OH244753   7.109   4.071   2.508 -0.2564 -0.0100 -0.1375
 6853TIP3    H144754   7.201   4.066   2.532 -0.3906 -1.1324  0.2149
 6853TIP3    H244755   7.063   4.022   2.577 -0.8456 -1.6803 -1.6260
 6854TIP3   OH244756   1.050   4.297   2.253 -0.4027  0.1038 -0.6185
 6854TIP3    H144757   1.017   4.312   2.164 -2.5681 -2.2291 -0.3395
 6854TIP3    H244758   1.040   4.203   2.266  1.9733  0.0319  1.3686
 6855TIP3   OH244759   0.265   1.331   2.415 -0.7747 -0.2405  0.4296
 6855TIP3    H144760   0.302   1.367   2.335 -1.5631 -0.8589 -0.2236
 6855TIP3    H244761   0.175   1.308   2.393 -0.6491 -1.5310  1.1419
 6856TIP3   OH244762   6.949   0.134   2.202 -0.5102  1.0333  0.2020
 6856TIP3    H144763   7.002   0.106   2.126 -1.0893 -1.0627  0.5165
 6856TIP3    H244764   6.992   0.214   2.232  1.0664  0.6929 -0.9899
 6857TIP3   OH244765   2.376   3.938   0.637  0.1381 -0.2455  0.6977
 6857TIP3    H144766   2.313   3.936   0.566  0.9521  0.1937 -0.0618
 6857TIP3    H244767   2.327   3.911   0.714 -0.7424 -0.7999 -0.0422
 6858TIP3   OH244768   1.157   1.824   1.010  0.2344 -0.1636  0.3225
 6858TIP3    H144769   1.214   1.748   1.010 -1.9963 -1.9327 -0.2950
 6858TIP3    H244770   1.202   1.887   1.067  2.8973 -1.2838 -0.3691
 6859TIP3   OH244771   6.543   5.265   1.106 -0.0956  0.1710  0.1253
 6859TIP3    H144772   6.544   5.360   1.114  0.2276  0.2669 -0.9634
 6859TIP3    H244773   6.569   5.234   1.193  0.0697  1.0714  0.4097
 6860TIP3   OH244774   1.283   4.871   2.357 -0.5909  0.3225 -0.0525
 6860TIP3    H144775   1.212   4.903   2.413 -1.0014  1.1477 -1.0232
 6860TIP3    H244776   1.355   4.931   2.372 -1.0119  1.1086 -1.0863
 6861TIP3   OH244777   3.067   3.928   2.138  0.2706 -0.8045 -0.2090
 6861TIP3    H144778   3.022   4.011   2.154  1.2110 -0.8114  3.4350
 6861TIP3    H244779   3.144   3.951   2.087  0.3402  0.5480  0.4574
 6862TIP3   OH244780   1.619   2.866   3.007 -0.2121 -0.1856  0.5014
 6862TIP3    H144781   1.571   2.862   3.089 -0.7492  1.0496  0.2767
 6862TIP3    H244782   1.557   2.905   2.944 -1.0306 -4.1269 -1.4491
 6863TIP3   OH244783   0.473   3.308   3.378 -0.2646  0.0039 -0.6826
 6863TIP3    H144784   0.452   3.362   3.302  0.7721 -1.9512 -2.4827
 6863TIP3    H244785   0.395   3.253   3.391  0.3292 -1.1451 -1.7582
 6864TIP3   OH244786   5.900   1.425   0.861 -0.1821  0.3704  0.2917
 6864TIP3    H144787   5.975   1.431   0.803 -0.2125 -0.4158  0.1610
 6864TIP3    H244788   5.826   1.460   0.810 -0.2081 -0.3054 -0.1402
 6865TIP3   OH244789   2.547   1.743   1.675 -0.0134  0.1296  0.1211
 6865TIP3    H144790   2.579   1.807   1.611  1.9572  1.3760  2.1880
 6865TIP3    H244791   2.622   1.686   1.690 -0.2853  0.1234  1.5877
 6866TIP3   OH244792   5.126   2.224   0.803  0.1914  0.0421 -0.1308
 6866TIP3    H144793   5.219   2.244   0.798  0.1743  0.3133  0.4581
 6866TIP3    H244794   5.118   2.165   0.877 -0.0807 -0.1244 -0.2915
 6867TIP3   OH244795   6.366   1.407   1.885 -0.8992  0.1645 -0.4265
 6867TIP3    H144796   6.453   1.444   1.897 -1.3356  0.8285  0.9239
 6867TIP3    H244797   6.381   1.322   1.843  0.2288  1.1919 -2.2766
 6868TIP3   OH244798   4.407   2.615   2.113  0.0864 -0.5941  0.3878
 6868TIP3    H144799   4.337   2.674   2.143 -0.5636 -0.3024 -1.5354
 6868TIP3    H244800   4.382   2.530   2.147 -0.1264 -0.1406  1.4009
 6869TIP3   OH244801   3.669   3.107   2.034  0.4273  0.4785 -0.2170
 6869TIP3    H144802   3.761   3.093   2.010  0.4462 -1.3335  0.7381
 6869TIP3    H244803   3.672   3.176   2.100  1.1536  0.1582  0.0953
 6870TIP3   OH244804   0.991   6.000   1.167  0.3063 -0.0343 -0.5758
 6870TIP3    H144805   1.028   5.917   1.198 -2.0538 -0.6804  0.7241
 6870TIP3    H244806   1.038   6.067   1.217 -0.2217 -0.8187  1.0576
 6871TIP3   OH244807   3.510   5.830   2.363  0.2664  0.0844  0.1116
 6871TIP3    H144808   3.488   5.923   2.370  0.5988  0.1877 -0.1712
 6871TIP3    H244809   3.605   5.827   2.379  0.0467 -0.3588  1.3767
 6872TIP3   OH244810   2.242   0.901   3.403  0.1134  0.0388  0.2160
 6872TIP3    H144811   2.170   0.886   3.341  1.1559  0.1143 -1.0648
 6872TIP3    H244812   2.304   0.830   3.386  1.5366  1.3958 -0.5507
 6873TIP3   OH244813   5.149   5.073   0.545  0.2576  0.0471  0.4547
 6873TIP3    H144814   5.070   5.083   0.598  0.4710  1.0993  0.5998
 6873TIP3    H244815   5.133   4.995   0.491 -0.2684 -0.6127  1.5281
 6874TIP3   OH244816   6.976   2.799   0.609 -0.5019 -0.1007 -0.0974
 6874TIP3    H144817   6.960   2.893   0.624 -0.7802 -0.1570 -0.0217
 6874TIP3    H244818   6.892   2.758   0.631 -0.1641 -0.4442  0.5524
 6875TIP3   OH244819   5.582   5.259   0.755 -0.1211  0.0718 -0.0561
 6875TIP3    H144820   5.494   5.247   0.719 -1.4528  0.9286  2.6697
 6875TIP3    H244821   5.637   5.278   0.679 -2.3777 -0.0167 -1.7920
 6876TIP3   OH244822   3.040   0.963   2.947  0.4949  0.7313 -0.0401
 6876TIP3    H144823   2.973   0.914   2.993  0.9755 -1.1455 -1.2520
 6876TIP3    H244824   3.118   0.955   3.001  0.5206  0.3175 -0.1394
 6877TIP3   OH244825   4.887   0.195   1.919  0.0800  0.7428 -0.4164
 6877TIP3    H144826   4.881   0.184   1.824  0.9460 -0.9134 -0.3045
 6877TIP3    H244827   4.809   0.152   1.953  0.8371 -0.5354 -0.2694
 6878TIP3   OH244828   6.772   2.583   3.502  0.4708 -0.0273  0.6029
 6878TIP3    H144829   6.694   2.587   3.447 -0.0299  0.4008  1.3316
 6878TIP3    H244830   6.821   2.508   3.469  0.5527  0.6537 -0.9118
 6879TIP3   OH244831   4.026   4.698   0.954 -0.2249  0.4364  0.1618
 6879TIP3    H144832   4.041   4.682   1.047 -0.3616 -0.5407  0.0272
 6879TIP3    H244833   4.108   4.735   0.922 -0.1665  0.7453  0.6583
 6880TIP3   OH244834   5.193   6.152   2.547 -0.0285 -0.2095  0.5801
 6880TIP3    H144835   5.176   6.158   2.453 -0.9962 -0.0607  0.7507
 6880TIP3    H244836   5.159   6.066   2.573  1.4922 -0.8517  0.5642
 6881TIP3   OH244837   4.025   2.272   1.213 -0.2213  0.1899 -0.3346
 6881TIP3    H144838   3.975   2.304   1.288 -1.0229 -1.7764  0.0270
 6881TIP3    H244839   4.092   2.339   1.199 -0.2587  0.7996  1.9224
 6882TIP3   OH244840   2.578   5.509   0.697 -0.0878 -0.0392  0.3524
 6882TIP3    H144841   2.613   5.545   0.779  1.4612  1.3646 -0.8724
 6882TIP3    H244842   2.485   5.532   0.699  0.0864  0.6424  1.3663
 6883TIP3   OH244843   0.246   1.935   0.971  0.2213  0.3240 -0.1033
 6883TIP3    H144844   0.229   2.003   0.905 -0.9964 -0.2392 -0.3978
 6883TIP3    H244845   0.305   1.874   0.927 -1.1384 -0.4230 -0.9805
 6884TIP3   OH244846   3.132   4.586   1.434 -0.2237  0.3886  0.3106
 6884TIP3    H144847   3.106   4.571   1.344  0.3046 -0.8360  0.3385
 6884TIP3    H244848   3.125   4.500   1.476 -0.2499  0.8909  1.3807
 6885TIP3   OH244849   3.495   2.902   2.622 -0.2728 -0.0395 -0.1641
 6885TIP3    H144850   3.590   2.895   2.621 -0.2167  0.1251  1.3202
 6885TIP3    H244851   3.465   2.816   2.652 -0.5456  0.1266  0.0479
 6886TIP3   OH244852   0.711   5.409   2.587  0.4168  0.3657  0.3901
 6886TIP3    H144853   0.643   5.408   2.655  0.1813  0.7538  0.1675
 6886TIP3    H244854   0.664   5.394   2.506  0.6122  0.5393  0.2439
 6887TIP3   OH244855   0.169   4.608   2.040  0.1299 -0.6496  0.0419
 6887TIP3    H144856   0.100   4.558   1.996  1.2349 -3.9934  1.7117
 6887TIP3    H244857   0.242   4.608   1.979  0.1456 -1.2464  0.0491
 6888TIP3   OH244858   5.092   7.162   3.042  0.4338 -0.0318  0.1518
 6888TIP3    H144859   5.114   7.159   3.135  2.4486 -0.8479 -0.3047
 6888TIP3    H244860   5.116   7.251   3.015 -1.0743  0.5395  0.5735
 6889TIP3   OH244861   7.362   4.537   0.977 -0.0171 -0.9349 -0.1362
 6889TIP3    H144862   7.368   4.616   0.923 -0.4960  1.1702  2.6578
 6889TIP3    H244863   7.453   4.511   0.991  0.4669  1.4937  1.9794
 6890TIP3   OH244864   0.134   5.870   1.654 -0.0448  0.1045  0.4206
 6890TIP3    H144865   0.169   5.946   1.609 -0.0773  0.4493  0.9712
 6890TIP3    H244866   0.211   5.823   1.686  0.0782 -1.0529 -1.4043
 6891TIP3   OH244867   0.742   5.589   1.306 -0.1601 -0.0827  0.1607
 6891TIP3    H144868   0.678   5.558   1.371  0.8623 -1.5846  0.5208
 6891TIP3    H244869   0.725   5.536   1.229  1.4704 -1.5171  0.7047
 6892TIP3   OH244870   3.229   4.096   1.566  0.3998  0.1566  0.1671
 6892TIP3    H144871   3.245   4.125   1.476  1.6202 -1.1003 -0.0558
 6892TIP3    H244872   3.314   4.101   1.609  0.6528 -2.6500  0.2035
 6893TIP3   OH244873   2.931   7.361   0.738 -0.3360 -0.0251 -0.2165
 6893TIP3    H144874   2.905   7.318   0.657 -1.6998 -1.6174  0.9948
 6893TIP3    H244875   2.850   7.368   0.789  0.5746  0.4302  1.2499
 6894TIP3   OH244876   6.876   6.940   1.482 -0.1795  0.0251  0.1481
 6894TIP3    H144877   6.796   6.958   1.433  0.4391 -0.1901 -0.9714
 6894TIP3    H244878   6.911   7.026   1.505 -0.8021  0.1161  0.7696
 6895TIP3   OH244879   3.080   7.672   2.200 -0.5640 -0.1715 -0.2574
 6895TIP3    H144880   3.151   7.615   2.228 -1.8275 -1.7782 -0.1708
 6895TIP3    H244881   3.046   7.710   2.281  0.7107  1.3051 -0.3711
 6896TIP3   OH244882   6.188   1.862   2.222  0.1880  0.0949 -0.0284
 6896TIP3    H144883   6.189   1.767   2.228 -2.6252  0.0359  1.2077
 6896TIP3    H244884   6.233   1.892   2.301  1.2660 -0.1723 -0.5269
 6897TIP3   OH244885   4.854   2.010   1.527 -0.0346 -0.3500 -1.1877
 6897TIP3    H144886   4.895   1.934   1.485 -0.1437 -1.2425  0.2301
 6897TIP3    H244887   4.913   2.032   1.599 -0.8088 -0.1055 -0.6148
 6898TIP3   OH244888   3.684   2.836   2.188  0.2876  0.1171  0.5907
 6898TIP3    H144889   3.643   2.917   2.156  0.2059 -0.5859 -1.2144
 6898TIP3    H244890   3.778   2.855   2.188  0.1619  0.9075  2.3231
 6899TIP3   OH244891   0.918   1.947   2.106  0.0970  0.1281 -0.3798
 6899TIP3    H144892   1.001   1.993   2.104 -0.3295  0.9857  0.4713
 6899TIP3    H244893   0.885   1.951   2.016  1.7017 -1.6894 -1.1386
 6900TIP3   OH244894   7.327   5.866   2.558 -0.0555 -0.1688  0.0399
 6900TIP3    H144895   7.254   5.856   2.497  0.9472  0.6763 -1.3277
 6900TIP3    H244896   7.321   5.789   2.615 -0.9370 -1.0438 -1.1916
 6901TIP3   OH244897   5.911   5.747   1.280  0.4603  0.1198 -0.2243
 6901TIP3    H144898   5.941   5.660   1.252  0.2474  0.2017 -0.7206
 6901TIP3    H244899   5.991   5.791   1.309  1.1044  0.8337 -2.8548
 6902TIP3   OH244900   5.983   7.032   1.597 -0.7466 -0.1507  0.1318
 6902TIP3    H144901   5.937   7.115   1.585 -1.4382 -0.3822  1.1130
 6902TIP3    H244902   5.983   6.993   1.509  0.1903  1.1728 -0.4948
 6903TIP3   OH244903   0.605   3.062   1.370 -0.4620  0.6082  0.3909
 6903TIP3    H144904   0.632   2.970   1.377  1.2899  1.0854  0.2326
 6903TIP3    H244905   0.509   3.058   1.366 -0.4482 -1.1725  0.8883
 6904TIP3   OH244906   4.915   3.275   2.343 -0.1287 -0.1471 -0.4224
 6904TIP3    H144907   4.826   3.281   2.310  0.1318 -0.9827 -1.3448
 6904TIP3    H244908   4.970   3.297   2.268  0.4568 -1.0139 -0.2676
 6905TIP3   OH244909   6.407   1.919   0.743  0.0036  0.7624 -1.4255
 6905TIP3    H144910   6.443   1.866   0.672 -1.4699 -2.1762 -0.1610
 6905TIP3    H244911   6.467   1.905   0.816 -1.0352 -0.2027 -0.7328
 6906TIP3   OH244912   1.921   7.530   3.660  0.0260  0.1144  0.1585
 6906TIP3    H144913   1.859   7.523   3.733  1.9431  0.2505  1.8765
 6906TIP3    H244914   1.896   7.611   3.615 -1.0513  0.1488  0.7806
 6907TIP3   OH244915   5.527   6.807   2.677 -0.2230  0.0996 -0.4048
 6907TIP3    H144916   5.542   6.840   2.766  2.1736  0.1857 -0.7628
 6907TIP3    H244917   5.615   6.791   2.642 -1.1384 -1.5936 -2.1655
 6908TIP3   OH244918   3.011   1.653   0.551  0.1535  0.2854  0.2895
 6908TIP3    H144919   3.086   1.680   0.498  0.1550 -0.5345 -0.1265
 6908TIP3    H244920   3.033   1.566   0.582 -0.2024  0.4333  0.9847
 6909TIP3   OH244921   3.998   3.937   2.356  0.2480 -0.0147 -0.5969
 6909TIP3    H144922   3.974   3.930   2.449  0.7009  0.0546 -0.4693
 6909TIP3    H244923   4.051   3.860   2.340  0.8897  0.4131 -0.5678
 6910TIP3   OH244924   1.580   2.217   1.667  0.9683  0.3960  0.6280
 6910TIP3    H144925   1.601   2.146   1.728  1.4878 -1.3681 -1.4883
 6910TIP3    H244926   1.586   2.296   1.720  2.9443 -0.8957  2.5083
 6911TIP3   OH244927   7.111   5.855   2.389 -0.1288 -0.5195 -0.3304
 6911TIP3    H144928   7.132   5.932   2.336  0.2974 -1.0860 -1.0092
 6911TIP3    H244929   7.093   5.787   2.324  2.9059 -1.9390  0.1887
 6912TIP3   OH244930   6.009   6.246   1.912  0.0555  0.3813 -0.0644
 6912TIP3    H144931   6.027   6.170   1.857 -0.8200  0.1676 -0.0721
 6912TIP3    H244932   6.071   6.312   1.882  0.1155  0.0139 -0.7770
 6913TIP3   OH244933   7.178   2.148   2.629  0.5379  1.0594 -0.5966
 6913TIP3    H144934   7.171   2.126   2.721  1.4924  1.4554 -0.4174
 6913TIP3    H244935   7.155   2.068   2.583  0.2208  0.8139 -0.0127
 6914TIP3   OH244936   6.394   7.672   0.840 -0.2721  0.1106  0.0134
 6914TIP3    H144937   6.347   7.595   0.807  0.5099 -0.1621 -0.4994
 6914TIP3    H244938   6.420   7.647   0.929  1.5017 -0.9497 -0.7440
 6915TIP3   OH244939   3.622   7.082   2.526  0.2109 -0.3382 -1.0957
 6915TIP3    H144940   3.595   7.015   2.589 -0.9110  1.3119  0.2652
 6915TIP3    H244941   3.704   7.115   2.560  0.5524 -0.7014 -1.5446
 6916TIP3   OH244942   7.015   1.626   2.400 -0.0599 -0.5902  0.8485
 6916TIP3    H144943   6.939   1.642   2.344  0.6050  0.8825  0.3267
 6916TIP3    H244944   7.089   1.624   2.340  0.3104 -2.2969  1.3222
 6917TIP3   OH244945   2.229   7.047   1.270 -0.3737 -0.5729 -0.2001
 6917TIP3    H144946   2.196   6.986   1.204 -1.6010  0.0569 -0.2014
 6917TIP3    H244947   2.289   6.995   1.323  0.5162 -1.1313 -1.7013
 6918TIP3   OH244948   2.861   0.488   2.745 -0.0629 -0.9369  0.6689
 6918TIP3    H144949   2.909   0.565   2.715 -0.9609 -0.7834 -0.4926
 6918TIP3    H244950   2.775   0.523   2.770 -0.8220 -1.6534 -0.8173
 6919TIP3   OH244951   3.475   0.186   1.170 -0.6235  0.1251 -0.2305
 6919TIP3    H144952   3.463   0.093   1.153 -0.2384  0.2032 -0.9906
 6919TIP3    H244953   3.519   0.190   1.255  1.6395 -0.5172 -1.2943
 6920TIP3   OH244954   1.144   6.943   1.877  0.0458 -0.0434 -0.1602
 6920TIP3    H144955   1.234   6.911   1.887  0.1051  0.1103 -0.2020
 6920TIP3    H244956   1.148   7.034   1.906 -0.3195 -0.3457  0.8854
 6921TIP3   OH244957   3.706   4.355   1.045 -0.0819 -0.2156 -0.5786
 6921TIP3    H144958   3.638   4.382   0.984 -1.9918 -1.1122  1.0507
 6921TIP3    H244959   3.708   4.424   1.111  0.4968 -0.2775 -0.5268
 6922TIP3   OH244960   0.095   4.526   2.304  0.3408  0.3577  0.0720
 6922TIP3    H144961   0.134   4.587   2.365 -0.4434  1.3567 -0.3916
 6922TIP3    H244962   0.111   4.564   2.217 -3.0027  1.7747 -0.1048
 6923TIP3   OH244963   3.532   6.658   0.579  0.5066 -0.3911 -0.1431
 6923TIP3    H144964   3.602   6.717   0.551  0.7311 -0.9138 -0.7040
 6923TIP3    H244965   3.575   6.573   0.591  0.5254 -0.1013  2.2966
 6924TIP3   OH244966   2.720   7.306   0.532  0.0015  0.2820 -0.3640
 6924TIP3    H144967   2.651   7.363   0.497  0.7557  0.8559 -0.9548
 6924TIP3    H244968   2.715   7.318   0.627 -1.2961 -0.3814 -0.3345
 6925TIP3   OH244969   7.553   6.876   0.701  0.2756 -0.3997 -0.1804
 6925TIP3    H144970   7.539   6.950   0.642  0.1447  1.4340  2.0468
 6925TIP3    H244971   7.648   6.872   0.712  0.4963 -2.0626 -1.9998
 6926TIP3   OH244972   6.659   2.035   2.377  0.3930  0.0050 -0.4252
 6926TIP3    H144973   6.580   2.089   2.390  0.4065  0.7947 -3.1129
 6926TIP3    H244974   6.635   1.950   2.413 -1.2021  0.6035  0.0508
 6927TIP3   OH244975   0.235   4.400   0.760 -0.0009  0.4824 -0.1501
 6927TIP3    H144976   0.319   4.356   0.767  0.9291  2.3489  1.9597
 6927TIP3    H244977   0.171   4.330   0.748  1.7928 -1.0043 -1.4947
 6928TIP3   OH244978   2.225   6.672   2.622 -0.3118 -0.1399 -0.0366
 6928TIP3    H144979   2.144   6.713   2.651  0.2231 -0.4392  1.9881
 6928TIP3    H244980   2.265   6.637   2.701 -0.2487 -3.7512 -1.4667
 6929TIP3   OH244981   7.434   6.392   0.980  0.4889  0.7247 -0.7399
 6929TIP3    H144982   7.523   6.394   1.013  0.1071 -0.2899  0.4524
 6929TIP3    H244983   7.442   6.358   0.890  1.1804 -0.9750 -0.0749
 6930TIP3   OH244984   3.917   5.921   0.609 -0.0473 -0.0395 -0.3157
 6930TIP3    H144985   3.877   5.842   0.647 -1.4984  0.7169 -0.2064
 6930TIP3    H244986   3.868   5.937   0.529  0.3032  0.7093 -0.3888
 6931TIP3   OH244987   0.246   5.622   0.812 -0.9126 -0.1430 -0.4135
 6931TIP3    H144988   0.268   5.715   0.810 -2.0744  0.1859  0.6392
 6931TIP3    H244989   0.234   5.598   0.720 -1.9876  1.1227 -0.6233
 6932TIP3   OH244990   3.601   4.340   2.222  0.4564 -0.1555 -0.4497
 6932TIP3    H144991   3.572   4.296   2.141  1.1800 -0.1399 -0.7216
 6932TIP3    H244992   3.653   4.414   2.191  2.6541 -1.4134  0.0109
 6933TIP3   OH244993   5.099   0.658   1.490 -0.2521  0.3368 -0.2243
 6933TIP3    H144994   5.086   0.651   1.395  1.0815 -1.8123 -0.3322
 6933TIP3    H244995   5.085   0.569   1.522  1.8837  0.4242  1.1847
 6934TIP3   OH244996   4.637   1.082   2.709 -0.2986  0.4167  0.2628
 6934TIP3    H144997   4.684   1.087   2.792 -0.1627  1.1628  0.1447
 6934TIP3    H244998   4.690   1.023   2.655 -0.1843  0.2352  0.5728
 6935TIP3   OH244999   2.761   1.239   1.353  0.2223 -0.1608 -0.5569
 6935TIP3    H145000   2.686   1.246   1.295  0.7254  1.5876 -1.0633
 6935TIP3    H245001   2.837   1.234   1.295  0.5419 -1.4539 -0.0531
 6936TIP3   OH245002   0.663   1.292   1.893 -0.0339  0.0546 -0.0050
 6936TIP3    H145003   0.612   1.232   1.839  0.6293  0.4656 -1.1147
 6936TIP3    H245004   0.601   1.360   1.918 -0.1426  0.3524 -1.0364
 6937TIP3   OH245005   5.480   7.586   1.166 -0.2536 -0.0977  0.4442
 6937TIP3    H145006   5.524   7.520   1.219  0.4828  0.1580  0.1599
 6937TIP3    H245007   5.443   7.648   1.229  0.9939  0.4464  0.6624
 6938TIP3   OH245008   0.918   7.208   1.661 -0.4351  0.3773  0.3715
 6938TIP3    H145009   0.946   7.207   1.570 -1.3207 -2.4284  0.0572
 6938TIP3    H245010   0.847   7.272   1.664  0.0853  1.0401 -0.6910
 6939TIP3   OH245011   1.908   1.389   2.648 -0.9888 -0.8828 -0.4320
 6939TIP3    H145012   1.988   1.353   2.611 -0.7728 -1.4015  0.4992
 6939TIP3    H245013   1.932   1.413   2.738 -1.4255  0.5453 -0.6738
 6940TIP3   OH245014   3.770   3.411   1.435  0.9129  0.0967  0.7819
 6940TIP3    H145015   3.719   3.343   1.479  0.4985 -0.5856 -0.7211
 6940TIP3    H245016   3.711   3.447   1.369  2.4089 -0.9223 -1.2155
 6941TIP3   OH245017   0.267   5.855   1.995 -0.1600  0.2035  0.3870
 6941TIP3    H145018   0.279   5.851   2.090 -2.3517 -0.8306  0.6880
 6941TIP3    H245019   0.176   5.884   1.984 -0.4852 -1.3258 -1.3476
 6942TIP3   OH245020   4.400   7.623   1.418  0.4624  0.3105  0.0680
 6942TIP3    H145021   4.439   7.555   1.363 -3.0755 -3.2522  1.4924
 6942TIP3    H245022   4.327   7.657   1.366  1.0716  1.7688  0.1152
 6943TIP3   OH245023   4.554   5.843   1.851  0.1089 -0.3322 -0.9736
 6943TIP3    H145024   4.506   5.829   1.769 -2.7080 -1.3786  0.6840
 6943TIP3    H245025   4.564   5.937   1.858 -1.3576 -0.0954 -1.6580
 6944TIP3   OH245026   2.144   3.509   1.086  0.2055 -0.3353  0.0658
 6944TIP3    H145027   2.223   3.563   1.091  0.6410 -0.9160 -0.3583
 6944TIP3    H245028   2.143   3.459   1.168 -0.1835  0.2952  0.4465
 6945TIP3   OH245029   0.746   0.290   1.570 -0.3857  0.6736  0.6187
 6945TIP3    H145030   0.717   0.305   1.480  0.0392 -2.8395 -0.2435
 6945TIP3    H245031   0.841   0.303   1.567 -0.6238  2.8991  1.2048
 6946TIP3   OH245032   4.011   3.323   2.126  0.4369 -0.1884 -0.5384
 6946TIP3    H145033   4.034   3.379   2.051 -0.6336 -0.9176 -1.4303
 6946TIP3    H245034   3.961   3.381   2.184  4.7475  1.7222  1.8669
 6947TIP3   OH245035   1.315   7.290   1.781  0.5965 -0.3516 -1.0882
 6947TIP3    H145036   1.256   7.239   1.836  1.7824 -1.1099 -0.4745
 6947TIP3    H245037   1.323   7.374   1.826  0.4680 -0.4681 -0.8466
 6948TIP3   OH245038   1.536   5.305   1.541  0.3147 -0.6928  0.5466
 6948TIP3    H145039   1.514   5.333   1.630 -4.4831  1.7414 -1.0592
 6948TIP3    H245040   1.571   5.384   1.500 -0.2971 -0.9114 -0.4282
 6949TIP3   OH245041   6.915   2.411   0.683  0.1036 -0.6551 -0.4039
 6949TIP3    H145042   6.853   2.390   0.613  0.1939  0.5154 -0.8523
 6949TIP3    H245043   7.001   2.400   0.643  0.1603 -0.5019 -0.3253
 6950TIP3   OH245044   4.295   0.961   0.877  0.2781 -0.1614 -0.0940
 6950TIP3    H145045   4.224   1.025   0.885 -1.2819 -1.7528 -0.5675
 6950TIP3    H245046   4.374   1.012   0.891 -0.6996  2.4086 -2.6986
 6951TIP3   OH245047   6.710   4.923   2.744 -0.1597 -0.2632 -0.1060
 6951TIP3    H145048   6.733   5.016   2.749  0.6161 -0.4270 -0.4835
 6951TIP3    H245049   6.625   4.922   2.702 -0.3318  0.2948  0.2123
 6952TIP3   OH245050   1.633   7.667   1.096  0.1085 -0.6668 -0.4185
 6952TIP3    H145051   1.642   7.604   1.025  1.1958  0.0193 -0.9089
 6952TIP3    H245052   1.607   7.749   1.053  1.2542 -0.1176 -0.0993
 6953TIP3   OH245053   4.606   6.090   1.450 -0.3524 -0.0355  0.1639
 6953TIP3    H145054   4.586   6.136   1.368  0.8256 -0.0846 -0.1608
 6953TIP3    H245055   4.530   6.107   1.505 -1.2407 -0.1217 -0.9845
 6954TIP3   OH245056   6.301   0.725   2.656  0.1564  0.1050  0.3534
 6954TIP3    H145057   6.259   0.680   2.729 -0.9930 -1.1817 -1.0455
 6954TIP3    H245058   6.233   0.781   2.620 -0.8453 -2.6188 -2.4582
 6955TIP3   OH245059   7.022   5.458   2.668  0.7376  0.3342 -0.5957
 6955TIP3    H145060   6.947   5.486   2.615  1.0079 -0.2797 -1.3266
 6955TIP3    H245061   6.983   5.419   2.746  0.2447 -0.6875 -1.3169
 6956TIP3   OH245062   5.496   0.036   2.271 -0.5861  0.2458  0.0698
 6956TIP3    H145063   5.476   0.130   2.264  1.7644  0.6803 -3.2961
 6956TIP3    H245064   5.426  -0.006   2.221 -0.7543  0.3904  0.1819
 6957TIP3   OH245065   6.270   5.729   1.172 -0.3892  0.0107 -0.6106
 6957TIP3    H145066   6.244   5.746   1.262  0.8781 -1.0793  0.0033
 6957TIP3    H245067   6.205   5.774   1.119 -0.6207  1.4683  0.8497
 6958TIP3   OH245068   5.430   0.493   2.394  0.2323 -0.3538  0.5773
 6958TIP3    H145069   5.393   0.409   2.423 -1.3152  0.5935  1.5249
 6958TIP3    H245070   5.425   0.548   2.472 -0.2426  1.0867 -0.4410
 6959TIP3   OH245071   2.006   3.800   1.390  0.0717 -0.0421  0.4266
 6959TIP3    H145072   1.965   3.886   1.402  2.0827  1.0538 -0.1186
 6959TIP3    H245073   1.944   3.751   1.336 -1.3615  0.8563  1.1998
 6960TIP3   OH245074   3.036   0.110   2.471  0.5350  0.0808  0.0201
 6960TIP3    H145075   2.978   0.179   2.437 -2.3768 -1.1632  2.1042
 6960TIP3    H245076   3.089   0.154   2.537 -0.4516  0.5922  0.4935
 6961TIP3   OH245077   0.593   2.497   0.824 -0.4040 -0.1667 -0.5429
 6961TIP3    H145078   0.661   2.550   0.783  0.0860 -1.1736 -1.0642
 6961TIP3    H245079   0.597   2.412   0.779 -1.0507 -0.7124  0.3773
 6962TIP3   OH245080   1.206   7.099   1.347  0.5542  0.2460 -0.4917
 6962TIP3    H145081   1.144   7.049   1.400  1.4980 -0.4442 -0.0200
 6962TIP3    H245082   1.206   7.055   1.262  1.4305 -0.6207 -0.0585
 6963TIP3   OH245083   1.338   1.816   0.750  0.0640  0.6178  0.3302
 6963TIP3    H145084   1.276   1.761   0.798  0.1903  0.9083  0.8352
 6963TIP3    H245085   1.330   1.787   0.659 -0.0234 -0.0860  0.5557
 6964TIP3   OH245086   1.612   2.252   1.010 -0.0712 -0.0136  0.0719
 6964TIP3    H145087   1.663   2.185   0.964 -3.3536 -1.7233 -1.4520
 6964TIP3    H245088   1.549   2.282   0.944 -1.0595  1.9601  1.8153
 6965TIP3   OH245089   5.553   7.351   1.984  0.2200  0.2303  0.0722
 6965TIP3    H145090   5.551   7.325   2.076  2.1114  1.2975  0.4681
 6965TIP3    H245091   5.603   7.432   1.983 -2.0026  1.7071 -1.6109
 6966TIP3   OH245092   4.515   4.476   1.850  0.7573  0.4728 -0.5562
 6966TIP3    H145093   4.473   4.534   1.913  1.6148 -0.5905  1.0617
 6966TIP3    H245094   4.571   4.533   1.798  0.1402  1.3479 -0.2861
 6967TIP3   OH245095   2.834   5.655   2.774  0.3009  0.0558 -0.0061
 6967TIP3    H145096   2.835   5.607   2.691  0.8502  1.2467 -0.7134
 6967TIP3    H245097   2.819   5.587   2.840 -1.8347 -0.7478 -1.1765
 6968TIP3   OH245098   6.859   3.464   1.971  0.1907  0.6646 -0.2330
 6968TIP3    H145099   6.779   3.510   1.946  0.6823  1.3065 -0.6753
 6968TIP3    H245100   6.903   3.524   2.032 -0.2010 -0.1716  0.8895
 6969TIP3   OH245101   3.669   0.879   0.545  0.2564 -0.1587  0.3045
 6969TIP3    H145102   3.683   0.964   0.587  1.0639 -0.2658  0.2601
 6969TIP3    H245103   3.756   0.851   0.517  0.0206 -1.0660  0.4411
 6970TIP3   OH245104   6.835   2.325   1.156 -0.1742  0.2115  0.0295
 6970TIP3    H145105   6.755   2.272   1.152  0.1274 -0.2455  0.0640
 6970TIP3    H245106   6.832   2.377   1.076 -0.8117  0.6387  0.3256
 6971TIP3   OH245107   6.591   1.404   2.910  0.0133  0.0974  0.0354
 6971TIP3    H145108   6.597   1.320   2.864 -0.8773  1.4120 -2.6762
 6971TIP3    H245109   6.548   1.382   2.994 -1.1559 -2.0197 -1.0292
 6972TIP3   OH245110   1.726   6.988   3.096 -0.3870 -0.0193 -0.0091
 6972TIP3    H145111   1.685   7.060   3.145  1.1436  0.0725  1.2318
 6972TIP3    H245112   1.654   6.928   3.077 -1.1512  0.2368  1.8579
 6973TIP3   OH245113   6.578   5.514   2.198 -1.0083  0.5738 -0.5001
 6973TIP3    H145114   6.564   5.519   2.103  0.4601 -0.0163 -0.7781
 6973TIP3    H245115   6.604   5.423   2.213  0.3776  1.0679  0.2247
 6974TIP3   OH245116   2.804   3.327   1.387 -0.8245 -0.5193 -0.7403
 6974TIP3    H145117   2.797   3.392   1.317  0.3519  0.1917 -0.2321
 6974TIP3    H245118   2.738   3.354   1.451 -0.3589  0.1759 -0.5426
 6975TIP3   OH245119   4.531   7.529   0.601 -0.7484  0.0495 -0.1296
 6975TIP3    H145120   4.551   7.440   0.573  1.5343  0.4232  0.0890
 6975TIP3    H245121   4.541   7.527   0.696 -1.3112  0.4093 -0.0578
 6976TIP3   OH245122   4.287   3.274   0.816 -0.2600  0.4637  0.4572
 6976TIP3    H145123   4.248   3.251   0.901  0.7352  0.5013  0.9323
 6976TIP3    H245124   4.315   3.190   0.780 -0.8305  0.4287  0.0795
 6977TIP3   OH245125   2.193   2.718   0.535 -0.1412  0.5736 -0.2172
 6977TIP3    H145126   2.268   2.662   0.514 -1.0693  0.6970 -5.0640
 6977TIP3    H245127   2.117   2.663   0.516 -1.3549  1.1636  2.4785
 6978TIP3   OH245128   2.880   3.503   3.122 -0.0836 -0.0206  0.0551
 6978TIP3    H145129   2.811   3.511   3.057  0.6272  0.3068 -0.6787
 6978TIP3    H245130   2.902   3.593   3.145  0.3115 -0.1125  0.0484
 6979TIP3   OH245131   5.337   1.691   2.575 -0.2305  0.6421  0.3291
 6979TIP3    H145132   5.394   1.751   2.527 -0.0152  1.2694  1.3233
 6979TIP3    H245133   5.378   1.605   2.564  0.3318  0.9251  0.1608
 6980TIP3   OH245134   4.996   6.925   1.157 -0.4588 -0.1962  0.3171
 6980TIP3    H145135   4.978   6.892   1.245 -0.4889  1.9671  1.1737
 6980TIP3    H245136   4.915   6.970   1.131 -0.0142  0.2619 -0.3000
 6981TIP3   OH245137   2.481   1.404   3.248 -0.5592 -0.3940 -0.0676
 6981TIP3    H145138   2.574   1.419   3.266 -0.3456  1.5679 -2.2553
 6981TIP3    H245139   2.435   1.441   3.323  0.4027  1.8335 -0.4968
 6982TIP3   OH245140   7.314   2.262   1.932 -0.0313  0.2255 -0.7612
 6982TIP3    H145141   7.364   2.343   1.934  0.3952 -0.0257 -1.2317
 6982TIP3    H245142   7.380   2.193   1.928 -0.3921 -0.1447 -0.3977
 6983TIP3   OH245143   1.700   6.515   1.656  0.3436 -0.6842 -0.1028
 6983TIP3    H145144   1.792   6.502   1.675  0.0217  0.8142  3.0495
 6983TIP3    H245145   1.654   6.460   1.720 -0.9457 -0.4862 -0.8226
 6984TIP3   OH245146   1.208   0.803   0.951 -0.0543  0.4782 -0.0641
 6984TIP3    H145147   1.209   0.748   1.029 -1.6397  0.2844 -0.1469
 6984TIP3    H245148   1.115   0.811   0.928  0.3501  0.8352 -1.7228
 6985TIP3   OH245149   7.042   0.362   2.762  0.1079  0.1990 -0.4751
 6985TIP3    H145150   7.058   0.303   2.689  0.0313  0.1376 -0.4427
 6985TIP3    H245151   6.981   0.314   2.819  1.1858 -0.3013  0.2900
 6986TIP3   OH245152   4.820   5.468   2.190  0.7517 -0.2250 -0.8288
 6986TIP3    H145153   4.799   5.561   2.197  0.2831 -0.3934  0.2245
 6986TIP3    H245154   4.799   5.432   2.277  1.3968 -1.2176 -1.0706
 6987TIP3   OH245155   7.458   1.411   1.616  0.3482  0.4151 -0.6103
 6987TIP3    H145156   7.536   1.428   1.669  0.0369 -0.6542  0.2426
 6987TIP3    H245157   7.390   1.465   1.656  0.2988  0.2010 -0.4018
 6988TIP3   OH245158   3.139   3.061   1.876  0.0861 -0.5433  0.0621
 6988TIP3    H145159   3.161   3.126   1.943 -0.9444 -0.1751  0.0554
 6988TIP3    H245160   3.108   3.113   1.802 -1.9690 -1.0616  0.5120
 6989TIP3   OH245161   5.065   1.528   1.134 -0.2281  0.3284 -0.0826
 6989TIP3    H145162   5.059   1.500   1.225 -0.6969  0.3562 -0.1008
 6989TIP3    H245163   5.028   1.455   1.084  0.6734  0.0100 -0.3137
 6990TIP3   OH245164   5.420   2.075   1.073  0.2865  0.2727 -1.0181
 6990TIP3    H145165   5.338   2.043   1.036  0.8388  1.5813 -3.6346
 6990TIP3    H245166   5.483   2.004   1.056 -0.1707 -0.5925  0.6936
 6991TIP3   OH245167   1.637   5.962   2.240  0.3292  0.1386 -0.0933
 6991TIP3    H145168   1.629   6.038   2.299 -0.0837  0.1733 -0.1880
 6991TIP3    H245169   1.730   5.955   2.221  0.3860  0.5303  0.0401
 6992TIP3   OH245170   1.760   2.923   0.780 -0.1594  0.1997 -0.1061
 6992TIP3    H145171   1.742   2.920   0.874  0.2199  0.1443 -0.0324
 6992TIP3    H245172   1.846   2.965   0.774  0.2472 -0.6635 -0.3743
 6993TIP3   OH245173   2.423   6.664   2.878  0.6820  0.0031 -0.0011
 6993TIP3    H145174   2.499   6.691   2.827  0.4535 -0.6298 -0.6987
 6993TIP3    H245175   2.401   6.740   2.932  0.7651  0.7815 -1.0419
 6994TIP3   OH245176   5.602   7.121   2.188 -0.2577 -0.8037 -0.2674
 6994TIP3    H145177   5.687   7.160   2.209  0.4578 -1.4668 -1.8020
 6994TIP3    H245178   5.596   7.044   2.244  0.2959 -0.9085 -0.3434
 6995TIP3   OH245179   5.105   0.382   2.783 -0.3206  0.5407  0.1648
 6995TIP3    H145180   5.074   0.403   2.871 -0.5229 -1.9135  0.7603
 6995TIP3    H245181   5.037   0.417   2.725  0.1369  2.7619  0.8797
 6996TIP3   OH245182   2.754   0.253   1.954 -0.1745  0.7222 -0.4067
 6996TIP3    H145183   2.742   0.170   1.906 -1.0006  1.4954 -1.5897
 6996TIP3    H245184   2.728   0.232   2.044 -0.9162 -0.1843 -0.8059
 6997TIP3   OH245185   0.398   3.550   2.296  0.3203 -0.2113 -0.9256
 6997TIP3    H145186   0.455   3.599   2.237  2.7781 -0.1493  1.3198
 6997TIP3    H245187   0.398   3.601   2.377 -1.3588 -1.2697 -0.2093
 6998TIP3   OH245188   1.009   4.424   2.739  0.1638 -0.1719  0.2774
 6998TIP3    H145189   1.007   4.517   2.764  0.3909  0.0888 -0.6220
 6998TIP3    H245190   1.025   4.426   2.645  0.6120 -1.1476  0.3280
 6999TIP3   OH245191   6.352   3.074   1.540 -0.2877 -0.1457  0.3256
 6999TIP3    H145192   6.433   3.063   1.590  0.1339  0.2668 -0.2628
 6999TIP3    H245193   6.371   3.037   1.454 -0.6909  0.0640  0.1437
 7000TIP3   OH245194   1.586   3.364   0.781 -0.0202  0.8894 -0.2031
 7000TIP3    H145195   1.617   3.394   0.866 -1.1184  4.5491 -0.9151
 7000TIP3    H245196   1.664   3.332   0.737  0.8355  0.3581  1.6099
 7001TIP3   OH245197   0.790   2.207   3.292 -0.0087  0.3595 -0.2625
 7001TIP3    H145198   0.728   2.145   3.253  2.4212 -1.2749 -1.8513
 7001TIP3    H245199   0.756   2.293   3.269 -0.6299 -0.4955 -2.9585
 7002TIP3   OH245200   2.527   7.253   1.069  0.3513 -0.2616  0.3191
 7002TIP3    H145201   2.604   7.219   1.025 -0.1097  0.8724 -1.4839
 7002TIP3    H245202   2.496   7.324   1.012 -1.5755 -0.1807  1.3704
 7003TIP3   OH245203   4.509   3.768   1.949  0.0110  1.0734  0.2167
 7003TIP3    H145204   4.569   3.694   1.955 -0.0822  1.0381  0.7365
 7003TIP3    H245205   4.522   3.802   1.860  2.5112  2.4789  0.9937
 7004TIP3   OH245206   2.363   4.893   1.472  0.0651  0.1156 -0.2655
 7004TIP3    H145207   2.304   4.945   1.527 -0.5662 -0.3664 -0.4738
 7004TIP3    H245208   2.399   4.827   1.531 -1.2894 -0.9613 -0.5826
 7005TIP3   OH245209   2.591   4.945   1.051 -0.1494 -0.0689 -0.0952
 7005TIP3    H145210   2.537   4.893   0.992 -1.0139  0.0224  0.5999
 7005TIP3    H245211   2.672   4.895   1.059  0.0564  0.0022 -1.4836
 7006TIP3   OH245212   4.263   3.913   2.695 -0.2258 -0.4106  0.6557
 7006TIP3    H145213   4.324   3.840   2.704  0.9692  0.6076  1.1089
 7006TIP3    H245214   4.183   3.873   2.662  1.8531 -1.3124 -4.1899
 7007TIP3   OH245215   2.701   4.462   1.944 -0.0565 -0.7497 -0.2234
 7007TIP3    H145216   2.659   4.537   1.901 -0.7717 -1.0397 -0.0446
 7007TIP3    H245217   2.653   4.452   2.026 -1.1078 -2.4317 -0.9937
 7008TIP3   OH245218   3.768   2.981   2.624 -0.0455  0.1850 -0.3518
 7008TIP3    H145219   3.829   2.963   2.695  0.2843 -0.2266 -0.7270
 7008TIP3    H245220   3.824   3.008   2.551 -0.3866  0.7199 -0.4166
 7009TIP3   OH245221   2.077   4.310   3.155  0.5464 -0.2926  0.7145
 7009TIP3    H145222   2.056   4.401   3.138 -0.2163 -0.6645 -0.4026
 7009TIP3    H245223   2.168   4.312   3.187  1.0697  0.7316 -0.7256
 7010TIP3   OH245224   3.471   1.805   1.331  0.5268  0.4579 -0.0410
 7010TIP3    H145225   3.508   1.853   1.405 -0.1139  1.2426 -0.2122
 7010TIP3    H245226   3.411   1.742   1.371  2.7564 -1.5840  0.3152
 7011TIP3   OH245227   2.943   7.579   2.617  0.0733  0.0874  0.7544
 7011TIP3    H145228   2.979   7.638   2.551 -1.0053 -0.8743 -0.7764
 7011TIP3    H245229   3.005   7.582   2.690  0.0872  3.0199  0.7208
 7012TIP3   OH245230   1.938   4.176   2.701 -0.0437 -0.2483  0.5403
 7012TIP3    H145231   1.979   4.167   2.787 -0.1066  2.7256  0.9834
 7012TIP3    H245232   2.012   4.190   2.641 -0.0591 -1.4986  0.1952
 7013TIP3   OH245233   0.958   7.671   2.886  0.2269  0.1029  0.5034
 7013TIP3    H145234   0.871   7.691   2.921  0.0828 -1.1828  0.9187
 7013TIP3    H245235   0.974   7.580   2.911  1.6247  0.2641  0.2759
 7014TIP3   OH245236   3.553   7.153   1.887  0.3043 -0.2676  0.3091
 7014TIP3    H145237   3.558   7.084   1.953 -0.7256 -0.0986  0.5816
 7014TIP3    H245238   3.636   7.199   1.895  0.6496 -0.9404  0.7217
 7015TIP3   OH245239   6.053   6.486   2.688 -0.3258  0.8613  0.2735
 7015TIP3    H145240   6.050   6.499   2.593  1.3679  1.1579  0.2320
 7015TIP3    H245241   6.136   6.441   2.703 -0.9635  0.0533  1.5455
 7016TIP3   OH245242   3.172   5.639   1.673  0.1323 -0.4333  0.5451
 7016TIP3    H145243   3.187   5.729   1.701 -0.5818  0.3432 -1.3575
 7016TIP3    H245244   3.256   5.610   1.637  0.4972 -0.7283  1.5988
 7017TIP3   OH245245   0.720   3.216   2.419 -0.2733 -0.0806 -0.0928
 7017TIP3    H145246   0.656   3.262   2.366  0.3453  0.4335 -0.4145
 7017TIP3    H245247   0.752   3.145   2.362  0.8079  0.8205 -0.6441
 7018TIP3   OH245248   5.582   1.412   1.500 -0.0686  0.0663 -0.1998
 7018TIP3    H145249   5.599   1.428   1.407  1.8849  0.5841  0.2146
 7018TIP3    H245250   5.668   1.396   1.538 -0.8742 -0.4863  1.4772
 7019TIP3   OH245251   0.365   0.547   3.308 -0.5962 -0.2390 -0.2795
 7019TIP3    H145252   0.286   0.600   3.316 -0.0259  0.3943  1.5430
 7019TIP3    H245253   0.336   0.468   3.262 -2.1371  0.2552 -0.2106
 7020TIP3   OH245254   4.371   4.861   2.392 -0.1787 -0.2584  0.0430
 7020TIP3    H145255   4.285   4.903   2.388  0.1837  0.7627  2.0267
 7020TIP3    H245256   4.355   4.779   2.439 -0.1362 -0.3212 -0.0501
 7021TIP3   OH245257   5.830   3.768   0.844 -0.2221 -0.6454  0.2142
 7021TIP3    H145258   5.887   3.706   0.889 -0.1775 -0.8722 -0.1540
 7021TIP3    H245259   5.877   3.851   0.848  1.5906 -1.3912 -2.6787
 7022TIP3   OH245260   5.271   3.006   0.699  0.0356  0.5977  0.2549
 7022TIP3    H145261   5.256   2.914   0.722  2.6980 -0.8130 -2.8833
 7022TIP3    H245262   5.190   3.032   0.655 -0.6338 -0.3535  0.8750
 7023TIP3   OH245263   0.012   1.043   2.990 -0.2302  0.0199 -0.3777
 7023TIP3    H145264   0.071   1.119   2.987 -1.0523  0.6694 -0.4644
 7023TIP3    H245265   0.006   1.022   3.083 -0.2670  0.2810 -0.3188
 7024TIP3   OH245266   1.354   7.111   3.587  0.4223 -0.3499  0.0450
 7024TIP3    H145267   1.406   7.061   3.649  0.4342 -0.2887  0.0848
 7024TIP3    H245268   1.418   7.157   3.533  0.4523 -1.5992 -1.0220
 7025TIP3   OH245269   0.726   2.892   2.741 -0.0022 -0.2778 -0.0385
 7025TIP3    H145270   0.652   2.900   2.681 -0.9361  1.1080  1.2244
 7025TIP3    H245271   0.754   2.983   2.756  2.1848 -0.7783 -0.7174
 7026TIP3   OH245272   6.275   3.546   2.161 -0.3367 -0.8178 -0.0322
 7026TIP3    H145273   6.194   3.515   2.201  0.0692 -1.2070  0.5093
 7026TIP3    H245274   6.335   3.472   2.168 -0.0075 -0.6233 -0.6617
 7027TIP3   OH245275   5.764   5.456   2.008 -0.3492 -0.1300 -0.0001
 7027TIP3    H145276   5.702   5.463   2.080  1.4399  0.0063  1.6186
 7027TIP3    H245277   5.732   5.382   1.956 -1.5575 -0.4042  1.0746
 7028TIP3   OH245278   4.544   0.014   0.842  0.4640  0.4016  0.6001
 7028TIP3    H145279   4.483   0.011   0.769  1.4354 -0.1751 -0.2214
 7028TIP3    H245280   4.491   0.040   0.917 -0.8012 -0.2449 -0.0476
 7029TIP3   OH245281   0.335   3.460   2.801 -0.2902 -0.0099  0.3341
 7029TIP3    H145282   0.290   3.393   2.750 -0.2495  1.2233 -1.4215
 7029TIP3    H245283   0.266   3.503   2.852 -0.5504 -0.3763  0.2909
 7030TIP3   OH245284   5.759   7.320   2.364 -0.0985  0.3735 -0.4619
 7030TIP3    H145285   5.844   7.318   2.320  0.1543 -0.3850  0.0393
 7030TIP3    H245286   5.707   7.383   2.314  0.0752 -0.6686 -2.0016
 7031TIP3   OH245287   2.421   3.347   1.817 -0.6056 -0.1356 -0.6792
 7031TIP3    H145288   2.496   3.380   1.867  0.2079  1.1520 -2.6600
 7031TIP3    H245289   2.345   3.370   1.871  0.1767  2.0091 -0.3887
 7032TIP3   OH245290   1.084   5.311   0.842  0.5604 -0.1555  0.3477
 7032TIP3    H145291   1.026   5.309   0.766 -1.1756 -1.7805  1.6187
 7032TIP3    H245292   1.171   5.296   0.806 -0.0505  0.2442 -1.4162
 7033TIP3   OH245293   3.468   7.177   1.249 -0.2902 -0.2014  0.2029
 7033TIP3    H145294   3.399   7.186   1.315 -1.6506  0.5894 -1.2637
 7033TIP3    H245295   3.542   7.227   1.284 -1.9679  2.7501 -0.1251
 7034TIP3   OH245296   5.009   6.680   0.997  0.5374  0.4000 -0.1902
 7034TIP3    H145297   4.982   6.738   1.068 -3.6957 -2.5199  0.9282
 7034TIP3    H245298   5.000   6.734   0.918 -0.3971  2.0772  0.9955
 7035TIP3   OH245299   2.017   6.408   3.169 -0.2687 -0.3995  0.6509
 7035TIP3    H145300   1.979   6.436   3.252  0.2247  0.9853  0.4554
 7035TIP3    H245301   1.945   6.368   3.121 -0.3697 -1.9898  2.0482
 7036TIP3   OH245302   4.983   0.162   2.411 -0.5860  0.4431  0.1096
 7036TIP3    H145303   5.012   0.242   2.455  0.1063  0.7778 -0.9210
 7036TIP3    H245304   4.910   0.190   2.356 -1.4757  0.0180  1.0491
 7037TIP3   OH245305   7.071   2.590   1.788 -0.4023 -0.5681 -0.7334
 7037TIP3    H145306   7.160   2.624   1.802 -0.8604 -0.0504  1.1735
 7037TIP3    H245307   7.076   2.545   1.704  1.5298 -0.1028 -0.9213
 7038TIP3   OH245308   5.363   7.409   7.442 -0.2983  0.0514 -0.2097
 7038TIP3    H145309   5.411   7.378   7.518  2.5178  1.7905 -1.1407
 7038TIP3    H245310   5.286   7.453   7.479  0.2439 -0.3917  1.5422
 7039TIP3   OH245311   7.189   2.654   0.706  0.1255 -0.4475 -0.4316
 7039TIP3    H145312   7.236   2.736   0.720 -0.5858 -0.1575  0.3370
 7039TIP3    H245313   7.102   2.681   0.676  0.1753 -0.9534 -1.0580
 7040TIP3   OH245314   5.289   5.345   2.162 -1.0665  0.1155 -0.5573
 7040TIP3    H145315   5.200   5.327   2.130 -0.8588 -0.3453 -0.8806
 7040TIP3    H245316   5.280   5.348   2.257 -1.4618  0.2472 -0.5960
 7041TIP3   OH245317   7.596   4.830   0.607 -0.0820  0.0842 -0.2121
 7041TIP3    H145318   7.619   4.914   0.648  1.4867 -0.0430 -0.7575
 7041TIP3    H245319   7.505   4.815   0.633 -0.0629  1.4364  0.7658
 7042TIP3   OH245320   6.143   2.383   0.975  0.6502  0.3959 -0.0754
 7042TIP3    H145321   6.136   2.423   0.888  0.2473  1.8301  0.5830
 7042TIP3    H245322   6.215   2.320   0.967  0.8833  0.7893 -1.3309
 7043TIP3   OH245323   3.959   3.914   2.873  0.7521  0.4335  0.1095
 7043TIP3    H145324   4.047   3.911   2.911  0.6564  1.3037  0.4334
 7043TIP3    H245325   3.902   3.936   2.947  0.0357 -1.6410  0.2230
 7044TIP3   OH245326   6.862   5.123   1.345 -0.1715  0.0740  0.6423
 7044TIP3    H145327   6.773   5.158   1.338 -0.2473  0.2337  2.0164
 7044TIP3    H245328   6.918   5.200   1.346 -0.1267  0.0396  1.0045
 7045TIP3   OH245329   5.570   5.673   2.578  1.1928 -0.7548  0.0934
 7045TIP3    H145330   5.599   5.642   2.664 -0.1372  2.1122  1.6907
 7045TIP3    H245331   5.614   5.756   2.565  1.3074 -1.0787 -2.0299
 7046TIP3   OH245332   5.536   5.895   1.113 -0.1094  0.4494 -0.3761
 7046TIP3    H145333   5.501   5.875   1.200 -0.9430  2.7612 -0.1057
 7046TIP3    H245334   5.508   5.985   1.097  0.8926  0.4066 -2.6303
 7047TIP3   OH245335   0.484   7.425   0.753 -0.1244  0.2978  0.1436
 7047TIP3    H145336   0.524   7.434   0.840  0.2983 -0.0652 -0.0141
 7047TIP3    H245337   0.553   7.389   0.698 -0.2072  1.0925 -0.4942
 7048TIP3   OH245338   4.809   1.250   3.109 -0.2582  0.0809  0.3300
 7048TIP3    H145339   4.736   1.291   3.064 -1.1379 -2.4904 -0.7351
 7048TIP3    H245340   4.856   1.202   3.042 -0.1690 -1.8616  1.6898
 7049TIP3   OH245341   1.388   4.625   1.472 -0.3232 -0.0918  0.1069
 7049TIP3    H145342   1.452   4.696   1.476 -1.3982  0.9880 -1.1647
 7049TIP3    H245343   1.441   4.547   1.456  0.7637  0.6203  0.1378
 7050TIP3   OH245344   2.221   6.853   1.039  0.3871 -0.5007 -0.1923
 7050TIP3    H145345   2.158   6.784   1.063 -1.2225  0.8146 -0.4673
 7050TIP3    H245346   2.209   6.865   0.945 -0.2611  0.9873  0.0515
 7051TIP3   OH245347   6.944   7.597   1.115  0.0125  0.0708  0.1084
 7051TIP3    H145348   7.006   7.641   1.173  0.4125  0.3864 -0.5441
 7051TIP3    H245349   6.864   7.649   1.122 -0.1279 -0.2353  0.8204
 7052TIP3   OH245350   2.171   0.310   1.461  0.2018 -0.0947  0.5057
 7052TIP3    H145351   2.222   0.234   1.489  0.3961 -0.3921 -0.6195
 7052TIP3    H245352   2.233   0.383   1.463  0.9194 -0.5757 -1.5140
 7053TIP3   OH245353   4.097   0.679   1.711 -0.0870  0.5137  0.1195
 7053TIP3    H145354   4.019   0.659   1.659 -0.1452 -1.0232  0.7521
 7053TIP3    H245355   4.065   0.684   1.801  0.4638  0.4253  0.3202
 7054TIP3   OH245356   7.680   0.957   0.672  0.1069 -0.2531  0.0136
 7054TIP3    H145357   7.615   0.913   0.617 -0.2303  0.6175 -0.3109
 7054TIP3    H245358   7.764   0.921   0.644 -0.2347 -1.5113  0.5469
 7055TIP3   OH245359   0.152   6.740   2.254  0.3154 -0.1044 -0.3444
 7055TIP3    H145360   0.170   6.813   2.314 -0.5006 -0.4961  0.4021
 7055TIP3    H245361   0.213   6.672   2.281  1.1057  0.3019 -1.0680
 7056TIP3   OH245362   4.932   3.704   2.123 -0.3661 -0.1643 -0.1464
 7056TIP3    H145363   4.902   3.621   2.086  1.0155 -2.0185  2.5205
 7056TIP3    H245364   4.851   3.750   2.147 -1.1563 -0.6113 -1.8411
 7057TIP3   OH245365   7.241   2.081   1.368  0.2817 -0.4319  0.1022
 7057TIP3    H145366   7.239   1.985   1.363 -0.0095 -0.4184 -0.0336
 7057TIP3    H245367   7.204   2.110   1.285 -1.0514 -0.2055  0.7516
 7058TIP3   OH245368   1.454   4.402   1.994  0.3435  0.9044 -0.0702
 7058TIP3    H145369   1.407   4.348   2.058  1.1628 -0.6084 -0.6853
 7058TIP3    H245370   1.409   4.486   1.996  0.4466  0.9921  2.6177
 7059TIP3   OH245371   2.477   1.487   1.946 -0.0902 -0.4434 -0.0289
 7059TIP3    H145372   2.387   1.470   1.974  0.6154 -0.0061  2.8926
 7059TIP3    H245373   2.470   1.507   1.853 -3.0629 -0.0929  0.1663
 7060TIP3   OH245374   3.818   2.310   1.873 -0.7022 -0.1880 -0.2158
 7060TIP3    H145375   3.744   2.319   1.934 -1.5198 -2.0383 -0.8677
 7060TIP3    H245376   3.815   2.218   1.846  2.9616 -0.8435  1.1241
 7061TIP3   OH245377   6.723   1.118   1.969  0.4106  0.3188  0.0280
 7061TIP3    H145378   6.815   1.099   1.988  0.8205  1.2679 -0.9486
 7061TIP3    H245379   6.724   1.202   1.923 -0.7961 -0.4510 -1.4905
 7062TIP3   OH245380   1.041   5.919   2.707 -0.3595  0.5482 -0.6734
 7062TIP3    H145381   1.084   5.907   2.792  0.3510  1.6318 -0.8638
 7062TIP3    H245382   0.952   5.946   2.729  0.0792  1.7272 -0.2459
 7063TIP3   OH245383   3.495   0.331   1.865 -0.7170 -0.1054  0.1106
 7063TIP3    H145384   3.462   0.358   1.779 -0.4515 -0.5486 -0.1374
 7063TIP3    H245385   3.425   0.277   1.901 -0.7483 -0.0804  0.0875
 7064TIP3   OH245386   3.228   6.627   2.067 -0.7262  0.3079 -0.0165
 7064TIP3    H145387   3.210   6.687   1.994 -0.6131  1.0753  0.5751
 7064TIP3    H245388   3.259   6.547   2.025  0.4622  1.1313 -0.7791
 7065TIP3   OH245389   1.861   6.150   2.642 -0.3254 -0.1541 -0.2630
 7065TIP3    H145390   1.776   6.133   2.683 -0.0494 -0.0222  0.3642
 7065TIP3    H245391   1.917   6.179   2.713  0.0532  0.4532 -0.7943
 7066TIP3   OH245392   5.254   6.794   0.877 -0.8013  0.0620  0.3529
 7066TIP3    H145393   5.225   6.793   0.968 -0.0204 -0.5147  0.6051
 7066TIP3    H245394   5.248   6.703   0.848  0.4713 -0.0320  0.3322
 7067TIP3   OH245395   5.360   5.534   1.464 -0.6075  0.0742  0.0646
 7067TIP3    H145396   5.376   5.574   1.550  1.5594 -0.4388 -0.0377
 7067TIP3    H245397   5.371   5.605   1.402 -0.0878  0.0225  0.0932
 7068TIP3   OH245398   1.425   2.929   1.309 -0.6089  0.6838  0.1433
 7068TIP3    H145399   1.429   2.835   1.289  0.8157  0.5248  1.0298
 7068TIP3    H245400   1.440   2.972   1.225 -1.9286  0.1505 -0.3926
 7069TIP3   OH245401   0.545   5.110   1.152 -0.2767 -0.0852  0.4495
 7069TIP3    H145402   0.455   5.087   1.129 -0.4207  0.9620 -0.1242
 7069TIP3    H245403   0.566   5.054   1.227 -0.8003 -1.5494 -0.4630
 7070TIP3   OH245404   0.060   6.340   1.591 -0.1790 -0.3846  0.4776
 7070TIP3    H145405   0.055   6.246   1.605 -0.2292 -0.4316  0.1594
 7070TIP3    H245406   0.086   6.349   1.499  1.8126 -0.1044  1.0398
 7071TIP3   OH245407   7.116   1.623   1.496  0.1369 -0.2495  0.1593
 7071TIP3    H145408   7.093   1.530   1.498  1.5131 -0.6135  0.1861
 7071TIP3    H245409   7.080   1.659   1.577 -0.4754 -0.7401  0.1075
 7072TIP3   OH245410   6.356   2.997   2.889  0.5351 -0.3606 -0.5521
 7072TIP3    H145411   6.320   2.917   2.851 -0.4394  0.0021 -0.4239
 7072TIP3    H245412   6.385   2.970   2.977 -1.6072 -0.1924  0.2765
 7073TIP3   OH245413   1.268   7.494   2.596  0.0972  0.3303  0.2633
 7073TIP3    H145414   1.284   7.446   2.677  0.2584  0.9219  0.5894
 7073TIP3    H245415   1.208   7.565   2.621 -1.4018 -0.6064 -0.5231
 7074TIP3   OH245416   0.383   4.692   3.363 -0.5943  0.1273  0.3860
 7074TIP3    H145417   0.342   4.613   3.329  0.6696  0.5978 -2.4674
 7074TIP3    H245418   0.314   4.758   3.362 -0.6280  0.0964 -1.2730
 7075TIP3   OH245419   1.953   7.234   1.290  0.2190 -0.1736 -0.7289
 7075TIP3    H145420   2.048   7.227   1.293  0.5501  2.8752 -0.9938
 7075TIP3    H245421   1.928   7.269   1.376 -0.7889 -1.6702 -0.3766
 7076TIP3   OH245422   2.481   4.196   0.681  0.3325  0.5110 -0.0707
 7076TIP3    H145423   2.449   4.107   0.666  3.1899 -0.6175  0.0344
 7076TIP3    H245424   2.429   4.250   0.621 -1.4109 -1.2024 -0.1889
 7077TIP3   OH245425   2.052   2.637   1.313  0.3411  0.1265 -0.4112
 7077TIP3    H145426   2.059   2.710   1.251 -0.9201  0.0646 -0.6493
 7077TIP3    H245427   2.052   2.559   1.259  2.2074 -0.1280 -0.1275
 7078TIP3   OH245428   7.483   4.128   1.883 -0.4460  0.2039  0.8561
 7078TIP3    H145429   7.567   4.170   1.899  0.1489 -0.7181  0.2411
 7078TIP3    H245430   7.504   4.036   1.868 -1.3803  0.2601 -1.0506
 7079TIP3   OH245431   0.381   2.695   0.796 -0.0014 -0.1305  0.6582
 7079TIP3    H145432   0.349   2.643   0.869  1.8185 -1.0600  0.8605
 7079TIP3    H245433   0.467   2.658   0.777 -0.1309  0.5452 -1.5030
 7080TIP3   OH245434   3.507   4.537   1.891  0.0777  0.1897  0.5033
 7080TIP3    H145435   3.594   4.533   1.932  0.6538  1.4432 -0.5183
 7080TIP3    H245436   3.448   4.552   1.965  0.8661  0.4562  1.1069
 7081TIP3   OH245437   4.275   1.337   1.951 -0.2172  0.3346  0.2837
 7081TIP3    H145438   4.266   1.430   1.973  2.8529  1.6696 -2.9942
 7081TIP3    H245439   4.353   1.309   1.999  0.0572  0.0702 -0.3079
 7082TIP3   OH245440   7.363   7.148   2.761  0.0393 -0.1366  0.2939
 7082TIP3    H145441   7.326   7.167   2.675  0.4238  3.2742  0.7378
 7082TIP3    H245442   7.287   7.142   2.819 -0.1514  1.9397  0.3616
 7083TIP3   OH245443   0.873   0.548   1.801  0.0316  0.5146  0.1859
 7083TIP3    H145444   0.842   0.478   1.858 -0.8873  0.0952 -0.8091
 7083TIP3    H245445   0.966   0.556   1.823 -0.1986  0.0734  1.4265
 7084TIP3   OH245446   3.170   2.280   1.898 -0.4485  0.2726  0.2003
 7084TIP3    H145447   3.087   2.270   1.853  0.3650  1.5096 -1.6956
 7084TIP3    H245448   3.231   2.226   1.848  0.2861  0.8917  0.4108
 7085TIP3   OH245449   4.053   3.429   1.874  0.4755  0.3157 -0.2873
 7085TIP3    H145450   4.110   3.434   1.797  1.3868  3.5407  0.4404
 7085TIP3    H245451   3.970   3.466   1.844  0.2672 -0.0403 -0.1527
 7086TIP3   OH245452   4.527   3.698   2.979 -0.0232  0.0679  0.4662
 7086TIP3    H145453   4.450   3.668   3.027 -0.2127  0.9588  0.7382
 7086TIP3    H245454   4.552   3.780   3.023  1.6025 -0.6545  0.9323
 7087TIP3   OH245455   2.540   5.181   3.157 -0.8332  0.4127  0.5682
 7087TIP3    H145456   2.594   5.111   3.121 -1.1548  0.6008 -0.2868
 7087TIP3    H245457   2.593   5.218   3.228 -0.0166  0.3120  0.0224
 7088TIP3   OH245458   3.489   5.283   2.575 -0.0975  0.4238  0.2524
 7088TIP3    H145459   3.447   5.359   2.614  1.2568  0.5677  1.4602
 7088TIP3    H245460   3.418   5.219   2.566 -0.4770  0.3640  3.0169
 7089TIP3   OH245461   5.342   5.134   0.733 -0.0569  0.1665 -0.2812
 7089TIP3    H145462   5.296   5.122   0.650  0.6804  2.5363 -1.1003
 7089TIP3    H245463   5.275   5.165   0.793 -0.1739  0.4797 -0.5716
 7090TIP3   OH245464   0.329   5.772   1.215  0.1939  0.3319  0.4140
 7090TIP3    H145465   0.310   5.681   1.191 -1.6810  0.6190  0.7155
 7090TIP3    H245466   0.326   5.773   1.311 -1.8304  1.0675  0.3972
 7091TIP3   OH245467   1.341   5.388   2.035 -0.0718  0.2581  0.3220
 7091TIP3    H145468   1.284   5.464   2.030 -0.6312 -0.1016  0.9903
 7091TIP3    H245469   1.386   5.397   2.118  0.7922  0.4953 -0.1648
 7092TIP3   OH245470   3.401   5.908   3.219  0.4979  0.1299 -0.1348
 7092TIP3    H145471   3.471   5.924   3.156  2.5536  0.0022  1.9662
 7092TIP3    H245472   3.431   5.831   3.269 -0.9731  0.2834  1.0628
 7093TIP3   OH245473   6.863   2.843   3.521  0.2743 -0.0475 -0.2675
 7093TIP3    H145474   6.819   2.758   3.527 -0.4856  0.4203  1.4532
 7093TIP3    H245475   6.906   2.852   3.607  1.4086  0.7516 -0.9030
 7094TIP3   OH245476   6.456   0.018   1.815  0.3934  0.3348 -0.3753
 7094TIP3    H145477   6.457  -0.071   1.850 -0.2814  0.2459 -0.5605
 7094TIP3    H245478   6.519   0.017   1.743  0.8277  0.1681  0.0064
 7095TIP3   OH245479   4.550   7.151   1.201  0.2165  0.4155  0.3303
 7095TIP3    H145480   4.603   7.164   1.279 -1.2661 -0.1033  1.4671
 7095TIP3    H245481   4.472   7.205   1.215  0.2537  0.9149 -1.1518
 7096TIP3   OH245482   4.819   7.208   1.881  0.0777 -0.1293  0.2575
 7096TIP3    H145483   4.744   7.201   1.823  0.3957  1.4165 -0.3973
 7096TIP3    H245484   4.813   7.295   1.919  0.0690 -0.9747  2.3307
 7097TIP3   OH245485   0.543   1.021   1.337 -0.4719  0.1385 -0.0032
 7097TIP3    H145486   0.579   1.074   1.265 -0.1051  0.7416  0.6124
 7097TIP3    H245487   0.448   1.021   1.321 -0.7102  2.5500  0.9683
 7098TIP3   OH245488   6.999   1.002   0.896 -0.2821  0.2984  0.0566
 7098TIP3    H145489   6.998   1.087   0.941  1.2666  1.1360 -1.3892
 7098TIP3    H245490   7.022   0.939   0.965 -0.6051  1.1462  0.9714
 7099TIP3   OH245491   4.535   6.860   2.847 -0.2252 -0.2364  0.1843
 7099TIP3    H145492   4.470   6.800   2.884 -0.3221  0.4839  1.2155
 7099TIP3    H245493   4.585   6.891   2.923 -0.3826  1.2346 -0.2754
 7100TIP3   OH245494   3.259   6.396   1.918  0.3076 -0.2376  0.0262
 7100TIP3    H145495   3.346   6.428   1.894  0.4610 -1.6736 -1.5912
 7100TIP3    H245496   3.274   6.307   1.949 -0.5184 -0.2684  0.3636
 7101TIP3   OH245497   5.338   3.189   3.181  0.3472  0.0411  0.3127
 7101TIP3    H145498   5.278   3.226   3.117  1.1402  0.0590 -0.4429
 7101TIP3    H245499   5.393   3.129   3.130  1.0186  0.0894  0.9633
 7102TIP3   OH245500   3.545   3.693   1.825  0.2292 -0.4833 -0.5719
 7102TIP3    H145501   3.482   3.622   1.835 -1.0003  0.7076  0.4656
 7102TIP3    H245502   3.527   3.729   1.738 -1.2502  0.4734  0.0898
 7103TIP3   OH245503   7.617   7.206   2.263 -0.6517 -0.7748  0.1461
 7103TIP3    H145504   7.580   7.289   2.296  1.5161 -0.1112  1.0847
 7103TIP3    H245505   7.621   7.150   2.340  2.3125 -0.0197  0.6473
 7104TIP3   OH245506   3.138   2.062   2.556 -0.4188 -0.0100  0.3724
 7104TIP3    H145507   3.182   2.027   2.478 -1.3581 -1.8512  0.6204
 7104TIP3    H245508   3.204   2.058   2.625 -0.0721  0.0842  0.0476
 7105TIP3   OH245509   5.671   6.026   1.475  0.8319  0.2597 -0.3589
 7105TIP3    H145510   5.711   5.943   1.498  0.4053 -0.0052 -0.5630
 7105TIP3    H245511   5.719   6.056   1.398  0.0435 -0.5133 -1.1795
 7106TIP3   OH245512   7.044   0.939   0.641  0.1019  0.4540 -0.0610
 7106TIP3    H145513   7.102   0.866   0.660  0.6865  0.5239 -1.4642
 7106TIP3    H245514   7.008   0.964   0.726  0.7560 -0.7288  0.5875
 7107TIP3   OH245515   3.388   5.290   1.393  0.0780 -0.1339  0.1036
 7107TIP3    H145516   3.467   5.331   1.358 -0.9262  0.6605 -1.2912
 7107TIP3    H245517   3.330   5.281   1.318 -0.7029 -1.8761  0.8546
 7108TIP3   OH245518   5.192   7.328   2.195  0.2167  0.2774 -0.7151
 7108TIP3    H145519   5.172   7.241   2.159 -0.9710 -0.1201  0.7852
 7108TIP3    H245520   5.108   7.374   2.193  0.3628  0.6307  0.4103
 7109TIP3   OH245521   3.661   3.989   1.349  0.3260 -0.6198  0.2407
 7109TIP3    H145522   3.636   4.082   1.342 -0.0747 -0.7271  0.2339
 7109TIP3    H245523   3.579   3.944   1.370  0.4946 -0.9922  0.0979
 7110TIP3   OH245524   2.015   5.353   1.128 -0.4435 -0.1705  0.0310
 7110TIP3    H145525   2.072   5.277   1.141 -1.2742 -0.7059  0.6223
 7110TIP3    H245526   2.038   5.413   1.199  0.5861  0.3895 -0.7424
 7111TIP3   OH245527   4.344   5.516   2.100 -0.2605 -0.2121  0.0150
 7111TIP3    H145528   4.359   5.429   2.137 -0.4414 -0.8015 -1.2547
 7111TIP3    H245529   4.428   5.541   2.061  0.4136  1.1015  2.1017
 7112TIP3   OH245530   0.886   5.771   2.188 -0.2600  0.1167 -0.0789
 7112TIP3    H145531   0.867   5.864   2.177 -0.9714 -0.0077  0.0392
 7112TIP3    H245532   0.981   5.767   2.201 -0.1266  0.7591 -0.7678
 7113TIP3   OH245533   3.467   7.210   0.960 -0.2786  0.1802  0.2529
 7113TIP3    H145534   3.386   7.216   0.909  0.2061 -2.2221 -0.9754
 7113TIP3    H245535   3.439   7.219   1.051 -2.0176 -0.9701 -0.1128
 7114TIP3   OH245536   4.845   5.651   0.973 -0.2440 -0.4115  0.2982
 7114TIP3    H145537   4.933   5.682   0.952 -0.1237  0.5608  2.0202
 7114TIP3    H245538   4.788   5.723   0.947 -0.2744 -0.0496  1.2904
 7115TIP3   OH245539   2.509   2.075   2.345  0.4266  0.9684 -0.0254
 7115TIP3    H145540   2.539   2.024   2.269 -0.1232  0.2086  0.2596
 7115TIP3    H245541   2.542   2.027   2.420 -2.1701 -0.3912  0.3402
 7116TIP3   OH245542   2.780   3.762   1.884  0.4349  0.1529 -0.0466
 7116TIP3    H145543   2.789   3.793   1.974  0.8353 -0.9126  0.2985
 7116TIP3    H245544   2.870   3.741   1.858  0.0782 -1.8820  0.1911
 7117TIP3   OH245545   1.337   0.811   2.802  0.1611  0.4051  0.8959
 7117TIP3    H145546   1.348   0.720   2.829 -1.6983  0.0561  0.5846
 7117TIP3    H245547   1.242   0.824   2.797  0.3949  1.9927 -0.2980
 7118TIP3   OH245548   1.164   3.216   3.361 -0.2173 -0.1984 -0.1963
 7118TIP3    H145549   1.177   3.207   3.455 -2.2807 -2.1446 -0.0284
 7118TIP3    H245550   1.220   3.149   3.322  0.5418  0.5250 -0.3948
 7119TIP3   OH245551   4.591   0.277   0.809  0.4616 -0.4061 -0.1455
 7119TIP3    H145552   4.611   0.185   0.829  1.1044  0.1877  2.4240
 7119TIP3    H245553   4.677   0.317   0.794  0.3672  0.1130  0.6216
 7120TIP3   OH245554   1.312   2.462   3.377  0.1437  0.0217  0.3664
 7120TIP3    H145555   1.258   2.537   3.350  0.0887 -0.7583 -1.8962
 7120TIP3    H245556   1.401   2.488   3.355  0.2415 -0.1523  0.5656
 7121TIP3   OH245557   2.294   7.543   3.181  0.1688 -0.0670  0.0060
 7121TIP3    H145558   2.386   7.558   3.200  0.4257  1.3154 -2.0235
 7121TIP3    H245559   2.294   7.490   3.101 -0.8053 -0.3456  0.1742
 7122TIP3   OH245560   4.394   1.332   0.807  0.2726 -0.0826 -0.0099
 7122TIP3    H145561   4.311   1.353   0.766  0.8405  2.9329  0.1138
 7122TIP3    H245562   4.371   1.305   0.896 -0.6054  0.3240 -0.1096
 7123TIP3   OH245563   3.004   6.780   1.124  0.1986 -0.4928  0.7186
 7123TIP3    H145564   3.085   6.763   1.078  1.1016  0.7628  1.7545
 7123TIP3    H245565   3.011   6.871   1.153 -2.0280 -0.0112 -0.0342
 7124TIP3   OH245566   4.768   5.088   2.321  0.6033 -0.5550  0.1946
 7124TIP3    H145567   4.740   5.165   2.371  0.6587 -0.0001 -0.6099
 7124TIP3    H245568   4.694   5.068   2.265  0.5748 -1.1267  0.4306
 7125TIP3   OH245569   6.406   3.363   1.556 -0.2905 -0.2240 -0.1464
 7125TIP3    H145570   6.415   3.353   1.651  1.1679 -0.5467 -0.2908
 7125TIP3    H245571   6.334   3.305   1.533 -2.3904  1.7489  1.0479
 7126TIP3   OH245572   5.409   2.658   1.684  0.2478 -0.0242 -0.4085
 7126TIP3    H145573   5.346   2.602   1.728 -0.0547  0.9546  0.4420
 7126TIP3    H245574   5.479   2.671   1.748  0.9670 -0.5003 -1.0789
 7127TIP3   OH245575   4.613   5.321   2.049 -0.4971 -0.1831  0.1384
 7127TIP3    H145576   4.667   5.400   2.055 -0.1953 -0.1950 -1.8657
 7127TIP3    H245577   4.659   5.265   1.987 -0.4692 -2.1801  1.8633
 7128TIP3   OH245578   0.200   3.938   1.525  0.5789 -0.0692  0.0323
 7128TIP3    H145579   0.248   3.928   1.443  1.4609  0.0627  0.5192
 7128TIP3    H245580   0.260   3.985   1.583 -0.4605  0.8369  0.3985
 7129TIP3   OH245581   2.325   1.697   2.200 -0.0044 -0.0534 -0.5481
 7129TIP3    H145582   2.265   1.626   2.175 -0.2579 -0.1548  0.3201
 7129TIP3    H245583   2.313   1.706   2.294 -1.7093  2.7313 -0.9359
 7130TIP3   OH245584   7.327   2.677   1.822 -0.3723 -0.1034  0.2638
 7130TIP3    H145585   7.393   2.700   1.756  1.6189  3.0536  2.9985
 7130TIP3    H245586   7.374   2.623   1.886 -0.8666  0.7296  1.3709
 7131TIP3   OH245587   6.134   2.760   2.335 -0.2474 -0.1810 -0.1375
 7131TIP3    H145588   6.089   2.823   2.279  0.6511  0.2637 -0.3770
 7131TIP3    H245589   6.226   2.773   2.316 -0.0079 -1.0046  0.4242
 7132TIP3   OH245590   7.022   0.697   2.381  0.4243 -0.0293  0.5429
 7132TIP3    H145591   7.090   0.733   2.325 -0.2073  0.8618  0.3235
 7132TIP3    H245592   7.055   0.709   2.470 -0.0713  1.7969  0.5189
 7133TIP3   OH245593   2.454   2.571   1.269  0.4384 -0.6774 -0.0824
 7133TIP3    H145594   2.449   2.558   1.175 -0.8448 -1.1348  0.0330
 7133TIP3    H245595   2.404   2.651   1.285  0.1902 -0.8973  0.2600
 7134TIP3   OH245596   0.426   4.473   1.335 -0.1148  0.5438  0.3239
 7134TIP3    H145597   0.382   4.499   1.254 -1.1800  0.7884  0.9621
 7134TIP3    H245598   0.517   4.496   1.321 -0.1663  0.0360 -1.0370
 7135TIP3   OH245599   7.571   6.458   0.612  0.6081  0.0377  0.3233
 7135TIP3    H145600   7.612   6.481   0.528 -1.0526 -2.4845 -1.2984
 7135TIP3    H245601   7.513   6.531   0.631 -0.9261 -0.4286 -2.1394
 7136TIP3   OH245602   3.805   2.508   3.428 -0.5755 -0.2822 -0.3948
 7136TIP3    H145603   3.847   2.557   3.358  0.8327 -1.9523 -0.7489
 7136TIP3    H245604   3.854   2.533   3.507 -0.4152 -0.4757 -0.4343
 7137TIP3   OH245605   7.293   3.615   3.123  0.3747  0.0313  0.5934
 7137TIP3    H145606   7.237   3.651   3.191  0.8989  0.2951  0.8878
 7137TIP3    H245607   7.308   3.688   3.063  1.4589  0.3347  1.2043
 7138TIP3   OH245608   2.849   7.223   3.281  0.1314  0.5161 -0.0352
 7138TIP3    H145609   2.943   7.227   3.297  0.0389 -1.0839  1.0928
 7138TIP3    H245610   2.833   7.134   3.250 -1.0830  0.5922  0.3144
 7139TIP3   OH245611   3.204   5.554   1.096 -0.4458  0.1334  0.0986
 7139TIP3    H145612   3.291   5.515   1.104 -0.1354  0.6509 -0.7156
 7139TIP3    H245613   3.145   5.479   1.083 -0.2628 -0.2965  1.5099
 7140TIP3   OH245614   3.862   1.502   0.399  0.0028 -0.6276  0.1749
 7140TIP3    H145615   3.920   1.577   0.413  0.8797 -1.1086 -0.7834
 7140TIP3    H245616   3.774   1.540   0.399  0.3878  0.3077  0.3029
 7141TIP3   OH245617   4.832   1.304   2.046  0.9224  0.0725 -0.2940
 7141TIP3    H145618   4.812   1.211   2.054  1.8632 -0.1242 -0.1555
 7141TIP3    H245619   4.911   1.307   1.993  1.3431  0.7475  0.3535
 7142TIP3   OH245620   6.860   5.305   0.843 -0.4690  0.4020 -0.0124
 7142TIP3    H145621   6.771   5.268   0.843 -0.0781 -0.5810  0.9018
 7142TIP3    H245622   6.909   5.249   0.902  0.7837  0.9179 -0.5352
 7143TIP3   OH245623   0.742   2.929   1.062 -0.1872 -0.7116  0.4751
 7143TIP3    H145624   0.696   2.933   1.146  0.1984 -1.0079  0.7041
 7143TIP3    H245625   0.749   2.836   1.043 -1.3801 -0.6203 -0.5123
 7144TIP3   OH245626   6.323   7.415   2.803 -0.3223  0.4819 -0.1948
 7144TIP3    H145627   6.349   7.491   2.751 -1.0645 -0.0352 -1.3562
 7144TIP3    H245628   6.300   7.452   2.889  0.8984  1.3525 -0.2105
 7145TIP3   OH245629   0.115   6.084   2.673 -0.6525  0.0085  0.1418
 7145TIP3    H145630   0.039   6.049   2.626 -0.8621 -0.8135  1.0742
 7145TIP3    H245631   0.079   6.124   2.751 -0.1375 -0.3391  0.5645
 7146TIP3   OH245632   0.270   3.475   0.900 -0.1657 -1.0563  0.3035
 7146TIP3    H145633   0.349   3.524   0.924 -0.2086 -1.1442  0.6220
 7146TIP3    H245634   0.287   3.385   0.930 -0.5121 -1.0091  0.6433
 7147TIP3   OH245635   0.628   3.744   1.470  0.7201 -0.3179 -0.2113
 7147TIP3    H145636   0.624   3.648   1.470 -1.6492 -0.2666 -0.3877
 7147TIP3    H245637   0.602   3.769   1.559  0.0522  0.1755 -0.5372
 7148TIP3   OH245638   2.020   0.010   0.762  0.3605 -0.4899 -0.3165
 7148TIP3    H145639   1.962   0.081   0.791  1.7274 -0.1899  1.9879
 7148TIP3    H245640   1.961  -0.055   0.724 -1.2763  0.5693  0.2915
 7149TIP3   OH245641   6.175   0.637   2.886 -0.5862 -0.1722  0.3248
 7149TIP3    H145642   6.243   0.636   2.953  0.5721  2.1418 -0.7300
 7149TIP3    H245643   6.098   0.671   2.931 -0.4113 -0.5553  0.9374
 7150TIP3   OH245644   5.365   1.970   2.836  0.3737  0.5165 -0.1730
 7150TIP3    H145645   5.302   1.906   2.803  0.1761 -0.7730  2.3660
 7150TIP3    H245646   5.446   1.951   2.789  0.6304 -2.4882  1.2439
 7151TIP3   OH245647   6.017   1.639   1.528 -0.0778  0.3821 -0.1115
 7151TIP3    H145648   6.098   1.638   1.579  0.3827  0.4320 -0.8264
 7151TIP3    H245649   6.042   1.679   1.445 -0.9081  0.6753 -0.2325
 7152TIP3   OH245650   3.105   4.571   1.151  0.1539 -0.0285  0.2998
 7152TIP3    H145651   3.200   4.571   1.165  0.3032  1.1221 -0.5840
 7152TIP3    H245652   3.091   4.503   1.084  0.6466  1.2535 -1.1654
 7153TIP3   OH245653   3.581   7.431   0.716 -0.0973 -0.1246  0.2944
 7153TIP3    H145654   3.665   7.400   0.750  0.2823  0.5315 -0.0069
 7153TIP3    H245655   3.598   7.451   0.624 -0.6753 -0.3066  0.1425
 7154TIP3   OH245656   4.638   7.179   2.173  0.1631 -0.3069 -0.0988
 7154TIP3    H145657   4.635   7.158   2.079  1.7976 -2.1604  0.1821
 7154TIP3    H245658   4.608   7.100   2.217 -1.5616  0.8854  0.9754
 7155TIP3   OH245659   1.932   1.189   1.326 -0.0733 -0.3081 -0.5049
 7155TIP3    H145660   1.836   1.183   1.333 -0.2204  1.4251 -0.4733
 7155TIP3    H245661   1.957   1.252   1.394  1.2553 -1.6937  0.3391
 7156TIP3   OH245662   3.068   5.524   0.547  0.3596 -0.5983 -0.1759
 7156TIP3    H145663   3.050   5.556   0.636 -0.0403 -1.5430  0.0924
 7156TIP3    H245664   3.008   5.573   0.491  1.4313  0.8603 -0.0865
 7157TIP3   OH245665   7.029   0.485   1.318  0.1013  0.3376 -0.0720
 7157TIP3    H145666   7.033   0.525   1.231  0.2213  0.7324  0.1107
 7157TIP3    H245667   6.949   0.433   1.317  0.5194 -0.3047 -0.6868
 7158TIP3   OH245668   0.565   3.683   2.125  0.3715 -0.2569  0.4537
 7158TIP3    H145669   0.635   3.672   2.061  1.1728 -1.4305  1.4767
 7158TIP3    H245670   0.504   3.745   2.084  0.1566 -1.9482 -2.0006
 7159TIP3   OH245671   5.801   3.188   2.348 -0.0939 -0.7896  0.4924
 7159TIP3    H145672   5.849   3.200   2.430  1.6135 -2.2699 -0.2461
 7159TIP3    H245673   5.804   3.274   2.306  0.7069 -0.5161  1.0889
 7160TIP3   OH245674   7.308   1.237   0.502 -0.0236  0.0057  0.1485
 7160TIP3    H145675   7.299   1.224   0.408 -2.7948  0.0782  0.3231
 7160TIP3    H245676   7.219   1.230   0.536  0.9838 -0.8437  2.8909
 7161TIP3   OH245677   2.230   5.418   3.595 -0.2971  0.1969 -0.3636
 7161TIP3    H145678   2.201   5.494   3.544  0.1411  0.3190 -0.4274
 7161TIP3    H245679   2.149   5.382   3.632 -0.4252  1.1890  0.3560
 7162TIP3   OH245680   1.068   4.128   2.018 -0.1218  0.0467  0.4092
 7162TIP3    H145681   1.091   4.196   1.955 -1.5811  0.5078  0.3525
 7162TIP3    H245682   1.122   4.053   1.991  0.8327  0.8750 -0.0772
 7163TIP3   OH245683   5.140   2.940   3.492  0.3277  0.3196 -0.4142
 7163TIP3    H145684   5.093   2.965   3.413  1.6351 -0.0743 -1.3636
 7163TIP3    H245685   5.213   3.002   3.497  0.9632 -0.4203 -0.2402
 7164TIP3   OH245686   0.577   7.152   3.355 -0.0364 -0.1728 -0.0807
 7164TIP3    H145687   0.564   7.134   3.448 -0.3466 -0.2207 -0.1329
 7164TIP3    H245688   0.672   7.157   3.345  0.0006 -0.2334  0.2256
 7165TIP3   OH245689   6.697   4.611   1.019 -0.6001 -0.3029 -0.3425
 7165TIP3    H145690   6.695   4.695   1.065  0.4954 -1.1587  1.3635
 7165TIP3    H245691   6.606   4.597   0.991 -0.7850  1.4503 -0.7073
 7166TIP3   OH245692   3.790   4.429   1.307  0.3127 -0.1142 -0.4246
 7166TIP3    H145693   3.868   4.473   1.342 -0.1821 -0.2611  0.9447
 7166TIP3    H245694   3.791   4.343   1.349 -2.2353  0.9679  2.2039
 7167TIP3   OH245695   5.255   4.567   0.733  0.4729 -0.5294  0.6082
 7167TIP3    H145696   5.303   4.632   0.681 -3.0762 -0.5882 -3.1838
 7167TIP3    H245697   5.196   4.619   0.787 -0.6799 -0.4901 -0.6484
 7168TIP3   OH245698   2.124   1.823   0.524 -0.2467 -0.2587  0.3317
 7168TIP3    H145699   2.164   1.779   0.600  0.6107  0.8041  0.5307
 7168TIP3    H245700   2.044   1.863   0.559  0.7290  1.2115  1.0088
 7169TIP3   OH245701   5.927   1.301   1.990  0.3615 -0.0068  0.6314
 7169TIP3    H145702   5.889   1.377   2.034 -1.3197 -0.0379 -0.6735
 7169TIP3    H245703   6.021   1.311   2.003  0.2507  2.5776  0.1367
 7170TIP3   OH245704   2.262   2.020   1.381 -0.2559 -0.6909  0.4008
 7170TIP3    H145705   2.315   2.091   1.344 -0.2580 -1.9020 -2.1496
 7170TIP3    H245706   2.172   2.048   1.366 -0.2675 -0.7481  0.3628
 7171TIP3   OH245707   1.285   1.496   2.064 -0.4022 -0.8415 -0.3972
 7171TIP3    H145708   1.224   1.569   2.066 -0.8614 -1.2269 -0.1870
 7171TIP3    H245709   1.242   1.427   2.114  1.1067 -0.4108  1.6261
 7172TIP3   OH245710   1.402   3.954   1.522  0.3333 -0.3183  0.0949
 7172TIP3    H145711   1.338   3.969   1.453  0.2447 -1.7909 -0.1672
 7172TIP3    H245712   1.434   4.042   1.544 -0.2757  0.2546 -1.1890
 7173TIP3   OH245713   0.735   4.987   2.710 -0.2465 -0.0150  0.0159
 7173TIP3    H145714   0.754   4.894   2.722 -1.5956 -0.2209  0.8084
 7173TIP3    H245715   0.820   5.028   2.700  0.4120 -1.2294  0.4375
 7174TIP3   OH245716   1.041   1.166   2.545  0.7957 -0.1759 -0.7202
 7174TIP3    H145717   1.079   1.105   2.608 -0.1234  0.4605  0.4840
 7174TIP3    H245718   0.980   1.219   2.596  0.5867  0.8737 -2.0004
 7175TIP3   OH245719   2.056   7.417   0.428 -0.5915 -0.0702  0.1478
 7175TIP3    H145720   2.008   7.340   0.397 -0.3403 -0.6867  1.2167
 7175TIP3    H245721   1.997   7.459   0.490  0.0193 -0.5613  1.1029
 7176TIP3   OH245722   2.316   7.299   1.233  0.3245  0.4465  0.0516
 7176TIP3    H145723   2.269   7.217   1.242  1.4690 -0.1667  0.6112
 7176TIP3    H245724   2.398   7.276   1.190  0.2666  1.4510 -0.6553
 7177TIP3   OH245725   1.552   2.955   0.577 -0.5379 -0.2431 -0.2610
 7177TIP3    H145726   1.613   2.999   0.519 -0.9812  1.7141  0.6353
 7177TIP3    H245727   1.607   2.918   0.647 -0.1219 -1.4971 -1.2270
 7178TIP3   OH245728   0.365   0.414   0.604  0.1283 -0.4626 -0.0699
 7178TIP3    H145729   0.293   0.351   0.598  2.0012 -2.7466 -0.0585
 7178TIP3    H245730   0.367   0.441   0.696 -1.5267  0.7301 -0.3440
 7179TIP3   OH245731   0.407   6.639   1.327 -0.3791 -0.0373 -0.1887
 7179TIP3    H145732   0.324   6.665   1.287 -0.4510  2.0698  1.1606
 7179TIP3    H245733   0.381   6.578   1.396 -0.7646  0.2007 -0.1184
 7180TIP3   OH245734   6.837   1.220   1.480 -0.2866 -0.0252 -0.2025
 7180TIP3    H145735   6.900   1.154   1.451  0.7324  0.3397  1.0873
 7180TIP3    H245736   6.753   1.173   1.482 -0.1137 -0.4782 -2.0731
 7181TIP3   OH245737   7.336   2.886   1.090  0.2102 -0.6529  0.1724
 7181TIP3    H145738   7.267   2.921   1.145 -0.3741 -1.4156 -0.0540
 7181TIP3    H245739   7.304   2.898   1.001  0.0335 -1.6540  0.0887
 7182TIP3   OH245740   7.605   4.096   2.376 -0.2708  0.2628  0.1824
 7182TIP3    H145741   7.658   4.022   2.348  0.0655  0.0685  1.2824
 7182TIP3    H245742   7.628   4.167   2.316  1.3057  0.2080  0.6786
 7183TIP3   OH245743   0.131   2.811   1.657  0.0268 -0.1650 -0.1008
 7183TIP3    H145744   0.119   2.895   1.700 -0.1536 -0.5335  0.5911
 7183TIP3    H245745   0.176   2.831   1.575  0.2922  0.5616  0.2199
 7184TIP3   OH245746   5.816   1.099   1.183  0.2363 -0.0837  0.3327
 7184TIP3    H145747   5.727   1.067   1.195  0.2180  0.0538  0.5827
 7184TIP3    H245748   5.857   1.036   1.124 -0.5102  0.7353 -1.1032
 7185TIP3   OH245749   6.898   6.100   2.350  0.2565 -0.2370 -0.0824
 7185TIP3    H145750   6.804   6.099   2.368  0.3234 -0.1943  0.2930
 7185TIP3    H245751   6.924   6.008   2.348  0.5885 -0.2425  1.9909
 7186TIP3   OH245752   1.426   1.448   1.606 -0.1071 -0.2051  0.3061
 7186TIP3    H145753   1.436   1.409   1.519 -2.3005 -2.7575  1.0610
 7186TIP3    H245754   1.335   1.480   1.607  0.0553  0.2509  1.4728
 7187TIP3   OH245755   0.808   1.741   3.825 -0.2333  0.0666 -0.1068
 7187TIP3    H145756   0.893   1.778   3.801  0.1018 -2.2691 -3.3666
 7187TIP3    H245757   0.744   1.800   3.786  0.1571 -0.5754 -1.8303
 7188TIP3   OH245758   4.224   3.451   2.397  0.3323  0.1109 -0.0217
 7188TIP3    H145759   4.284   3.485   2.463 -0.6741 -0.5646  1.2702
 7188TIP3    H245760   4.203   3.362   2.426 -0.4267 -0.0724 -1.0473
 7189TIP3   OH245761   4.677   3.512   0.846 -0.0946  0.4822 -0.0859
 7189TIP3    H145762   4.691   3.417   0.839 -1.2137  0.3480 -0.6998
 7189TIP3    H245763   4.634   3.536   0.764 -1.6911  1.1752  0.9159
 7190TIP3   OH245764   6.081   7.330   1.526 -0.1492  0.5414  0.3362
 7190TIP3    H145765   6.128   7.279   1.591 -0.2665  0.3199  0.2466
 7190TIP3    H245766   6.065   7.415   1.568 -0.5095  0.2895  0.7130
 7191TIP3   OH245767   1.219   2.303   2.108 -0.4526 -0.1226  0.9522
 7191TIP3    H145768   1.289   2.286   2.171  1.4866  0.7650 -0.8487
 7191TIP3    H245769   1.263   2.338   2.031 -3.0704  2.5403  0.4597
 7192TIP3   OH245770   0.838   1.022   2.418 -0.3593  0.0546  0.2952
 7192TIP3    H145771   0.769   1.088   2.427 -0.7141 -0.3058  0.2368
 7192TIP3    H245772   0.909   1.054   2.474 -0.4155  0.6288  0.0447
 7193TIP3   OH245773   2.001   3.857   2.888  0.4187 -0.0966 -0.5298
 7193TIP3    H145774   1.923   3.833   2.938  1.7762 -0.5251  1.5381
 7193TIP3    H245775   2.029   3.940   2.927  0.6838  0.3480 -1.6462
 7194TIP3   OH245776   7.651   2.725   3.487 -0.9558  0.2265 -0.3862
 7194TIP3    H145777   7.569   2.758   3.524 -1.3187  1.2083 -1.9460
 7194TIP3    H245778   7.629   2.637   3.456 -0.7842 -0.3984  1.1701
 7195TIP3   OH245779   1.504   0.164   2.427  0.2528 -0.1939  0.3289
 7195TIP3    H145780   1.499   0.252   2.390 -1.6379 -0.3622  0.1123
 7195TIP3    H245781   1.563   0.116   2.368 -0.3631  0.3534 -0.7581
 7196TIP3   OH245782   6.516   6.544   2.214 -0.1467 -0.4634  0.1754
 7196TIP3    H145783   6.437   6.596   2.229  1.9023  2.5551  1.5437
 7196TIP3    H245784   6.520   6.534   2.119 -1.8314 -0.1743  0.0367
 7197TIP3   OH245785   0.073   3.375   0.442  0.0526 -0.2061 -0.0055
 7197TIP3    H145786  -0.014   3.413   0.430 -0.1200  0.3931  2.5248
 7197TIP3    H245787   0.128   3.419   0.378 -1.0825  1.0305 -0.1617
 7198TIP3   OH245788   3.606   4.134   2.022 -0.4617  0.2319 -0.2416
 7198TIP3    H145789   3.662   4.065   2.059 -0.1018  1.7201  2.2485
 7198TIP3    H245790   3.660   4.176   1.955  0.5120  0.1058  0.4446
 7199TIP3   OH245791   7.341   1.464   2.481  0.1574  0.5788  0.6354
 7199TIP3    H145792   7.278   1.483   2.551  1.7034 -1.1904  2.6751
 7199TIP3    H245793   7.424   1.497   2.515  1.1622 -1.3534  0.1973
 7200TIP3   OH245794   3.630   2.345   3.288  0.0239  0.1646  0.0535
 7200TIP3    H145795   3.647   2.377   3.200 -1.9456 -0.1137 -0.4691
 7200TIP3    H245796   3.678   2.405   3.345 -0.3339  1.6212 -1.1139
 7201TIP3   OH245797   3.896   3.046   2.193 -0.4506  0.1175  0.1390
 7201TIP3    H145798   3.884   3.141   2.198  0.0171  0.2117 -0.4556
 7201TIP3    H245799   3.945   3.024   2.272 -1.2961  0.2407  0.7189
 7202TIP3   OH245800   1.129   7.529   1.873 -0.0397  0.1410  0.0794
 7202TIP3    H145801   1.057   7.468   1.858 -0.3375  0.3866  0.4857
 7202TIP3    H245802   1.148   7.566   1.787 -2.6433  2.5680  0.4083
 7203TIP3   OH245803   5.252   5.985   0.514 -0.2578 -0.1597  0.6358
 7203TIP3    H145804   5.206   5.926   0.573 -2.6703  0.7215 -0.2363
 7203TIP3    H245805   5.282   5.929   0.443  0.0306 -0.7649  1.2297
 7204TIP3   OH245806   4.553   7.521   1.217  0.5093  0.0052 -0.7490
 7204TIP3    H145807   4.507   7.478   1.145 -0.8197  0.2689 -0.0948
 7204TIP3    H245808   4.645   7.497   1.205  0.1148 -1.1303 -1.6986
 7205TIP3   OH245809   4.621   6.497   2.641 -0.7818 -0.0611 -0.3002
 7205TIP3    H145810   4.689   6.436   2.612 -0.3293  0.1992  0.2047
 7205TIP3    H245811   4.612   6.559   2.568  1.1887  1.2994  0.5227
 7206TIP3   OH245812   6.639   5.588   2.872 -0.1479  0.2059 -0.2220
 7206TIP3    H145813   6.672   5.499   2.868 -1.5616 -0.3953  0.5724
 7206TIP3    H245814   6.697   5.632   2.935 -0.6144 -0.7330  0.9149
 7207TIP3   OH245815   7.492   7.109   0.568  0.2070 -0.0607 -0.6788
 7207TIP3    H145816   7.559   7.169   0.603  0.5612 -0.2073 -1.0933
 7207TIP3    H245817   7.497   7.122   0.473 -1.7290  1.4047 -0.6417
 7208TIP3   OH245818   4.733   3.036   2.999 -0.1124  0.3615  0.2569
 7208TIP3    H145819   4.811   3.085   3.020  0.2432 -0.0753 -0.0155
 7208TIP3    H245820   4.733   2.963   3.061  1.1486 -1.1500 -1.4236
 7209TIP3   OH245821   4.471   0.918   2.386  0.6933  0.3579 -0.2309
 7209TIP3    H145822   4.472   0.848   2.321 -0.6943 -0.9012  1.0158
 7209TIP3    H245823   4.550   0.904   2.438 -0.0698 -0.9851  0.6436
 7210TIP3   OH245824   5.401   3.065   3.425  0.3303 -0.3817  0.0687
 7210TIP3    H145825   5.384   3.134   3.361  2.3412  0.4624  0.3502
 7210TIP3    H245826   5.468   3.010   3.385 -0.1147 -1.2599  0.4957
 7211TIP3   OH245827   2.442   5.521   1.372 -0.2681 -0.0810  0.7157
 7211TIP3    H145828   2.410   5.548   1.286  1.6969  2.0743  0.5711
 7211TIP3    H245829   2.373   5.463   1.406 -0.8379 -1.5219 -2.5121
 7212TIP3   OH245830   7.031   6.120   1.213 -1.1376  0.1539 -0.0982
 7212TIP3    H145831   7.080   6.038   1.223 -2.0827 -0.4614 -0.3748
 7212TIP3    H245832   6.978   6.126   1.292 -1.4050  0.2716 -0.2866
 7213TIP3   OH245833   6.727   6.779   3.492  0.3925  0.5538  0.1707
 7213TIP3    H145834   6.636   6.806   3.480  0.0841 -0.1465  0.8208
 7213TIP3    H245835   6.772   6.859   3.519 -0.2473  0.6978  0.8597
 7214TIP3   OH245836   4.034   1.291   1.425  0.2182  0.5203  0.3446
 7214TIP3    H145837   4.101   1.296   1.357  0.6066  0.3641  0.7134
 7214TIP3    H245838   4.077   1.322   1.505 -0.1404  0.4017  0.5911
 7215TIP3   OH245839   4.702   6.842   1.698  0.1291 -0.6364 -0.8207
 7215TIP3    H145840   4.759   6.886   1.635 -1.3699  2.7024 -0.0779
 7215TIP3    H245841   4.614   6.872   1.675 -0.7176 -1.2836  1.3713
 7216TIP3   OH245842   6.279   4.176   3.277 -0.1697  0.0631  1.1041
 7216TIP3    H145843   6.219   4.237   3.320  1.5029  2.5755  0.1164
 7216TIP3    H245844   6.314   4.225   3.203  0.5014 -2.5300 -0.4110
 7217TIP3   OH245845   7.438   5.765   0.718  0.5818  0.1786 -0.2904
 7217TIP3    H145846   7.478   5.679   0.703 -2.5256 -1.3378 -0.5333
 7217TIP3    H245847   7.372   5.773   0.650 -2.9390  0.2397  2.8483
 7218TIP3   OH245848   7.115   0.898   2.598  0.5468 -0.1569  0.8458
 7218TIP3    H145849   7.133   0.832   2.666  0.2027  0.2767  1.3583
 7218TIP3    H245850   7.020   0.900   2.591  0.5985 -1.1584 -0.6091
 7219TIP3   OH245851   2.420   0.349   2.405 -0.0167 -0.5299 -0.0347
 7219TIP3    H145852   2.377   0.414   2.460 -0.4299 -0.9305  0.1211
 7219TIP3    H245853   2.369   0.269   2.417  1.1053 -1.1793  0.6197
 7220TIP3   OH245854   3.261   4.990   1.183 -0.0277 -0.5279  0.7718
 7220TIP3    H145855   3.253   4.956   1.093  1.6313 -2.5467  1.3140
 7220TIP3    H245856   3.181   5.040   1.196 -0.4539 -0.4032 -1.7384
 7221TIP3   OH245857   1.859   7.148   2.205  0.0155  0.1450  0.0314
 7221TIP3    H145858   1.829   7.081   2.267 -0.5799 -0.1783 -0.5876
 7221TIP3    H245859   1.923   7.102   2.151  0.2101  0.3044  0.1276
 7222TIP3   OH245860   6.632   5.518   1.192 -0.6403 -0.2298 -0.0963
 7222TIP3    H145861   6.585   5.569   1.258 -2.0346 -3.5042  1.6905
 7222TIP3    H245862   6.717   5.499   1.233 -0.9404 -1.0285  0.1867
 7223TIP3   OH245863   2.748   1.512   2.659  0.1689 -0.2915  0.2089
 7223TIP3    H145864   2.793   1.590   2.692  1.1234 -0.6572 -0.1912
 7223TIP3    H245865   2.705   1.542   2.578  0.3445 -0.1215  0.1786
 7224TIP3   OH245866   0.641   2.249   0.736 -0.7210  0.1156  0.1223
 7224TIP3    H145867   0.595   2.179   0.782  0.4459 -0.9373 -0.2576
 7224TIP3    H245868   0.625   2.232   0.644 -0.2014  0.1717  0.0170
 7225TIP3   OH245869   4.028   2.607   1.912 -0.4114 -0.2570 -0.2469
 7225TIP3    H145870   3.995   2.679   1.966  1.3283  2.0962 -2.1137
 7225TIP3    H245871   4.091   2.648   1.853 -0.1275 -3.1723 -2.1701
 7226TIP3   OH245872   3.740   1.521   2.080  0.0293 -0.2136  0.4822
 7226TIP3    H145873   3.800   1.500   2.153 -0.4288 -0.9535  0.6639
 7226TIP3    H245874   3.718   1.435   2.044  2.9857  0.1870 -2.8276
 7227TIP3   OH245875   6.017   0.156   0.508 -0.1891  0.0777 -0.6731
 7227TIP3    H145876   6.057   0.177   0.424 -1.4161  1.1336 -1.0166
 7227TIP3    H245877   5.923   0.164   0.493 -0.4180  0.5585  0.8588
 7228TIP3   OH245878   0.297   2.027   1.299 -0.4738  0.0661  0.2946
 7228TIP3    H145879   0.369   2.069   1.252 -1.1847 -0.2642 -1.1529
 7228TIP3    H245880   0.225   2.025   1.236 -1.1941 -1.2200  1.1053
 7229TIP3   OH245881   7.585   5.965   2.570  0.4206  0.4480  0.4365
 7229TIP3    H145882   7.530   5.892   2.599  1.7440 -0.2837  1.1826
 7229TIP3    H245883   7.576   5.964   2.474 -0.5365  0.0977  0.5121
 7230TIP3   OH245884   2.054   2.710   2.150 -0.1657  0.2984 -0.6450
 7230TIP3    H145885   2.072   2.639   2.088 -1.3809  0.2609 -0.9789
 7230TIP3    H245886   2.061   2.668   2.236 -1.0083 -0.2742 -0.8437
 7231TIP3   OH245887   2.239   1.717   2.476 -0.2025  0.1736 -0.1814
 7231TIP3    H145888   2.276   1.759   2.554  0.9720 -1.7204  0.3370
 7231TIP3    H245889   2.145   1.717   2.491 -0.0583  0.6444  0.7892
 7232TIP3   OH245890   3.474   3.070   1.878  0.0152  0.2040  0.7130
 7232TIP3    H145891   3.410   3.005   1.905 -0.3736  0.0925 -0.4417
 7232TIP3    H245892   3.536   3.075   1.951 -0.6637 -0.5184  1.3482
 7233TIP3   OH245893   6.517   2.826   0.687  0.3513 -0.4761 -0.1133
 7233TIP3    H145894   6.467   2.877   0.623  0.6807 -1.1212 -0.9138
 7233TIP3    H245895   6.560   2.891   0.742  1.3328  0.1444 -1.5419
 7234TIP3   OH245896   2.227   3.996   1.854  0.4352 -0.0263 -0.0643
 7234TIP3    H145897   2.138   4.014   1.824 -0.0589 -0.0921  1.2962
 7234TIP3    H245898   2.278   4.070   1.823  0.6361 -1.5043 -3.6739
 7235TIP3   OH245899   0.746   3.633   1.941  0.2274 -0.1492  0.0301
 7235TIP3    H145900   0.738   3.614   1.848  0.3460  0.4679 -0.1119
 7235TIP3    H245901   0.793   3.558   1.978 -0.2294 -0.6103 -0.3207
 7236TIP3   OH245902   4.556   0.813   2.139 -0.2823  0.0013  0.5082
 7236TIP3    H145903   4.622   0.870   2.100  0.0263 -1.1083 -0.6656
 7236TIP3    H245904   4.472   0.847   2.106 -0.0551 -0.6319 -0.7659
 7237TIP3   OH245905   2.153   6.968   0.792  0.1583 -0.4434 -0.4006
 7237TIP3    H145906   2.073   6.989   0.840  0.6746 -0.0860  0.3273
 7237TIP3    H245907   2.150   7.024   0.715  0.1817  0.3013  0.1307
 7238TIP3   OH245908   3.513   2.665   1.952  0.2040 -0.0580  0.2243
 7238TIP3    H145909   3.567   2.699   1.881  0.1207 -0.3310  0.0289
 7238TIP3    H245910   3.502   2.739   2.012  1.1099 -0.1037  0.4575
 7239TIP3   OH245911   0.855   6.212   2.540 -0.5498 -0.3833 -0.0168
 7239TIP3    H145912   0.917   6.272   2.582 -1.0950 -0.9075  1.6530
 7239TIP3    H245913   0.775   6.265   2.529 -0.0879  0.0598 -1.4251
 7240TIP3   OH245914   1.429   3.354   2.040  0.0711  0.2199 -0.1344
 7240TIP3    H145915   1.401   3.412   1.970 -0.1664  0.1376 -0.1070
 7240TIP3    H245916   1.447   3.412   2.114 -0.3717  0.2379 -0.0406
 7241TIP3   OH245917   2.620   6.514   0.585 -1.0567  0.4266  0.0511
 7241TIP3    H145918   2.582   6.601   0.575  0.2447  0.9092 -1.0454
 7241TIP3    H245919   2.618   6.497   0.679  0.7408  2.6504  0.6040
 7242TIP3   OH245920   5.803   0.277   1.637  0.0922 -0.2149  0.1394
 7242TIP3    H145921   5.736   0.335   1.674  0.6256  1.4527 -1.3696
 7242TIP3    H245922   5.886   0.319   1.659  0.5278 -0.7467 -0.4625
 7243TIP3   OH245923   7.460   5.795   2.073 -0.4232  0.5315 -0.1482
 7243TIP3    H145924   7.366   5.807   2.066 -0.2352  1.4121 -1.4937
 7243TIP3    H245925   7.473   5.700   2.070 -1.3658  0.2804  1.9805
 7244TIP3   OH245926   6.109   4.831   2.336 -0.2792  0.0529 -0.2069
 7244TIP3    H145927   6.063   4.905   2.376 -0.0585  0.1063 -0.0481
 7244TIP3    H245928   6.081   4.755   2.388 -0.9580 -0.0651 -0.7356
 7245TIP3   OH245929   0.545   6.924   1.982 -0.6718  0.2117 -0.6459
 7245TIP3    H145930   0.624   6.974   2.006 -1.3411  0.0099  2.4694
 7245TIP3    H245931   0.579   6.845   1.939  1.0647 -0.6598  2.0672
 7246TIP3   OH245932   1.761   2.673   2.429 -0.4434 -0.4895 -0.3586
 7246TIP3    H145933   1.856   2.680   2.429 -0.2324 -2.3448  1.2481
 7246TIP3    H245934   1.732   2.746   2.485  0.0894 -0.3440 -0.2612
 7247TIP3   OH245935   6.291   7.059   0.595  0.7906  0.4202 -0.1887
 7247TIP3    H145936   6.344   7.065   0.675  0.2610 -0.9954  0.3075
 7247TIP3    H245937   6.201   7.072   0.624  0.5261 -0.7212 -0.4186
 7248TIP3   OH245938   0.366   0.351   0.885  0.3283 -0.0186  0.6852
 7248TIP3    H145939   0.276   0.357   0.917 -0.2755 -2.8297 -0.1782
 7248TIP3    H245940   0.379   0.258   0.867  2.9674  0.4797 -0.5232
 7249TIP3   OH245941   1.465   5.057   0.480 -0.5485  0.5167  0.3118
 7249TIP3    H145942   1.511   5.003   0.416  0.2111  1.0845  0.3687
 7249TIP3    H245943   1.519   5.051   0.560 -1.6166 -0.3962  0.9995
 7250TIP3   OH245944   5.558   4.393   1.820 -0.0891  0.0257 -0.0299
 7250TIP3    H145945   5.496   4.332   1.861  0.5240 -0.1193  0.6962
 7250TIP3    H245946   5.531   4.395   1.728 -0.0227 -1.4805 -0.1087
 7251TIP3   OH245947   1.672   0.293   3.626  0.7571 -0.1933  0.2587
 7251TIP3    H145948   1.618   0.360   3.586 -1.0337 -0.7665  1.5931
 7251TIP3    H245949   1.622   0.263   3.702  2.8646 -0.9028  1.4750
 7252TIP3   OH245950   5.022   2.764   2.349 -0.0049  0.4289  0.5298
 7252TIP3    H145951   5.101   2.777   2.295  0.6807  0.2066  1.4471
 7252TIP3    H245952   4.980   2.850   2.351  0.3570  0.6163  0.2508
 7253TIP3   OH245953   4.270   3.501   1.652  0.1232  0.4195 -0.5457
 7253TIP3    H145954   4.182   3.537   1.643  0.1020  0.6352  0.4645
 7253TIP3    H245955   4.307   3.507   1.563 -0.4552  1.4247 -0.7330
 7254TIP3   OH245956   1.397   7.474   3.351 -0.5852  0.3688 -0.4994
 7254TIP3    H145957   1.406   7.546   3.413  2.1937  1.1300 -1.6242
 7254TIP3    H245958   1.419   7.396   3.402 -1.1227  0.6019  0.1109
 7255TIP3   OH245959   2.339   2.503   3.170  0.0516 -0.3398 -0.1747
 7255TIP3    H145960   2.289   2.453   3.234  0.7643 -0.2524  0.4732
 7255TIP3    H245961   2.351   2.589   3.212  1.0011 -0.4621 -0.1642
 7256TIP3   OH245962   6.389   6.053   2.605  0.3281 -0.2850  0.1407
 7256TIP3    H145963   6.463   6.103   2.640  0.3050 -0.7706  0.9005
 7256TIP3    H245964   6.389   5.972   2.656 -1.4301  0.1924  0.9485
 7257TIP3   OH245965   7.136   7.426   0.654 -0.4215 -0.3476 -0.0691
 7257TIP3    H145966   7.209   7.366   0.634 -0.9362 -0.5644 -1.4331
 7257TIP3    H245967   7.079   7.376   0.712 -0.8418 -1.2080 -1.1906
 7258TIP3   OH245968   6.441   4.892   3.024  0.1569  0.4173 -0.2793
 7258TIP3    H145969   6.416   4.940   2.945 -2.5936  0.3488  0.4340
 7258TIP3    H245970   6.436   4.958   3.094 -1.0756 -0.2881  0.3245
 7259TIP3   OH245971   3.897   1.244   0.503 -0.7581 -0.1366  0.6976
 7259TIP3    H145972   3.835   1.229   0.574 -1.1570  1.4744  0.7307
 7259TIP3    H245973   3.884   1.336   0.479 -3.3149 -1.3919 -4.0120
 7260TIP3   OH245974   5.723   4.722   1.188 -0.5561 -0.1519 -0.1711
 7260TIP3    H145975   5.686   4.804   1.222 -0.3863  0.4103 -1.2902
 7260TIP3    H245976   5.729   4.737   1.093 -0.4237 -1.4266 -0.3718
 7261TIP3   OH245977   6.360   1.376   1.286 -0.1019 -0.2522  0.1494
 7261TIP3    H145978   6.331   1.360   1.376 -2.2387  1.0971 -0.2179
 7261TIP3    H245979   6.407   1.297   1.261 -1.4759 -1.6277  1.6952
 7262TIP3   OH245980   6.401   3.300   2.673  0.2190 -0.3475 -0.0800
 7262TIP3    H145981   6.382   3.382   2.718  1.0027  1.3068 -2.5805
 7262TIP3    H245982   6.471   3.260   2.724  2.1787  2.2245 -0.5473
 7263TIP3   OH245983   5.116   4.671   1.563  0.7265 -0.3014 -0.4954
 7263TIP3    H145984   5.151   4.670   1.653  1.2092 -0.0549 -0.6714
 7263TIP3    H245985   5.147   4.590   1.525 -2.5796 -2.3057  0.6599
 7264TIP3   OH245986   1.975   2.198   0.728  0.5429  0.1503 -0.9503
 7264TIP3    H145987   1.920   2.149   0.789 -1.8533 -0.7196 -3.5755
 7264TIP3    H245988   2.047   2.139   0.708 -1.1008 -1.4958 -2.3433
 7265TIP3   OH245989   5.007   1.057   6.801  0.1429 -0.4805 -0.3506
 7265TIP3    H145990   5.065   0.999   6.850  1.9788 -0.5984 -2.4629
 7265TIP3    H245991   5.041   1.145   6.817  0.9092 -0.5407 -1.5171
 7266TIP3   OH245992   4.724   1.507   1.680  0.4401 -0.0073  0.8514
 7266TIP3    H145993   4.642   1.496   1.729  0.1075 -1.2407  0.0703
 7266TIP3    H245994   4.792   1.511   1.748  0.0483 -2.2207  1.4431
 7267TIP3   OH245995   6.805   5.568   1.974 -0.3946  0.2601  0.6524
 7267TIP3    H145996   6.808   5.628   1.900  1.4901  0.1613  0.5988
 7267TIP3    H245997   6.716   5.533   1.973 -0.9033  1.5007 -0.5508
 7268TIP3   OH245998   3.759   4.677   1.098  0.0287  0.0455  0.4892
 7268TIP3    H145999   3.703   4.686   1.021  1.0405 -0.1940 -0.3091
 7268TIP3    H246000   3.841   4.641   1.063  0.0589 -1.3542  1.8627
 7269TIP3   OH246001   2.804   6.675   0.971  0.3072  0.2483 -0.2974
 7269TIP3    H146002   2.881   6.719   1.007  1.7252 -1.8470 -0.5828
 7269TIP3    H246003   2.740   6.677   1.043  1.4165  0.1604  0.7323
 7270TIP3   OH246004   7.192   1.867   3.797 -0.4984 -0.5386 -0.4294
 7270TIP3    H146005   7.250   1.939   3.822  0.0053 -1.9179  2.9270
 7270TIP3    H246006   7.247   1.810   3.743  0.4404 -0.4593  0.4200
 7271TIP3   OH246007   4.310   7.193   3.086  0.4957 -0.2754 -0.0342
 7271TIP3    H146008   4.218   7.206   3.064  0.2471  0.4493  1.3285
 7271TIP3    H246009   4.356   7.265   3.043  0.1497  0.5429  0.9292
 7272TIP3   OH246010   0.895   3.523   1.106 -0.3612  0.1563 -0.3224
 7272TIP3    H146011   0.815   3.567   1.135 -0.9378 -0.5412 -0.8227
 7272TIP3    H246012   0.866   3.437   1.077  0.5603 -0.0667 -0.6119
 7273TIP3   OH246013   5.262   0.238   2.385 -0.3698  0.5527  0.1504
 7273TIP3    H146014   5.281   0.212   2.475 -1.1071 -0.9930 -0.1032
 7273TIP3    H246015   5.193   0.178   2.357  0.8480 -0.0175 -1.9117
 7274TIP3   OH246016   3.674   2.570   2.309  0.2802  0.4744  0.6039
 7274TIP3    H146017   3.718   2.650   2.282 -0.5957  0.5080 -0.8177
 7274TIP3    H246018   3.613   2.598   2.378 -3.2835  2.0048 -2.8218
 7275TIP3   OH246019   6.915   6.034   1.706  0.2160 -0.1640 -0.2148
 7275TIP3    H146020   6.905   6.128   1.693  1.0616  0.2624  1.9569
 7275TIP3    H246021   6.979   6.007   1.640  0.5456  0.9231 -0.3499
 7276TIP3   OH246022   3.927   0.126   2.353  0.2486 -0.1281 -0.1241
 7276TIP3    H146023   3.844   0.082   2.375 -0.0429  0.8010  0.7184
 7276TIP3    H246024   3.902   0.199   2.298  0.4044  0.5917  0.7308
 7277TIP3   OH246025   6.450   2.501   1.615 -0.0783 -0.1074  0.0435
 7277TIP3    H146026   6.545   2.507   1.628 -0.2537 -0.1602  1.5488
 7277TIP3    H246027   6.438   2.513   1.521  1.4192 -0.0989 -0.1769
 7278TIP3   OH246028   2.005   4.890   0.438  0.0709 -0.2856 -0.6626
 7278TIP3    H146029   2.059   4.955   0.483 -0.5562  1.0511 -1.7377
 7278TIP3    H246030   2.065   4.850   0.375 -0.1245  1.2419 -1.9004
 7279TIP3   OH246031   0.719   5.998   2.129 -0.2903 -0.6213 -0.0214
 7279TIP3    H146032   0.688   5.919   2.085  0.0789 -0.8882  0.1880
 7279TIP3    H246033   0.652   6.017   2.194  0.3007 -1.5957  0.9041
 7280TIP3   OH246034   7.636   0.485   0.805  0.1647  0.3140  0.2512
 7280TIP3    H146035   7.688   0.553   0.849 -0.3270  0.5426  0.4833
 7280TIP3    H246036   7.670   0.403   0.841  0.4753  0.4555  0.2865
 7281TIP3   OH246037   4.042   5.005   0.529  0.4466  0.2048 -0.2597
 7281TIP3    H146038   3.957   5.047   0.523 -0.0080 -0.6696 -0.1883
 7281TIP3    H246039   4.058   4.996   0.623  0.8305  0.7841 -0.2695
 7282TIP3   OH246040   6.396   5.797   2.108  0.0183 -0.3294  0.2099
 7282TIP3    H146041   6.315   5.847   2.120 -0.5526 -0.7194 -1.7799
 7282TIP3    H246042   6.367   5.706   2.097  0.7058 -0.4617 -0.5783
 7283TIP3   OH246043   0.546   2.693   1.119 -0.1974 -0.7234  0.3732
 7283TIP3    H146044   0.454   2.679   1.095 -0.6570  1.9570  0.3365
 7283TIP3    H246045   0.595   2.653   1.047 -1.4297  1.0402 -1.5558
 7284TIP3   OH246046   2.032   2.759   2.821 -0.0955  0.4777 -0.2755
 7284TIP3    H146047   2.056   2.760   2.913 -0.6562 -2.4172 -0.0202
 7284TIP3    H246048   2.099   2.705   2.779 -2.0473 -1.7242 -0.7668
 7285TIP3   OH246049   2.801   6.841   2.015 -0.0473  0.1234  0.2788
 7285TIP3    H146050   2.824   6.926   1.977  2.1469 -0.1713  0.8575
 7285TIP3    H246051   2.809   6.779   1.942 -3.9158  0.5620 -0.7928
 7286TIP3   OH246052   4.645   4.528   2.281  0.1798  0.1763  0.0372
 7286TIP3    H146053   4.683   4.548   2.366  1.6697 -0.2873 -0.4936
 7286TIP3    H246054   4.604   4.610   2.253 -1.0895  0.0943  1.5590
 7287TIP3   OH246055   0.823   2.608   3.503  0.5857  0.4385  0.1695
 7287TIP3    H146056   0.868   2.524   3.513 -0.6652 -0.2513  0.2069
 7287TIP3    H246057   0.891   2.673   3.519  1.4379 -0.5659  0.8055
 7288TIP3   OH246058   3.191   7.403   1.848  0.4946 -0.4898  0.0671
 7288TIP3    H146059   3.216   7.453   1.771  1.2237 -1.4147 -0.3200
 7288TIP3    H246060   3.260   7.421   1.912 -0.3350  0.6197  0.6821
 7289TIP3   OH246061   6.110   6.838   1.153 -0.3063  0.0268 -0.3811
 7289TIP3    H146062   6.147   6.756   1.186 -2.7082 -1.2654 -0.6701
 7289TIP3    H246063   6.055   6.812   1.079 -0.6632  1.9891 -0.8589
 7290TIP3   OH246064   2.341   6.807   1.342  0.2483  0.2164  0.2516
 7290TIP3    H146065   2.385   6.746   1.402 -1.3752 -0.8483  0.4358
 7290TIP3    H246066   2.398   6.811   1.265  0.5634 -1.3140  0.3783
 7291TIP3   OH246067   0.952   5.409   2.132 -0.0726  0.4422 -0.2556
 7291TIP3    H146068   0.968   5.452   2.215  1.3582 -0.3863 -0.0794
 7291TIP3    H246069   0.938   5.481   2.070  1.2958  1.1424  0.2189
 7292TIP3   OH246070   0.695   5.025   1.592  0.3685 -0.0539  0.2207
 7292TIP3    H146071   0.649   5.102   1.556  0.4995 -0.4285 -0.7812
 7292TIP3    H246072   0.698   5.041   1.686 -1.4675  0.1861  0.2810
 7293TIP3   OH246073   2.618   3.535   1.824 -0.2957 -0.3878 -0.9068
 7293TIP3    H146074   2.706   3.513   1.854 -1.4444 -1.7968  1.7530
 7293TIP3    H246075   2.604   3.626   1.852 -0.9993 -1.3742  2.4095
 7294TIP3   OH246076   1.671   0.701   2.441 -0.0816  0.5460 -0.1862
 7294TIP3    H146077   1.642   0.609   2.439 -0.8914  0.7943 -0.1467
 7294TIP3    H246078   1.657   0.732   2.352  1.4768  0.2644 -0.5703
 7295TIP3   OH246079   5.335   4.095   1.725 -0.3828 -0.2757  0.2575
 7295TIP3    H146080   5.377   4.116   1.808 -0.1810 -0.5621  0.2271
 7295TIP3    H246081   5.389   4.027   1.686  0.4373  0.9544 -0.8468
 7296TIP3   OH246082   7.243   7.374   0.939 -0.2469  0.0350 -0.3028
 7296TIP3    H146083   7.207   7.462   0.940  1.7298  0.8986  1.3662
 7296TIP3    H246084   7.226   7.342   0.850 -1.3435  1.9061 -0.8190
 7297TIP3   OH246085   5.600   5.421   2.212  0.3983  0.7056  0.0140
 7297TIP3    H146086   5.526   5.366   2.187  0.5345  1.0189 -1.1147
 7297TIP3    H246087   5.627   5.387   2.298  0.7353 -1.2678 -0.8263
 7298TIP3   OH246088   1.531   3.981   2.879 -0.2110 -0.5441 -0.4488
 7298TIP3    H146089   1.446   3.955   2.914 -0.5771 -0.1058 -1.0179
 7298TIP3    H246090   1.526   4.076   2.870  0.3335 -0.5172 -0.4994
 7299TIP3   OH246091   3.386   2.102   1.501  0.3425  0.2674  0.0292
 7299TIP3    H146092   3.340   2.071   1.423  0.0188 -0.7894  0.6251
 7299TIP3    H246093   3.472   2.129   1.470  0.2050 -0.1228 -0.6898
 7300TIP3   OH246094   3.558   6.723   1.800  0.2841  0.7085 -0.2510
 7300TIP3    H146095   3.585   6.799   1.751  1.0011  0.3483 -0.4248
 7300TIP3    H246096   3.509   6.669   1.738  2.9307 -0.7404 -1.2221
 7301TIP3   OH246097   5.302   4.628   2.337 -0.2020 -0.0568  0.1989
 7301TIP3    H146098   5.355   4.559   2.376  0.4279 -1.2602 -2.5367
 7301TIP3    H246099   5.236   4.581   2.285 -1.4504  1.4349  0.3541
 7302TIP3   OH246100   7.352   2.915   0.683  0.0488 -0.0844 -0.0447
 7302TIP3    H146101   7.445   2.893   0.693 -0.3635 -1.1463  2.1220
 7302TIP3    H246102   7.333   2.897   0.591  1.9110 -0.1103 -0.4705
 7303TIP3   OH246103   0.503   0.659   2.721  0.3421  0.5125  0.0115
 7303TIP3    H146104   0.511   0.681   2.628 -1.0848  0.5863 -0.1127
 7303TIP3    H246105   0.561   0.721   2.765 -1.5473  2.8055 -0.5535
 7304TIP3   OH246106   7.448   2.534   1.148 -0.1796 -0.1252 -0.2354
 7304TIP3    H146107   7.355   2.513   1.151  0.0231 -1.0229  0.0773
 7304TIP3    H246108   7.492   2.451   1.164  0.6715  0.4186  0.3529
 7305TIP3   OH246109   4.784   0.419   2.821 -0.5734 -0.4283 -0.0285
 7305TIP3    H146110   4.711   0.390   2.875  0.0386 -1.0931  0.4523
 7305TIP3    H246111   4.853   0.441   2.884  0.7840 -2.8853 -0.5343
 7306TIP3   OH246112   2.529   3.348   2.154 -0.2861  0.3855  0.2040
 7306TIP3    H146113   2.528   3.337   2.249 -0.6472 -0.8031  0.0847
 7306TIP3    H246114   2.481   3.429   2.137  1.5856  1.7757  1.1467
 7307TIP3   OH246115   5.441   0.728   0.886  0.5930 -0.2128 -0.0486
 7307TIP3    H146116   5.384   0.786   0.937  1.1903 -0.7456  1.2689
 7307TIP3    H246117   5.382   0.660   0.853  0.4914 -1.0886  1.7869
 7308TIP3   OH246118   6.757   6.383   1.274  0.4941  0.2166 -0.3318
 7308TIP3    H146119   6.726   6.336   1.196 -2.0037 -0.9059  1.1997
 7308TIP3    H246120   6.792   6.315   1.331  0.0154  0.6441  0.5003
 7309TIP3   OH246121   2.305   1.956   0.389  0.0572  0.6635 -0.5855
 7309TIP3    H146122   2.359   1.909   0.325  1.6517  0.4612  0.8101
 7309TIP3    H246123   2.247   1.889   0.425 -0.6055  0.7048 -1.5560
 7310TIP3   OH246124   7.627   6.129   2.941 -0.2067  0.2079 -0.1432
 7310TIP3    H146125   7.540   6.160   2.966 -0.7017 -1.5850  0.5348
 7310TIP3    H246126   7.660   6.085   3.020  0.8346 -0.1328 -0.7489
 7311TIP3   OH246127   3.654   2.494   1.454  0.1959  0.2705 -0.0168
 7311TIP3    H146128   3.714   2.419   1.457 -2.3684 -2.0320 -1.3038
 7311TIP3    H246129   3.598   2.483   1.530 -1.6595 -0.5953 -1.4075
 7312TIP3   OH246130   6.590   7.199   1.178 -0.1195 -0.6559 -0.0599
 7312TIP3    H146131   6.554   7.231   1.095 -0.1518 -0.1829  0.1353
 7312TIP3    H246132   6.618   7.278   1.224  0.7552 -0.9855 -0.0106
 7313TIP3   OH246133   4.274   3.692   2.085 -0.4705  0.5192 -0.4646
 7313TIP3    H146134   4.344   3.738   2.039 -1.2599  0.7656 -1.4761
 7313TIP3    H246135   4.303   3.601   2.089  0.7428  0.9346  0.8366
 7314TIP3   OH246136   6.649   1.510   1.117 -0.3979 -0.1946 -0.3115
 7314TIP3    H146137   6.645   1.536   1.209  3.2416  0.3319 -0.1530
 7314TIP3    H246138   6.599   1.428   1.113 -2.2594  0.7564  1.6606
 7315TIP3   OH246139   6.751   6.234   0.744 -0.3695 -0.8483  0.4106
 7315TIP3    H146140   6.732   6.324   0.718 -0.2942 -0.7213  0.8015
 7315TIP3    H246141   6.786   6.193   0.664  0.6841 -0.2169  0.5319
 7316TIP3   OH246142   5.692   7.187   2.794 -0.8104  0.8964 -0.2380
 7316TIP3    H146143   5.653   7.232   2.869 -1.2114  1.2437 -0.6542
 7316TIP3    H246144   5.785   7.210   2.799 -0.6816  0.2606  0.6134
 7317TIP3   OH246145   0.574   4.350   1.799 -0.4545 -0.6041 -0.0043
 7317TIP3    H146146   0.605   4.260   1.807 -0.3909 -0.5667  0.1714
 7317TIP3    H246147   0.647   4.404   1.830 -0.7277 -0.5174  0.4860
 7318TIP3   OH246148   1.495   1.480   1.858 -0.0901  0.0485 -0.7475
 7318TIP3    H146149   1.417   1.483   1.914  0.7245 -1.4050  0.5297
 7318TIP3    H246150   1.463   1.450   1.773 -0.8095 -1.4664  0.0248
 7319TIP3   OH246151   4.972   6.720   0.708 -0.3843  0.5232  0.3672
 7319TIP3    H146152   5.000   6.791   0.650  0.6292  0.3810  0.6534
 7319TIP3    H246153   5.022   6.644   0.678 -2.0703 -0.3063 -0.4717
 7320TIP3   OH246154   0.892   2.335   0.785  0.1429  0.0048 -0.3924
 7320TIP3    H146155   0.937   2.251   0.771 -0.6328 -0.7765  1.4412
 7320TIP3    H246156   0.802   2.320   0.755  0.2268  0.4871 -0.9053
 7321TIP3   OH246157   2.114   7.318   0.799 -0.2238 -0.0850 -0.3709
 7321TIP3    H146158   2.136   7.385   0.864 -0.1850 -1.5686  1.2199
 7321TIP3    H246159   2.181   7.326   0.732  1.0183  0.1125  0.8592
 7322TIP3   OH246160   7.188   3.857   1.216 -0.1089 -0.3346  0.0507
 7322TIP3    H146161   7.275   3.820   1.229 -0.0598 -0.0685  0.5082
 7322TIP3    H246162   7.171   3.848   1.122  0.2106 -0.8285  0.0380
 7323TIP3   OH246163   4.458   1.801   3.117 -0.1462  0.1112  0.0201
 7323TIP3    H146164   4.523   1.734   3.097 -0.1135  0.6566 -1.9698
 7323TIP3    H246165   4.510   1.878   3.140  0.0352  0.8823 -2.6830
 7324TIP3   OH246166   2.267   0.909   1.601  0.3464  0.3024  0.2853
 7324TIP3    H146167   2.177   0.898   1.569 -0.1622  1.6531  1.1371
 7324TIP3    H246168   2.320   0.855   1.543 -1.1232 -1.3762  0.4140
 7325TIP3   OH246169   4.272   0.569   2.929  0.6784  0.2254  0.6009
 7325TIP3    H146170   4.211   0.522   2.872 -0.4879  0.5561  1.5449
 7325TIP3    H246171   4.316   0.631   2.871  1.2414 -1.0418 -0.3879
 7326TIP3   OH246172   4.407   5.966   2.397  0.0369  0.1572  0.2351
 7326TIP3    H146173   4.461   6.015   2.335  1.5589  0.5487  1.8010
 7326TIP3    H246174   4.409   5.876   2.365  1.6456  0.1648  0.2467
 7327TIP3   OH246175   5.859   0.220   0.743  0.5134 -0.4127  0.5868
 7327TIP3    H146176   5.821   0.149   0.796  0.7032 -1.5157 -0.6927
 7327TIP3    H246177   5.827   0.203   0.654  1.2961  0.5911  0.0942
 7328TIP3   OH246178   0.558   3.241   0.758  0.2652 -0.5922 -0.7405
 7328TIP3    H146179   0.480   3.270   0.710  1.0528  1.3512 -0.9726
 7328TIP3    H246180   0.624   3.308   0.738  1.2028 -0.7560  1.5027
 7329TIP3   OH246181   5.532   3.035   1.688  0.2991 -0.0377  0.5215
 7329TIP3    H146182   5.588   2.979   1.635  0.6958  0.2343  0.6518
 7329TIP3    H246183   5.448   3.036   1.641 -0.0396 -1.5678  1.0686
 7330TIP3   OH246184   2.982   1.223   1.194  0.2009  0.2490  0.5484
 7330TIP3    H146185   3.043   1.295   1.180  0.4745 -0.0188  0.3523
 7330TIP3    H246186   3.027   1.146   1.158  0.1140 -0.1085  1.1892
 7331TIP3   OH246187   2.064   0.765   2.023  0.5957 -0.1837 -0.0308
 7331TIP3    H146188   2.040   0.855   2.045 -0.6367 -0.3797 -0.4827
 7331TIP3    H246189   2.154   0.770   1.993  0.0245  1.1630 -1.6158
 7332TIP3   OH246190   3.391   2.523   2.362 -0.7145  0.3499 -0.2295
 7332TIP3    H146191   3.378   2.428   2.358  0.9598  0.0977 -0.5740
 7332TIP3    H246192   3.385   2.551   2.270  1.9283  0.0454 -0.5807
 7333TIP3   OH246193   2.310   4.375   0.467 -0.2954  1.0831 -0.2142
 7333TIP3    H146194   2.342   4.463   0.487  1.9009  0.0043  1.4112
 7333TIP3    H246195   2.304   4.373   0.372  3.2494  1.9054 -0.5891
 7334TIP3   OH246196   2.283   5.283   1.423  0.4214  0.2301 -0.1172
 7334TIP3    H146197   2.281   5.246   1.511 -0.6870 -0.5868 -0.4571
 7334TIP3    H246198   2.303   5.208   1.366 -1.0615  0.2652 -0.7415
 7335TIP3   OH246199   4.996   0.803   1.788 -0.1407 -0.3230 -0.2540
 7335TIP3    H146200   4.978   0.715   1.822  0.2813 -0.4680 -0.3940
 7335TIP3    H246201   5.069   0.835   1.842 -0.1448 -0.1498 -0.3506
 7336TIP3   OH246202   2.494   6.334   0.932 -0.4734 -0.3562 -0.6853
 7336TIP3    H146203   2.564   6.355   0.871  0.2027 -1.7054 -0.3967
 7336TIP3    H246204   2.466   6.246   0.908 -3.0689  0.6523 -1.7160
 7337TIP3   OH246205   4.249   2.086   0.969  0.3864  0.4920 -0.1808
 7337TIP3    H146206   4.245   2.175   0.933 -0.9624  0.6292  0.2681
 7337TIP3    H246207   4.251   2.030   0.892  0.4851  0.8836 -0.4700
 7338TIP3   OH246208   2.181   1.304   1.852 -0.4368  0.1940  0.4055
 7338TIP3    H146209   2.108   1.245   1.837  0.8018 -1.1780 -0.5553
 7338TIP3    H246210   2.259   1.253   1.829  0.7784  1.8462  0.6058
 7339TIP3   OH246211   7.641   3.391   1.501 -0.4108 -0.0907 -0.3387
 7339TIP3    H146212   7.630   3.475   1.546  0.2015 -0.9772  1.5448
 7339TIP3    H246213   7.566   3.386   1.441  0.0407  2.1955 -1.1988
 7340TIP3   OH246214   2.634   1.375   0.859  0.6277  0.2428  0.2966
 7340TIP3    H146215   2.548   1.364   0.899  0.7055  1.1137  0.7110
 7340TIP3    H246216   2.649   1.292   0.813 -0.0071 -0.2936  1.0227
 7341TIP3   OH246217   3.926   1.012   1.687 -0.3261 -0.0858 -0.9976
 7341TIP3    H146218   3.962   1.100   1.702 -0.7242  0.0065 -0.5466
 7341TIP3    H246219   3.840   1.028   1.647 -2.1197 -0.0710  2.4398
 7342TIP3   OH246220   3.468   2.123   1.079 -0.3480  0.7135 -0.0003
 7342TIP3    H146221   3.441   2.032   1.085  2.8908 -0.5224 -1.4900
 7342TIP3    H246222   3.523   2.136   1.156 -0.4318  1.2585 -0.0301
 7343TIP3   OH246223   6.751   2.346   1.776  0.6663  0.5862 -0.2185
 7343TIP3    H146224   6.841   2.322   1.799  1.7164  2.1869 -2.2537
 7343TIP3    H246225   6.749   2.340   1.681 -2.0416 -1.3469 -0.1459
 7344TIP3   OH246226   4.556   7.025   1.942  0.0769  0.4423  0.1004
 7344TIP3    H146227   4.601   7.037   1.859  1.2939 -2.1486  0.2904
 7344TIP3    H246228   4.467   6.999   1.917  0.3798 -0.1333 -0.4221
 7345TIP3   OH246229   4.900   6.084   2.719  0.0885  0.0185 -0.3125
 7345TIP3    H146230   4.964   6.025   2.678  0.8556 -0.3828  1.3891
 7345TIP3    H246231   4.953   6.150   2.763 -0.7450  1.0948 -0.8867
 7346TIP3   OH246232   6.109   2.325   2.713 -0.4488  0.0550  0.1422
 7346TIP3    H146233   6.143   2.410   2.686  1.5535 -0.7326  0.0639
 7346TIP3    H246234   6.029   2.346   2.761 -0.3327  1.9314 -0.4007
 7347TIP3   OH246235   3.566   0.182   2.173  0.6849 -0.2084 -0.2415
 7347TIP3    H146236   3.635   0.211   2.113 -0.4331  0.2431 -1.3496
 7347TIP3    H246237   3.492   0.162   2.116 -0.3181 -0.0366  0.9691
 7348TIP3   OH246238   6.711   5.589   0.595  0.2500 -0.1403 -1.2350
 7348TIP3    H146239   6.676   5.601   0.683 -2.1564 -1.8108 -1.8695
 7348TIP3    H246240   6.739   5.677   0.568  0.9670  0.4184  1.1159
 7349TIP3   OH246241   5.605   3.964   2.145  0.5997 -0.1181 -0.0733
 7349TIP3    H146242   5.576   4.022   2.215  1.9761  0.0211  0.4172
 7349TIP3    H246243   5.543   3.891   2.146  0.3194  0.1276  0.9698
 7350TIP3   OH246244   0.023   7.432   2.095 -0.4743  0.0580 -0.5025
 7350TIP3    H146245   0.114   7.453   2.077 -1.4128  1.5499 -4.4610
 7350TIP3    H246246   0.025   7.342   2.128  2.4375  0.4330  0.6029
 7351TIP3   OH246247   3.306   6.040   1.918  0.0698  0.0045  0.1384
 7351TIP3    H146248   3.313   5.996   2.003  0.3487  0.4510  0.3470
 7351TIP3    H246249   3.369   6.111   1.922 -1.7157  1.6284  0.5301
 7352TIP3   OH246250   5.360   5.276   1.401  0.3796  0.6834 -0.2701
 7352TIP3    H146251   5.376   5.369   1.415  0.3711  0.8047 -1.0364
 7352TIP3    H246252   5.288   5.273   1.338  0.1570  0.1546 -0.0011
 7353TIP3   OH246253   5.062   3.519   2.289 -0.4070  0.5332 -0.1827
 7353TIP3    H146254   5.156   3.504   2.278 -0.3968  0.3989  0.0786
 7353TIP3    H246255   5.048   3.609   2.261 -0.0131  0.9291  0.8468
 7354TIP3   OH246256   0.245   1.639   1.173  0.3450 -0.1340  0.3056
 7354TIP3    H146257   0.282   1.688   1.246  1.0794 -1.1150  0.6118
 7354TIP3    H246258   0.298   1.663   1.097  0.2733  0.0542  0.3150
 7355TIP3   OH246259   2.179   3.180   3.273 -0.3121  0.0511 -0.1697
 7355TIP3    H146260   2.223   3.097   3.256 -1.0398 -0.4042  0.1096
 7355TIP3    H246261   2.237   3.246   3.236  1.0283 -0.4554  0.9344
 7356TIP3   OH246262   3.131   0.584   2.596  0.0376 -0.2089  0.3499
 7356TIP3    H146263   3.174   0.536   2.667 -2.4382 -0.1014  2.0851
 7356TIP3    H246264   3.115   0.519   2.528  1.3169 -0.6085  0.4095
 7357TIP3   OH246265   4.145   1.221   2.850 -0.0840 -0.5036 -0.3520
 7357TIP3    H146266   4.184   1.245   2.766 -0.5630  0.1113 -0.3981
 7357TIP3    H246267   4.220   1.205   2.907  0.2971  2.2531  0.0241
 7358TIP3   OH246268   5.169   6.885   1.732 -0.3574  0.7451 -0.0317
 7358TIP3    H146269   5.100   6.904   1.668 -0.2746 -0.3164 -0.4564
 7358TIP3    H246270   5.122   6.860   1.812 -0.4829 -0.2929 -0.4164
 7359TIP3   OH246271   4.273   6.731   1.583 -0.3867  0.5016 -0.3706
 7359TIP3    H146272   4.301   6.649   1.541 -0.6711  0.6286 -0.8109
 7359TIP3    H246273   4.251   6.705   1.673  2.3443  0.6076  0.4199
 7360TIP3   OH246274   4.291   2.567   1.353  0.5298 -0.4263 -0.3436
 7360TIP3    H146275   4.351   2.548   1.425  0.6691 -1.2076 -0.6673
 7360TIP3    H246276   4.287   2.663   1.351  3.3765 -0.2279 -1.6179
 7361TIP3   OH246277   1.008   7.642   1.116 -0.6173 -0.3144 -0.0418
 7361TIP3    H146278   0.940   7.697   1.155  0.6305  0.7347  0.6947
 7361TIP3    H246279   1.058   7.701   1.060 -0.4635 -1.1370 -0.7936
 7362TIP3   OH246280   4.951   4.544   1.086 -0.3159  0.1837 -0.0124
 7362TIP3    H146281   4.965   4.631   1.124 -0.9893 -0.1312  1.0013
 7362TIP3    H246282   5.034   4.522   1.044 -0.0734  1.2274 -0.0992
 7363TIP3   OH246283   2.052   0.222   1.185 -0.2390 -0.2040 -0.2256
 7363TIP3    H146284   1.963   0.258   1.185  0.0536  0.5443 -0.9490
 7363TIP3    H246285   2.078   0.222   1.277 -1.5529 -1.8852  0.1922
 7364TIP3   OH246286   6.634   3.472   1.157  0.3576  0.0514 -0.0431
 7364TIP3    H146287   6.576   3.499   1.228 -2.7335  1.9836 -3.0089
 7364TIP3    H246288   6.702   3.539   1.155 -1.1523  1.6637 -0.5546
 7365TIP3   OH246289   2.613   5.372   2.071  0.0474 -0.1885 -0.1612
 7365TIP3    H146290   2.573   5.439   2.017  0.7557  1.0224  0.7681
 7365TIP3    H246291   2.541   5.335   2.122 -0.0641  1.4715  0.9765
 7366TIP3   OH246292   2.046   6.190   2.119  0.0524 -0.9351  0.7254
 7366TIP3    H146293   1.989   6.193   2.196  1.1399 -0.5473  1.5472
 7366TIP3    H246294   2.075   6.100   2.114 -1.6505 -1.4795 -0.5143
 7367TIP3   OH246295   3.406   0.991   0.746  0.0820  0.2465  0.0869
 7367TIP3    H146296   3.394   0.911   0.796  0.7975 -0.2603 -0.5333
 7367TIP3    H246297   3.497   1.016   0.762 -0.2523  1.1912  0.6278
 7368TIP3   OH246298   2.291   2.842   2.548 -0.1921 -0.5936 -0.2743
 7368TIP3    H146299   2.313   2.787   2.623  2.5730 -0.6167 -0.9798
 7368TIP3    H246300   2.302   2.785   2.472  1.3679  0.4984 -0.9322
 7369TIP3   OH246301   1.159   1.280   3.460 -0.1158  0.4148  0.2108
 7369TIP3    H146302   1.084   1.252   3.407  1.4563 -1.4085 -1.2161
 7369TIP3    H246303   1.162   1.216   3.531  0.2279  0.3177  0.1097
 7370TIP3   OH246304   0.210   2.364   2.515  0.0102  0.4607  0.5171
 7370TIP3    H146305   0.238   2.409   2.595 -1.3822  0.7228  0.8821
 7370TIP3    H246306   0.121   2.335   2.534 -0.5181  0.9455 -1.1085
 7371TIP3   OH246307   0.863   7.433   1.885  0.0362  0.4313  0.1452
 7371TIP3    H146308   0.828   7.376   1.953  0.2085  1.2234  0.9190
 7371TIP3    H246309   0.795   7.435   1.818 -0.4815  0.2546  0.6539
 7372TIP3   OH246310   3.641   7.379   1.319  0.3406  0.1533  1.0748
 7372TIP3    H146311   3.733   7.397   1.341  0.4516 -0.7244  1.3911
 7372TIP3    H246312   3.593   7.406   1.398  0.3743  0.1909  1.0829
 7373TIP3   OH246313   6.188   0.727   0.831  0.4651 -0.1230  0.0268
 7373TIP3    H146314   6.115   0.725   0.769  0.8435  1.9502 -0.5656
 7373TIP3    H246315   6.265   0.707   0.779  0.6291  0.3691  0.0721
 7374TIP3   OH246316   2.081   7.280   2.287  0.0670  0.3198 -0.1945
 7374TIP3    H146317   1.997   7.238   2.266 -0.1141  0.1007  0.9253
 7374TIP3    H246318   2.139   7.208   2.311  0.0348  0.6101  0.8003
 7375TIP3   OH246319   4.472   2.868   2.586 -0.4807  0.5282 -0.8495
 7375TIP3    H146320   4.462   2.943   2.644  1.3664  0.8696 -0.9161
 7375TIP3    H246321   4.410   2.883   2.515 -1.2114  1.2031 -0.0747
 7376TIP3   OH246322   7.247   5.818   0.528  0.3104  0.2654  0.0275
 7376TIP3    H146323   7.230   5.839   0.436  0.4718  0.5406  0.0608
 7376TIP3    H246324   7.162   5.831   0.571  0.1884 -0.0422 -0.1107
 7377TIP3   OH246325   4.674   2.089   1.882 -0.8954  0.3952  0.5855
 7377TIP3    H146326   4.717   2.035   1.948 -0.5979 -0.3985 -0.2266
 7377TIP3    H246327   4.591   2.115   1.922 -0.8153 -0.2550  1.1871
 7378TIP3   OH246328   4.334   2.775   1.003  0.0453 -0.5254 -0.5174
 7378TIP3    H146329   4.254   2.825   1.013 -0.3889 -0.9257 -1.8048
 7378TIP3    H246330   4.404   2.837   1.025 -0.5594  0.0939 -0.3002
 7379TIP3   OH246331   1.935   0.341   1.631 -0.2316 -0.2097  0.1191
 7379TIP3    H146332   1.865   0.280   1.658 -1.0345  0.2172 -0.9456
 7379TIP3    H246333   1.992   0.288   1.576  1.4925 -1.1261  2.5770
 7380TIP3   OH246334   1.684   6.795   1.571 -0.0262 -0.1424 -0.2552
 7380TIP3    H146335   1.704   6.709   1.607  0.6827  0.0127 -0.2680
 7380TIP3    H246336   1.745   6.854   1.615 -0.2023  0.2860 -0.5799
 7381TIP3   OH246337   3.359   2.549   0.986 -0.3346  0.4864 -0.1902
 7381TIP3    H146338   3.305   2.607   0.933 -1.3293  0.7613  1.0604
 7381TIP3    H246339   3.428   2.604   1.022 -0.5548  0.6300  0.0123
 7382TIP3   OH246340   2.946   2.913   2.002  0.2666  0.0191  0.3059
 7382TIP3    H146341   2.995   2.974   1.947  0.1781 -0.1160  0.0753
 7382TIP3    H246342   2.900   2.857   1.939  0.8906 -0.7248  0.5044
 7383TIP3   OH246343   0.067   4.306   2.658  0.0699 -0.2014  0.2748
 7383TIP3    H146344   0.007   4.237   2.688  0.5498 -0.4119  0.7824
 7383TIP3    H246345   0.016   4.387   2.665 -0.4601 -0.4796 -0.2080
 7384TIP3   OH246346   6.466   3.580   1.358 -0.2069  0.0171 -0.0945
 7384TIP3    H146347   6.476   3.635   1.436  2.1161 -0.3309 -0.0796
 7384TIP3    H246348   6.453   3.492   1.393 -1.1880  0.1447 -0.1192
 7385TIP3   OH246349   6.379   3.576   2.757  0.4525  0.1957 -0.3396
 7385TIP3    H146350   6.446   3.644   2.752  0.7191 -0.0638 -0.3117
 7385TIP3    H246351   6.319   3.607   2.824  1.2034 -0.1521  0.5122
 7386TIP3   OH246352   0.419   6.894   1.455 -0.2735  0.6544 -0.2132
 7386TIP3    H146353   0.392   6.828   1.519 -1.1083  0.3691 -0.8415
 7386TIP3    H246354   0.457   6.844   1.383  0.7971  0.9855  0.0989
 7387TIP3   OH246355   2.739   0.900   2.010  0.2799 -0.4273  0.1201
 7387TIP3    H146356   2.708   0.809   2.007  2.1637 -1.1111 -0.3287
 7387TIP3    H246357   2.767   0.913   2.101 -0.6993 -0.0154  0.3747
 7388TIP3   OH246358   0.467   5.892   2.923 -0.0883  0.6513 -0.3596
 7388TIP3    H146359   0.443   5.842   2.846 -0.7774  1.6154 -0.7867
 7388TIP3    H246360   0.543   5.845   2.959 -0.2179 -0.2287 -1.1841
 7389TIP3   OH246361   3.119   1.978   3.484  0.5836 -0.0798 -0.4467
 7389TIP3    H146362   3.062   1.906   3.455 -0.6451  0.5733  0.2506
 7389TIP3    H246363   3.082   2.056   3.443  0.2534  0.5192  0.9064
 7390TIP3   OH246364   1.118   1.350   0.786 -0.0033 -0.3588 -0.4094
 7390TIP3    H146365   1.199   1.328   0.832 -0.5012  0.4005  0.8516
 7390TIP3    H246366   1.114   1.285   0.715  0.3517 -2.1198  1.1008
 7391TIP3   OH246367   6.972   3.240   1.033  0.2051  0.4288 -0.0562
 7391TIP3    H146368   6.882   3.260   1.007  0.4057 -0.2563 -1.3428
 7391TIP3    H246369   6.994   3.309   1.097 -1.1972  0.6358  0.2365
 7392TIP3   OH246370   3.639   6.375   0.579 -0.0166  0.4112  0.7084
 7392TIP3    H146371   3.587   6.308   0.536  1.9267  0.0069 -1.2095
 7392TIP3    H246372   3.602   6.381   0.667 -0.8556 -2.5283  0.6789
 7393TIP3   OH246373   5.256   7.309   0.678  0.6213 -0.1891 -0.5426
 7393TIP3    H146374   5.243   7.217   0.703  2.0613 -0.9301 -2.2303
 7393TIP3    H246375   5.344   7.311   0.640 -0.5135  1.1753 -3.4342
 7394TIP3   OH246376   3.020   0.069   0.837  0.3399 -0.4592  0.4055
 7394TIP3    H146377   3.022  -0.026   0.851  0.4235 -0.2275  2.1829
 7394TIP3    H246378   3.106   0.090   0.800  0.4466 -1.0280  0.3290
 7395TIP3   OH246379   4.289   4.370   1.468  0.0328 -0.2962 -0.3790
 7395TIP3    H146380   4.384   4.360   1.463 -0.0094 -0.5765 -0.6505
 7395TIP3    H246381   4.254   4.283   1.446 -0.3405  0.3365 -2.5422
 7396TIP3   OH246382   2.729   1.130   0.704  0.2914  0.3085  0.3258
 7396TIP3    H146383   2.771   1.061   0.652 -0.4552  0.8506 -1.0358
 7396TIP3    H246384   2.638   1.102   0.713  0.0971  0.8724  0.1788
 7397TIP3   OH246385   0.883   0.903   1.207 -0.1840 -0.0622 -0.7186
 7397TIP3    H146386   0.873   0.975   1.144 -2.6228  0.2640 -0.0553
 7397TIP3    H246387   0.874   0.824   1.155  0.1834  0.1465 -1.1093
 7398TIP3   OH246388   6.780   4.884   1.774  0.0649  0.1937  0.2763
 7398TIP3    H146389   6.739   4.866   1.689 -0.8069 -1.5935  1.0109
 7398TIP3    H246390   6.872   4.900   1.753  0.1334 -1.4759 -0.9478
 7399TIP3   OH246391   0.678   6.702   1.915  0.2312 -0.3850 -0.2944
 7399TIP3    H146392   0.652   6.612   1.935  0.9643 -0.2042  1.7469
 7399TIP3    H246393   0.749   6.720   1.977  0.3611  1.4714 -0.9270
 7400TIP3   OH246394   5.855   5.685   1.912 -0.2506 -0.3639 -0.4053
 7400TIP3    H146395   5.821   5.746   1.978  0.4067  0.4029 -0.7629
 7400TIP3    H246396   5.813   5.602   1.934 -0.8437  0.1098  0.3496
 7401TIP3   OH246397   5.199   2.870   1.815  0.4519 -0.0185  0.7004
 7401TIP3    H146398   5.226   2.814   1.742 -0.9215  1.2550 -0.8485
 7401TIP3    H246399   5.281   2.902   1.852  1.1745 -0.4216 -0.5044
 7402TIP3   OH246400   1.765   3.857   3.015 -0.2407 -0.2561 -0.4261
 7402TIP3    H146401   1.725   3.771   3.028 -0.1238 -0.1511  0.7336
 7402TIP3    H246402   1.696   3.910   2.974  0.2849 -1.3992 -2.9693
 7403TIP3   OH246403   6.609   1.255   1.109 -0.4454 -0.0097  0.2513
 7403TIP3    H146404   6.613   1.186   1.175 -3.6527  0.0163  0.6345
 7403TIP3    H246405   6.621   1.209   1.026 -0.4019 -0.6806  0.6223
 7404TIP3   OH246406   4.453   0.423   2.536 -0.8216  0.3211  0.4651
 7404TIP3    H146407   4.466   0.499   2.592  0.1801  1.1422 -0.8285
 7404TIP3    H246408   4.541   0.398   2.508 -1.2253 -0.6541  0.0080
 7405TIP3   OH246409   2.001   2.380   2.993  0.2848 -0.1865 -0.1451
 7405TIP3    H146410   1.971   2.320   3.061  2.7961  0.5677  1.7742
 7405TIP3    H246411   1.921   2.420   2.958 -1.1170 -0.6552  2.3465
 7406TIP3   OH246412   6.180   2.760   0.820 -0.2330  0.2312  0.2100
 7406TIP3    H146413   6.221   2.796   0.741 -1.7545  1.6323 -0.0089
 7406TIP3    H246414   6.128   2.832   0.855  0.3314 -0.3855  2.4891
 7407TIP3   OH246415   0.908   4.247   3.314 -0.2774 -0.0973 -0.3526
 7407TIP3    H146416   0.941   4.158   3.299  0.4056  0.2754 -1.1077
 7407TIP3    H246417   0.982   4.295   3.349 -1.1651 -0.2849  1.9316
 7408TIP3   OH246418   5.333   5.438   1.036  0.1177  0.2507  0.2411
 7408TIP3    H146419   5.351   5.425   0.943 -0.2559  0.2790  0.1641
 7408TIP3    H246420   5.419   5.435   1.078  0.4053  1.3050 -0.2372
 7409TIP3   OH246421   6.262   4.601   2.528  0.1359  0.2092  0.4594
 7409TIP3    H146422   6.299   4.514   2.513  3.0880  1.3744  0.2517
 7409TIP3    H246423   6.182   4.603   2.477 -1.1813 -3.0394  2.0951
 7410TIP3   OH246424   0.164   1.271   2.920 -0.1275  0.1943  0.4575
 7410TIP3    H146425   0.098   1.338   2.903 -0.0669  1.1579  3.4146
 7410TIP3    H246426   0.236   1.319   2.961  0.1650 -1.5794  2.1529
 7411TIP3   OH246427   1.558   3.819   2.647  0.0407  0.3423  0.7190
 7411TIP3    H146428   1.542   3.888   2.712  0.3410 -0.2980  1.4976
 7411TIP3    H246429   1.482   3.822   2.589 -0.2515  0.9071  1.1207
 7412TIP3   OH246430   6.170   1.560   2.124  0.0115 -0.6727 -0.6155
 7412TIP3    H146431   6.111   1.575   2.050  0.3068 -0.6801 -0.8584
 7412TIP3    H246432   6.194   1.468   2.117 -1.5618 -1.2212  0.6950
 7413TIP3   OH246433   4.163   0.639   0.471 -0.2137 -0.0178  0.0967
 7413TIP3    H146434   4.192   0.646   0.380 -0.3997  0.6992  0.0819
 7413TIP3    H246435   4.243   0.634   0.522 -0.1025 -0.1628 -0.0939
 7414TIP3   OH246436   2.194   1.120   1.014  0.0779  0.5441  0.4876
 7414TIP3    H146437   2.100   1.106   1.025  0.4434 -2.2403  0.8228
 7414TIP3    H246438   2.234   1.056   1.074  2.1514 -0.9456 -2.2898
 7415TIP3   OH246439   2.451   2.594   2.121 -0.2491  0.4572  0.1029
 7415TIP3    H146440   2.533   2.549   2.102  0.1018  1.1162  0.0115
 7415TIP3    H246441   2.400   2.586   2.040 -0.9612 -1.3379  0.6749
 7416TIP3   OH246442   4.345   3.655   2.710  0.5323  0.5573 -0.7193
 7416TIP3    H146443   4.357   3.620   2.798  0.2961  0.0057 -0.9045
 7416TIP3    H246444   4.264   3.616   2.678 -0.4517  2.2766 -0.4530
 7417TIP3   OH246445   5.504   0.348   0.723 -0.4396 -0.1100 -0.4019
 7417TIP3    H146446   5.414   0.363   0.753 -0.8320 -0.2426 -1.4617
 7417TIP3    H246447   5.496   0.279   0.657  0.4329 -0.0606 -0.5750
 7418TIP3   OH246448   7.369   2.182   1.619 -0.3207 -0.3967 -0.0429
 7418TIP3    H146449   7.315   2.144   1.549  1.4440 -0.9108 -1.1921
 7418TIP3    H246450   7.389   2.270   1.588  0.5482 -0.6600 -0.2646
 7419TIP3   OH246451   5.164   3.918   1.237 -0.1747  0.0726  0.2945
 7419TIP3    H146452   5.096   3.864   1.197 -0.8886  2.0067 -1.2618
 7419TIP3    H246453   5.245   3.870   1.222 -0.9509 -1.2689  0.3013
 7420TIP3   OH246454   0.011   4.223   2.955 -0.5411 -0.2746 -0.3521
 7420TIP3    H146455   0.003   4.130   2.935 -0.3244 -0.4284  0.2841
 7420TIP3    H246456  -0.059   4.241   3.018  0.8717 -0.5402  1.3693
 7421TIP3   OH246457   1.753   3.893   1.543  0.4428 -0.0253  0.6362
 7421TIP3    H146458   1.696   3.959   1.504 -0.2729  0.6532  2.7472
 7421TIP3    H246459   1.832   3.940   1.567  0.8892 -0.4500  0.0537
 7422TIP3   OH246460   3.331   1.492   1.616 -0.3325  0.3301 -0.2633
 7422TIP3    H146461   3.271   1.539   1.674  0.8219  1.4646  0.0752
 7422TIP3    H246462   3.293   1.405   1.607 -0.1775 -0.1966  2.8707
 7423TIP3   OH246463   0.840   4.699   1.714  0.0505 -0.1195 -0.1208
 7423TIP3    H146464   0.843   4.755   1.793 -0.6282  2.2585 -1.6627
 7423TIP3    H246465   0.748   4.676   1.705 -0.3273  1.7489 -1.5397
 7424TIP3   OH246466   4.312   0.844   2.021  1.0601 -0.5229 -0.5111
 7424TIP3    H146467   4.322   0.892   1.938 -0.4607 -0.0905 -0.4731
 7424TIP3    H246468   4.225   0.807   2.016  0.8898 -0.3591  0.9770
 7425TIP3   OH246469   7.102   1.115   3.277  0.2942  0.1966  0.0872
 7425TIP3    H146470   7.140   1.203   3.273  0.5339  0.0840 -0.1590
 7425TIP3    H246471   7.027   1.119   3.217  0.1182  0.3183  0.3103
 7426TIP3   OH246472   0.772   5.976   2.654  0.2113 -0.1852 -0.0974
 7426TIP3    H146473   0.826   6.044   2.614 -0.8480  0.7184 -0.0375
 7426TIP3    H246474   0.687   6.018   2.669  0.1664 -0.8885  1.8846
 7427TIP3   OH246475   2.800   3.013   3.143  1.0016  0.3060 -0.5867
 7427TIP3    H146476   2.806   2.917   3.149  0.2613  0.2546 -0.6632
 7427TIP3    H246477   2.880   3.044   3.187  1.3198 -0.3436 -0.6880
 7428TIP3   OH246478   3.106   2.219   0.631  0.5319  0.7564  0.0303
 7428TIP3    H146479   3.114   2.252   0.541 -0.4056  0.1967 -0.2749
 7428TIP3    H246480   3.171   2.268   0.680 -1.1333  3.4972 -0.2858
 7429TIP3   OH246481   5.098   7.527   0.590  0.0941  0.0617 -0.3579
 7429TIP3    H146482   5.159   7.466   0.631  0.1731  0.1317 -0.3709
 7429TIP3    H246483   5.028   7.539   0.655 -0.0110 -0.1799 -0.4266
 7430TIP3   OH246484   2.418   3.300   2.807 -0.5627 -0.4415  0.1721
 7430TIP3    H146485   2.396   3.274   2.718  0.3803  1.3390 -0.6449
 7430TIP3    H246486   2.334   3.320   2.848 -1.0260 -1.5055 -0.2314
 7431TIP3   OH246487   2.164   7.540   0.945 -0.5500 -0.5330  0.0842
 7431TIP3    H146488   2.127   7.621   0.909 -0.9114 -0.4948  0.5330
 7431TIP3    H246489   2.164   7.553   1.040 -0.2779 -0.9160  0.1391
 7432TIP3   OH246490   2.994   2.098   1.095  0.6606  0.3232 -0.4041
 7432TIP3    H146491   3.074   2.114   1.046  1.7907  1.5956  1.7221
 7432TIP3    H246492   2.984   2.175   1.151  0.6559 -1.8340  2.8433
 7433TIP3   OH246493   3.791   6.778   3.005 -0.8254  0.6416 -0.3158
 7433TIP3    H146494   3.815   6.775   3.098  0.0282  1.0942 -0.5055
 7433TIP3    H246495   3.742   6.860   2.996 -1.9494  0.0207 -0.0491
 7434TIP3   OH246496   7.408   1.569   2.033  0.2010  0.5122 -0.4238
 7434TIP3    H146497   7.484   1.617   2.067 -0.0564  0.1010  0.7760
 7434TIP3    H246498   7.425   1.478   2.055 -0.3373  0.3339 -0.7373
 7435TIP3   OH246499   1.913   7.143   0.393 -0.3425  0.9044  0.5818
 7435TIP3    H146500   1.855   7.077   0.354 -0.1661  1.3176 -0.4180
 7435TIP3    H246501   1.885   7.150   0.484  0.3807 -1.3786  1.0285
 7436TIP3   OH246502   6.170   7.534   3.380  0.1446 -0.3944  0.3494
 7436TIP3    H146503   6.152   7.623   3.410  0.6555  0.1578 -0.9239
 7436TIP3    H246504   6.260   7.536   3.349  0.3888 -1.5384  0.9079
 7437TIP3   OH246505   4.554   4.854   2.810  0.2590 -0.3639  0.2298
 7437TIP3    H146506   4.529   4.763   2.794  1.9846 -0.8557  0.1073
 7437TIP3    H246507   4.614   4.874   2.739  2.1693 -0.0971  1.8490
 7438TIP3   OH246508   2.063   1.039   2.106  0.0099  0.7661 -0.5596
 7438TIP3    H146509   2.040   1.130   2.122 -1.9153 -0.2528  4.2663
 7438TIP3    H246510   2.130   1.019   2.172  1.2411 -1.1312 -2.2481
 7439TIP3   OH246511   1.891   2.692   1.525 -0.4933 -0.2380  0.2208
 7439TIP3    H146512   1.951   2.739   1.583 -0.1703  1.0672 -1.1115
 7439TIP3    H246513   1.930   2.702   1.438 -1.1254 -1.8757 -0.2862
 7440TIP3   OH246514   0.089   1.326   3.520  0.5000  0.9565  0.0861
 7440TIP3    H146515   0.017   1.326   3.458  0.2207 -1.6498  0.3018
 7440TIP3    H246516   0.166   1.354   3.469  0.1895 -0.6485 -1.3556
 7441TIP3   OH246517   1.701   6.734   2.303 -0.0983 -0.2890  0.1676
 7441TIP3    H146518   1.743   6.656   2.266  2.3393  1.4524 -1.0284
 7441TIP3    H246519   1.664   6.780   2.228  0.1179  0.5920  0.5866
 7442TIP3   OH246520   0.137   0.719   3.319  0.0796 -0.2688  0.7260
 7442TIP3    H146521   0.072   0.649   3.315  1.4542 -1.6592  1.7112
 7442TIP3    H246522   0.091   0.791   3.363 -1.2514 -0.6338 -0.0074
 7443TIP3   OH246523   4.193   5.228   1.692 -0.2224  0.0984 -0.5091
 7443TIP3    H146524   4.229   5.241   1.604 -0.3282  0.2712 -0.5272
 7443TIP3    H246525   4.267   5.242   1.751 -0.3910  1.0706 -0.5117
 7444TIP3   OH246526   4.391   2.514   0.351 -0.2758  0.5881 -0.0708
 7444TIP3    H146527   4.351   2.440   0.306 -0.0812  1.2537 -1.4272
 7444TIP3    H246528   4.482   2.488   0.363 -0.0279  0.8670 -1.2135
 7445TIP3   OH246529   6.078   0.347   1.782  0.1216  0.1606  0.4486
 7445TIP3    H146530   6.048   0.375   1.696  0.2985 -0.6611  0.1114
 7445TIP3    H246531   6.097   0.429   1.828 -0.7472  0.6284 -0.0029
 7446TIP3   OH246532   5.675   1.307   0.977  0.4685 -0.2649  0.4555
 7446TIP3    H146533   5.709   1.231   1.023  1.5472 -0.3838 -0.4775
 7446TIP3    H246534   5.753   1.350   0.941 -0.3068 -0.3809 -1.5400
 7447TIP3   OH246535   3.638   0.853   1.610 -0.0375 -0.1655 -0.2755
 7447TIP3    H146536   3.565   0.905   1.644  1.4621  2.5724 -0.9572
 7447TIP3    H246537   3.643   0.877   1.518 -0.7140 -3.4195 -1.2874
 7448TIP3   OH246538   0.781   2.146   1.645 -0.1397  0.6595  0.4474
 7448TIP3    H146539   0.694   2.140   1.684  0.5311  0.8651  2.0486
 7448TIP3    H246540   0.777   2.223   1.588 -1.2126  0.2193 -0.1033
 7449TIP3   OH246541   7.546   4.700   1.774  0.2826  0.6635 -0.3916
 7449TIP3    H146542   7.570   4.619   1.819  0.0815  0.9783  0.2959
 7449TIP3    H246543   7.506   4.671   1.692  1.0580  0.0938 -0.5844
 7450TIP3   OH246544   6.408   3.237   0.685  0.5745 -0.3598 -0.1397
 7450TIP3    H146545   6.485   3.239   0.628  1.4620  2.4074  1.0034
 7450TIP3    H246546   6.365   3.321   0.670 -2.3024 -1.7937 -0.6961
 7451TIP3   OH246547   0.944   4.849   0.956  0.5451  0.2641 -0.0756
 7451TIP3    H146548   1.019   4.848   0.897 -0.3595 -0.4207 -1.2512
 7451TIP3    H246549   0.969   4.910   1.025  1.2677  1.8112 -1.6255
 7452TIP3   OH246550   5.872   0.775   1.952  0.0679  0.8754  0.1622
 7452TIP3    H146551   5.778   0.777   1.934  0.0319  1.6160  0.3983
 7452TIP3    H246552   5.879   0.806   2.043  0.2511 -2.5357  1.4595
 7453TIP3   OH246553   3.534   6.183   1.970  0.4012  0.1639  0.3514
 7453TIP3    H146554   3.578   6.262   1.938 -0.1913  0.6325  0.6805
 7453TIP3    H246555   3.588   6.111   1.936  1.0259  0.7049  0.1587
 7454TIP3   OH246556   5.602   6.088   2.655  0.2919  0.1294 -0.1294
 7454TIP3    H146557   5.618   6.034   2.732  0.7263  0.4591  0.0146
 7454TIP3    H246558   5.628   6.032   2.581  0.1317 -0.0891 -0.0210
 7455TIP3   OH246559   7.656   6.526   2.464 -0.2489  0.1446  0.2179
 7455TIP3    H146560   7.564   6.546   2.482 -0.9237 -1.6991 -0.9007
 7455TIP3    H246561   7.653   6.461   2.394  2.0020  2.3845 -2.1846
 7456TIP3   OH246562   3.270   1.571   2.254  0.4008 -0.2943  0.0463
 7456TIP3    H146563   3.289   1.494   2.200 -2.1618 -0.1475 -1.2647
 7456TIP3    H246564   3.210   1.538   2.321 -0.4366  0.4330 -0.3137
 7457TIP3   OH246565   0.431   4.026   1.629  0.2925  0.2415 -0.6638
 7457TIP3    H146566   0.502   4.076   1.670  0.4685  0.5028 -1.2811
 7457TIP3    H246567   0.442   3.937   1.663 -0.9728  0.9011  1.7080
 7458TIP3   OH246568   2.502   3.882   3.209 -0.5655  0.0381  0.3323
 7458TIP3    H146569   2.410   3.866   3.187 -0.6484  1.4911 -0.4871
 7458TIP3    H246570   2.507   3.976   3.224  0.8820  0.0453 -0.0925
 7459TIP3   OH246571   3.939   0.293   1.786 -0.2410  0.4289  0.0805
 7459TIP3    H146572   3.950   0.388   1.791 -1.0551  0.5720 -0.6627
 7459TIP3    H246573   4.025   0.258   1.809 -0.7186  1.2211  3.7172
 7460TIP3   OH246574   2.832   1.764   1.026  0.0763  0.0934  0.3746
 7460TIP3    H146575   2.838   1.669   1.031  0.6649  0.1466  0.7529
 7460TIP3    H246576   2.822   1.783   0.933  1.7303 -0.2537  0.0990
 7461TIP3   OH246577   1.379   2.191   2.300 -0.3676 -0.3015 -0.0605
 7461TIP3    H146578   1.459   2.226   2.338  0.1617  1.2670 -2.3838
 7461TIP3    H246579   1.396   2.098   2.291  0.0775 -0.4681  1.9404
 7462TIP3   OH246580   0.525   2.133   1.708 -0.1700 -0.3742  0.4106
 7462TIP3    H146581   0.464   2.185   1.656  0.7034 -0.9636 -1.2849
 7462TIP3    H246582   0.500   2.042   1.691  2.0116 -0.7124 -1.5507
 7463TIP3   OH246583   6.988   7.205   1.496  0.1505  0.7200  0.0601
 7463TIP3    H146584   6.905   7.206   1.543  0.6421 -1.3861  1.0943
 7463TIP3    H246585   7.045   7.263   1.546  0.3339 -0.6377  1.4911
 7464TIP3   OH246586   7.556   7.474   1.858  0.0091 -0.4662 -0.6842
 7464TIP3    H146587   7.560   7.565   1.830 -0.9755 -0.7752 -1.9156
 7464TIP3    H246588   7.606   7.472   1.940 -0.3707  1.2683 -0.3627
 7465TIP3   OH246589   4.287   7.472   0.455 -0.3960 -0.3545 -0.1092
 7465TIP3    H146590   4.367   7.463   0.507  0.3780 -0.2010 -1.2260
 7465TIP3    H246591   4.316   7.456   0.365 -1.5448  0.1178 -0.5773
 7466TIP3   OH246592   2.269   4.602   2.559  0.1766  0.3942 -0.4129
 7466TIP3    H146593   2.190   4.549   2.555 -0.3775  1.2826 -2.2179
 7466TIP3    H246594   2.238   4.692   2.568  1.0748  0.5754  1.4765
 7467TIP3   OH246595   2.211   0.574   2.746  0.6032 -0.1565  0.2989
 7467TIP3    H146596   2.121   0.555   2.774  0.5985  0.7342  0.9148
 7467TIP3    H246597   2.259   0.588   2.827  1.1431  0.0641 -0.0585
 7468TIP3   OH246598   7.077   3.078   3.270  0.1078 -0.4562 -0.0010
 7468TIP3    H146599   7.165   3.115   3.283 -0.4342  1.3497 -1.1231
 7468TIP3    H246600   7.040   3.129   3.199 -1.7210 -1.4884  0.1493
 7469TIP3   OH246601   4.006   1.714   0.557  0.4517  0.0768  0.4438
 7469TIP3    H146602   4.004   1.805   0.527 -1.1048 -0.3291 -0.8232
 7469TIP3    H246603   4.098   1.696   0.574  0.5277  3.1087  4.7431
 7470TIP3   OH246604   3.669   0.913   0.991 -0.5119 -0.2891  0.1686
 7470TIP3    H146605   3.651   0.842   0.929  1.2916  0.4768 -1.3472
 7470TIP3    H246606   3.589   0.965   0.992 -0.8928 -0.8209 -0.8574
 7471TIP3   OH246607   0.337   4.667   0.759  0.2353 -0.1615 -0.1829
 7471TIP3    H146608   0.294   4.582   0.758 -1.4017  0.6101 -2.1711
 7471TIP3    H246609   0.286   4.720   0.820  0.7026 -0.3237  0.3576
 7472TIP3   OH246610   3.371   1.864   1.083 -0.0524 -0.6090  0.4168
 7472TIP3    H146611   3.282   1.839   1.059 -0.2675  1.0931 -0.7089
 7472TIP3    H246612   3.385   1.822   1.168 -1.7031 -1.3975  0.3396
 7473TIP3   OH246613   7.253   2.014   0.906 -1.0219 -0.1912 -0.0739
 7473TIP3    H146614   7.180   2.076   0.911 -0.7802  0.0603  0.4369
 7473TIP3    H246615   7.248   1.966   0.989  0.5980  1.1896  0.8672
 7474TIP3   OH246616   0.971   6.743   1.810 -0.1782 -0.4652 -0.9844
 7474TIP3    H146617   0.958   6.681   1.882  0.6895 -2.8835 -2.7497
 7474TIP3    H246618   1.036   6.805   1.843 -2.2815  0.6167  1.4328
 7475TIP3   OH246619   1.778   4.337   3.151  0.4643 -0.4730 -0.3595
 7475TIP3    H146620   1.853   4.287   3.184 -0.5799 -1.3543  0.7592
 7475TIP3    H246621   1.701   4.294   3.190 -0.4467  2.9348  2.0641
 7476TIP3   OH246622   4.278   0.489   1.682 -0.6615 -0.3101  0.5021
 7476TIP3    H146623   4.207   0.551   1.666 -0.9529 -0.1922  2.0780
 7476TIP3    H246624   4.334   0.532   1.746 -1.3487 -1.9422  2.3406
 7477TIP3   OH246625   6.625   6.019   2.806 -0.4903 -0.1262 -0.1916
 7477TIP3    H146626   6.710   6.046   2.841  0.2412 -1.3148 -0.9975
 7477TIP3    H246627   6.576   6.101   2.797  0.4109  0.5312  0.6815
 7478TIP3   OH246628   3.910   2.521   1.093 -0.2080  0.2190 -0.4566
 7478TIP3    H146629   3.997   2.555   1.074  0.1448 -1.0188 -1.2131
 7478TIP3    H246630   3.903   2.526   1.188  1.2687 -0.9358 -0.2458
 7479TIP3   OH246631   5.644   0.124   7.678 -0.0621 -0.5287  0.9366
 7479TIP3    H146632   5.575   0.059   7.678  0.6781 -1.4298 -1.7391
 7479TIP3    H246633   5.724   0.075   7.658  0.3426  1.2046 -2.4551
 7480TIP3   OH246634   1.569   5.442   0.970 -0.0203  0.2435  0.1346
 7480TIP3    H146635   1.518   5.443   0.889 -0.1751 -2.5808  0.0897
 7480TIP3    H246636   1.515   5.490   1.033 -1.4055 -0.2479 -0.6296
 7481TIP3   OH246637   6.343   3.739   1.874 -0.1696  0.0086  0.5487
 7481TIP3    H146638   6.305   3.754   1.788 -2.0293 -1.5389  1.0102
 7481TIP3    H246639   6.306   3.655   1.902  2.4077 -0.8193  1.7880
 7482TIP3   OH246640   2.735   2.676   2.700 -0.2582 -0.3471 -0.1599
 7482TIP3    H146641   2.667   2.698   2.764 -0.1706  1.9443 -0.7565
 7482TIP3    H246642   2.687   2.665   2.617  0.1052  2.3476 -0.8079
 7483TIP3   OH246643   2.780   3.110   0.905  0.4668  0.2042  0.4735
 7483TIP3    H146644   2.792   3.193   0.952  0.9647  0.0464  0.6268
 7483TIP3    H246645   2.698   3.075   0.939  0.8647  0.0501  1.2881
 7484TIP3   OH246646   5.606   6.511   0.864 -0.6139  0.0639 -0.3495
 7484TIP3    H146647   5.677   6.449   0.882 -0.8438 -0.0347  0.2500
 7484TIP3    H246648   5.566   6.526   0.950  0.9691  2.9093  0.0260
 7485TIP3   OH246649   3.441   1.012   2.096 -0.2824  0.4019 -0.3228
 7485TIP3    H146650   3.366   0.958   2.121 -1.3501  0.5095 -2.9271
 7485TIP3    H246651   3.492   1.021   2.176 -1.2591 -2.5174  0.7868
 7486TIP3   OH246652   6.244   4.957   1.352 -0.0956 -0.0243  0.3433
 7486TIP3    H146653   6.152   4.957   1.378 -0.2336 -1.4124 -0.0615
 7486TIP3    H246654   6.254   5.037   1.301 -1.2381 -0.1416 -0.0948
 7487TIP3   OH246655   2.521   4.955   2.498 -0.5120 -0.5096 -0.8785
 7487TIP3    H146656   2.547   5.039   2.537  1.3578 -1.3446 -0.2267
 7487TIP3    H246657   2.437   4.935   2.540  0.2108 -0.1253  0.8350
 7488TIP3   OH246658   5.148   7.138   1.352 -0.6669 -0.0936 -0.0231
 7488TIP3    H146659   5.168   7.119   1.260  0.1484 -2.1844  0.5284
 7488TIP3    H246660   5.072   7.083   1.372  1.1632 -2.2928  1.3797
 7489TIP3   OH246661   2.753   2.255   2.305 -0.2124  0.4920 -0.2688
 7489TIP3    H146662   2.792   2.221   2.385 -0.1450  1.3591  0.0863
 7489TIP3    H246663   2.679   2.308   2.335  0.1462  1.2870 -0.7229
 7490TIP3   OH246664   4.061   3.359   1.477  0.0245 -0.2628  0.1614
 7490TIP3    H146665   3.974   3.396   1.460 -0.1327 -0.0332  1.3443
 7490TIP3    H246666   4.045   3.265   1.486 -0.0640 -0.2481  0.1588
 7491TIP3   OH246667   5.374   2.299   0.841  0.1744 -0.4701 -0.2609
 7491TIP3    H146668   5.421   2.380   0.862 -0.7119  0.5173 -1.8512
 7491TIP3    H246669   5.441   2.242   0.805  0.4257  0.4214 -1.2567
 7492TIP3   OH246670   2.931   3.139   2.349  0.1787  0.0996  0.2464
 7492TIP3    H146671   2.959   3.231   2.346  0.0600  0.4005  3.9451
 7492TIP3    H246672   2.866   3.136   2.419 -0.2492 -2.7538 -0.1598
 7493TIP3   OH246673   5.253   4.897   2.805  0.3456 -0.0776 -0.1397
 7493TIP3    H146674   5.278   4.984   2.774  0.9956 -0.0196  0.5262
 7493TIP3    H246675   5.162   4.908   2.835  1.1465  1.0091  2.1689
 7494TIP3   OH246676   4.857   3.190   0.916 -0.2728 -0.0114  0.2181
 7494TIP3    H146677   4.902   3.267   0.950  2.7738 -1.7120  0.3406
 7494TIP3    H246678   4.769   3.221   0.895  1.4145  4.0450 -1.7896
 7495TIP3   OH246679   6.213   5.915   2.410 -0.0294 -0.6878  0.3022
 7495TIP3    H146680   6.243   5.962   2.332  1.0214 -0.9637  0.5216
 7495TIP3    H246681   6.292   5.903   2.462 -1.0657  2.0067  2.8004
 7496TIP3   OH246682   2.942   1.864   1.554  0.1448  0.4948 -0.7417
 7496TIP3    H146683   2.910   1.774   1.556  1.5621 -0.0243 -0.1186
 7496TIP3    H246684   2.907   1.900   1.472 -0.8964 -0.4275 -0.7324
 7497TIP3   OH246685   4.854   4.708   1.432  0.4753 -0.1095  0.0417
 7497TIP3    H146686   4.938   4.686   1.474  1.4602  1.7659 -0.8298
 7497TIP3    H246687   4.792   4.715   1.505  1.1977 -0.9691  0.7626
 7498TIP3   OH246688   2.602   2.650   2.451  0.3260  0.2035 -0.8151
 7498TIP3    H146689   2.642   2.593   2.386  1.4346  1.3637 -1.2035
 7498TIP3    H246690   2.511   2.660   2.423  0.4967 -0.2308 -1.5237
 7499TIP3   OH246691   5.268   0.916   2.198 -0.0411 -0.4812  0.3161
 7499TIP3    H146692   5.355   0.897   2.233  0.3161 -0.7426 -0.6753
 7499TIP3    H246693   5.279   0.998   2.149  0.0290 -1.2641 -1.0531
 7500TIP3   OH246694   5.157   3.818   2.303  0.2467 -0.2244 -0.1730
 7500TIP3    H146695   5.168   3.841   2.395  1.7920  1.5511 -0.7463
 7500TIP3    H246696   5.083   3.871   2.273  0.2159 -0.2453 -0.1341
 7501TIP3   OH246697   3.589   5.703   1.984 -0.3590  0.0762 -0.0237
 7501TIP3    H146698   3.682   5.728   1.985 -0.5564  1.0027 -1.5614
 7501TIP3    H246699   3.590   5.608   1.974  0.4184  0.0037  0.6308
 7502TIP3   OH246700   3.171   1.019   1.787 -0.0506  0.2918 -0.5792
 7502TIP3    H146701   3.128   1.010   1.872  0.7264 -0.7074 -0.2736
 7502TIP3    H246702   3.221   0.938   1.776  0.2960  0.6372 -1.7484
 7503TIP3   OH246703   0.253   5.325   1.792 -0.1827  0.3568  0.0112
 7503TIP3    H146704   0.248   5.396   1.729 -2.6469 -0.5116 -0.9085
 7503TIP3    H246705   0.196   5.257   1.756  2.2005 -2.2186  0.7365
 7504TIP3   OH246706   7.217   3.538   0.836 -0.0133 -0.3206  0.2410
 7504TIP3    H146707   7.162   3.486   0.778  1.6437 -2.7895  0.7188
 7504TIP3    H246708   7.271   3.591   0.777 -0.2242 -0.7733 -0.3632
 7505TIP3   OH246709   2.749   5.573   0.959  0.4061 -0.8230 -0.1490
 7505TIP3    H146710   2.752   5.518   1.037  1.8305  0.4357  0.7299
 7505TIP3    H246711   2.672   5.628   0.971  0.4686 -0.8190  0.2246
 7506TIP3   OH246712   3.923   3.152   1.925 -0.2956 -0.1982 -0.0916
 7506TIP3    H146713   3.965   3.204   1.993 -3.2507  0.5993  1.2565
 7506TIP3    H246714   3.882   3.216   1.867  1.2993 -0.9128 -2.1515
 7507TIP3   OH246715   1.539   6.559   1.966  0.0690  0.1687 -0.5184
 7507TIP3    H146716   1.493   6.517   2.039  0.1624  0.0936 -0.5033
 7507TIP3    H246717   1.587   6.488   1.923  2.2431  0.6205  0.9810
 7508TIP3   OH246718   3.241   1.753   0.416 -0.5890  0.1008  0.3491
 7508TIP3    H146719   3.325   1.772   0.460  0.9642 -1.9781 -1.4925
 7508TIP3    H246720   3.241   1.810   0.339 -0.5469 -0.3417  0.0176
 7509TIP3   OH246721   3.923   2.222   2.253  0.4612  0.3052 -0.6760
 7509TIP3    H146722   3.836   2.219   2.213  1.0933  0.8636 -2.2065
 7509TIP3    H246723   3.935   2.314   2.276 -0.7171 -0.2851  2.9384
 7510TIP3   OH246724   4.784   3.140   1.817 -0.2365  0.4240 -0.0634
 7510TIP3    H146725   4.755   3.049   1.828  0.7907 -0.0243 -0.8669
 7510TIP3    H246726   4.862   3.133   1.762 -0.7180  1.8805 -0.9898
 7511TIP3   OH246727   5.057   5.058   2.272  0.5147  0.2914  0.1216
 7511TIP3    H146728   4.963   5.060   2.289  0.6364 -1.2257  1.0999
 7511TIP3    H246729   5.063   5.034   2.179 -0.0723 -1.7076  0.5567
 7512TIP3   OH246730   1.853   3.831   2.618 -1.1420  0.1133  0.2960
 7512TIP3    H146731   1.888   3.876   2.695  0.8459  1.3505 -1.2254
 7512TIP3    H246732   1.758   3.833   2.630 -0.9942  2.3057  1.6478
 7513TIP3   OH246733   2.684   1.655   2.034 -0.1803 -0.1820 -0.6708
 7513TIP3    H146734   2.609   1.596   2.026  0.1925 -1.1283  2.0083
 7513TIP3    H246735   2.757   1.604   1.999 -0.0473 -0.9562  0.6807
 7514TIP3   OH246736   7.315   0.425   2.686 -0.4653  0.0834  0.0161
 7514TIP3    H146737   7.223   0.422   2.660 -0.4281  1.6895 -0.4343
 7514TIP3    H246738   7.340   0.517   2.675  1.3387 -0.4095 -0.4030
 7515TIP3   OH246739   6.270   4.167   2.095 -0.1746 -0.3882  0.6507
 7515TIP3    H146740   6.253   4.151   2.188 -0.1300 -0.5345  0.6337
 7515TIP3    H246741   6.319   4.090   2.066 -1.6712 -1.1803  0.0878
 7516TIP3   OH246742   4.666   0.653   0.579 -0.0182  0.3219  0.2030
 7516TIP3    H146743   4.591   0.639   0.521  0.9521  1.2699 -1.3538
 7516TIP3    H246744   4.631   0.705   0.651 -0.7323  1.5134 -0.9441
 7517TIP3   OH246745   1.023   0.506   2.122  0.7236 -0.2028  0.4953
 7517TIP3    H146746   1.041   0.586   2.072 -0.5957 -1.0496 -1.4735
 7517TIP3    H246747   1.004   0.537   2.211 -3.5136  2.1983 -0.9604
 7518TIP3   OH246748   7.073   5.760   1.737  0.2992 -0.1217  0.3890
 7518TIP3    H146749   7.115   5.822   1.678  1.9150 -1.5919 -0.0942
 7518TIP3    H246750   7.136   5.688   1.745 -1.5220 -1.7505  0.8475
 7519TIP3   OH246751   4.745   5.658   2.480 -0.2530 -0.4842 -0.5325
 7519TIP3    H146752   4.727   5.649   2.574  1.2429 -3.5128 -0.4173
 7519TIP3    H246753   4.839   5.671   2.474 -0.2856 -0.6560 -1.6309
 7520TIP3   OH246754   3.382   1.233   2.503  0.4049 -0.1937 -0.1558
 7520TIP3    H146755   3.320   1.178   2.550  0.2001 -0.9929 -1.3094
 7520TIP3    H246756   3.360   1.220   2.411  2.1219 -0.3221 -0.5853
 7521TIP3   OH246757   7.148   0.552   1.764  0.2040 -0.2728 -0.3898
 7521TIP3    H146758   7.184   0.489   1.825  2.6686  0.7077 -0.7167
 7521TIP3    H246759   7.170   0.518   1.677 -0.4839 -0.0906 -0.6470
 7522TIP3   OH246760   6.468   3.024   2.160  0.3784 -0.0704  0.6570
 7522TIP3    H146761   6.560   3.025   2.188  0.6675  1.8723 -0.2133
 7522TIP3    H246762   6.456   2.938   2.119  1.5889 -0.6350  1.4290
 7523TIP3   OH246763   0.802   0.334   0.976 -0.0129  0.3967  0.0713
 7523TIP3    H146764   0.885   0.380   0.965 -0.2479  0.9014  0.3559
 7523TIP3    H246765   0.789   0.288   0.893  0.0924  1.0880 -0.3438
 7524TIP3   OH246766   7.416   2.528   0.519 -0.5544 -0.2491 -0.4638
 7524TIP3    H146767   7.399   2.553   0.610  1.8781 -0.6398  0.1837
 7524TIP3    H246768   7.428   2.611   0.473 -1.8141 -0.0494 -0.4788
 7525TIP3   OH246769   6.262   4.412   1.325  0.1161  0.3546 -0.1941
 7525TIP3    H146770   6.242   4.408   1.419  1.3915 -0.4438  0.0753
 7525TIP3    H246771   6.304   4.496   1.313 -0.4175  0.6341 -0.1345
 7526TIP3   OH246772   5.498   4.095   2.358 -0.5022 -0.2026 -0.2049
 7526TIP3    H146773   5.577   4.083   2.412 -1.3965  3.3934  2.2670
 7526TIP3    H246774   5.429   4.052   2.407 -0.6487 -0.4802 -0.6506
 7527TIP3   OH246775   1.224   6.173   2.713  0.0353  0.3151  0.4230
 7527TIP3    H146776   1.161   6.125   2.659  1.6117 -0.0115 -1.2126
 7527TIP3    H246777   1.208   6.142   2.802 -2.1395  0.3048  0.0802
 7528TIP3   OH246778   1.923   1.616   1.384  0.0944  0.2151  0.6024
 7528TIP3    H146779   1.873   1.606   1.465 -0.5277 -1.7900  0.0298
 7528TIP3    H246780   2.010   1.583   1.405  0.0927  0.2042  0.5920
 7529TIP3   OH246781   6.822   0.354   2.481 -0.2405  0.3415 -0.0768
 7529TIP3    H146782   6.910   0.345   2.446  0.2947  0.8616  1.0485
 7529TIP3    H246783   6.765   0.308   2.419  0.8351 -0.1155 -0.7413
 7530TIP3   OH246784   1.415   2.309   1.206 -0.2627  0.4042  0.1327
 7530TIP3    H146785   1.480   2.327   1.137  0.3373  1.0473  0.8408
 7530TIP3    H246786   1.468   2.303   1.286 -0.9845 -0.0099  0.5786
 7531TIP3   OH246787   1.829   7.446   2.450 -0.1558  0.8290  0.9665
 7531TIP3    H146788   1.861   7.528   2.487  1.1276  1.2060 -0.8227
 7531TIP3    H246789   1.868   7.378   2.505  0.4387  1.3840  1.2486
 7532TIP3   OH246790   3.730   1.255   1.993  0.2650 -0.2104 -0.3455
 7532TIP3    H146791   3.709   1.267   1.901  1.8620  0.1509 -0.6955
 7532TIP3    H246792   3.687   1.172   2.017 -3.5405  1.5845 -0.2669
 7533TIP3   OH246793   7.535   1.480   1.353 -0.1970  0.5749  0.4633
 7533TIP3    H146794   7.518   1.490   1.446  3.3674  1.0392  1.2127
 7533TIP3    H246795   7.513   1.389   1.334 -2.3217  0.8560  1.3423
 7534TIP3   OH246796   2.944   0.335   0.792 -0.4074 -0.4077 -0.0069
 7534TIP3    H146797   3.015   0.363   0.735  0.6050 -0.8564  0.9991
 7534TIP3    H246798   2.947   0.239   0.789 -0.9125 -0.4298  0.1058
 7535TIP3   OH246799   1.476   0.015   1.333 -0.3657  0.4111 -0.1050
 7535TIP3    H146800   1.553   0.006   1.276  0.0740  1.0996  0.3684
 7535TIP3    H246801   1.402  -0.011   1.277  0.1408  0.3514 -0.7604
 7536TIP3   OH246802   7.403   6.654   1.160 -0.5469 -0.2453  0.4110
 7536TIP3    H146803   7.468   6.584   1.156 -0.9866 -0.8516  2.4696
 7536TIP3    H246804   7.442   6.719   1.219 -0.6089  0.7715 -0.6273
 7537TIP3   OH246805   5.839   0.773   2.218  0.3543  0.2559 -0.0711
 7537TIP3    H146806   5.781   0.792   2.291  2.4654  0.0349  1.7670
 7537TIP3    H246807   5.833   0.679   2.206  2.3733 -0.2358  2.0695
 7538TIP3   OH246808   2.907   6.537   0.545  0.1233 -0.3146 -0.0478
 7538TIP3    H146809   2.813   6.521   0.557  0.3224 -1.1363  0.4489
 7538TIP3    H246810   2.914   6.575   0.457 -0.6466 -0.4804 -0.1836
 7539TIP3   OH246811   2.698   6.470   1.495 -0.3685 -0.3429 -0.2328
 7539TIP3    H146812   2.682   6.396   1.436 -0.0655 -1.0800  0.5861
 7539TIP3    H246813   2.766   6.522   1.451  0.4035 -1.2930 -0.1816
 7540TIP3   OH246814   1.573   4.749   0.655 -0.0685 -0.1145 -0.3386
 7540TIP3    H146815   1.493   4.767   0.607  0.2990  2.0338 -0.2274
 7540TIP3    H246816   1.543   4.719   0.741 -0.7725  0.9100 -0.2115
 7541TIP3   OH246817   3.822   0.308   0.898 -0.1370  0.0798  0.4033
 7541TIP3    H146818   3.879   0.332   0.825 -0.7734  1.7592  0.4204
 7541TIP3    H246819   3.880   0.308   0.974  0.3283 -0.7267  0.0727
 7542TIP3   OH246820   2.182   5.918   0.855  0.4259 -0.5411  0.4955
 7542TIP3    H146821   2.187   5.989   0.791  0.3979  0.8588  1.9493
 7542TIP3    H246822   2.154   5.842   0.805  0.1047  0.5591 -1.0877
 7543TIP3   OH246823   2.901   2.262   3.161 -0.2675  0.0564  0.2711
 7543TIP3    H146824   2.973   2.257   3.097  2.2919 -1.8244  3.0075
 7543TIP3    H246825   2.846   2.186   3.141 -0.3485  0.3201 -0.5615
 7544TIP3   OH246826   4.932   2.617   1.634 -0.0499  0.4162  0.5811
 7544TIP3    H146827   4.898   2.603   1.723  1.7056  1.6807  1.5045
 7544TIP3    H246828   4.944   2.529   1.599 -0.8605 -0.1079  1.5489
 7545TIP3   OH246829   3.411   6.238   2.851  0.4614 -0.9368  0.7690
 7545TIP3    H146830   3.430   6.159   2.902  0.6984  0.1264  2.4167
 7545TIP3    H246831   3.490   6.292   2.860 -0.8546  0.8611  2.4412
 7546TIP3   OH246832   3.798   5.828   2.279  0.2771  0.2997 -0.2618
 7546TIP3    H146833   3.800   5.776   2.198 -0.8477 -1.8874  1.0351
 7546TIP3    H246834   3.861   5.785   2.337  0.9849  1.7722  0.1209
 7547TIP3   OH246835   1.744   5.660   0.907 -0.4372 -0.8126  0.5143
 7547TIP3    H146836   1.663   5.613   0.930 -0.5581 -0.5229  0.6786
 7547TIP3    H246837   1.724   5.703   0.824 -1.1047  0.8308  1.4854
 7548TIP3   OH246838   5.225   0.904   1.562 -0.2892 -0.0084 -0.0652
 7548TIP3    H146839   5.184   0.817   1.565 -1.8053  0.5137 -2.3459
 7548TIP3    H246840   5.223   0.927   1.469  0.9809  2.0743  0.3760
 7549TIP3   OH246841   4.443   3.144   1.298 -0.5861  0.3324 -0.2457
 7549TIP3    H146842   4.459   3.117   1.389 -0.9207 -1.2558 -0.6172
 7549TIP3    H246843   4.527   3.179   1.269 -0.8282  2.1176  1.0526
 7550TIP3   OH246844   6.534   5.417   0.485 -0.3398 -0.5216 -0.3933
 7550TIP3    H146845   6.449   5.460   0.474 -0.8190 -1.5861 -1.0396
 7550TIP3    H246846   6.584   5.476   0.542 -2.0603 -0.6122  1.3219
 7551TIP3   OH246847   5.555   3.249   1.379  0.2115  0.5229  0.3675
 7551TIP3    H146848   5.596   3.163   1.388  1.0719  0.7951 -0.7393
 7551TIP3    H246849   5.513   3.265   1.464  1.4889 -0.2404  1.1634
 7552TIP3   OH246850   6.745   2.023   1.204 -0.1608  1.2913 -0.0042
 7552TIP3    H146851   6.793   2.004   1.124 -0.3525 -2.1234  0.5474
 7552TIP3    H246852   6.792   1.976   1.273 -3.2229 -0.9100  0.8064
 7553TIP3   OH246853   0.324   1.197   1.996  0.3158 -0.2328  0.1840
 7553TIP3    H146854   0.347   1.110   1.966 -1.1541 -0.3157 -0.8234
 7553TIP3    H246855   0.315   1.249   1.916 -1.7756  0.0422  0.5182
 7554TIP3   OH246856   7.379   3.196   0.801  0.4216 -0.2023  0.4226
 7554TIP3    H146857   7.458   3.222   0.753  1.4260 -3.1019  0.3117
 7554TIP3    H246858   7.328   3.145   0.738 -1.0864  0.7595  0.8134
 7555TIP3   OH246859   2.961   0.318   3.683  0.0648 -0.4790  0.1233
 7555TIP3    H146860   2.923   0.388   3.629 -0.4880  0.5906  1.8277
 7555TIP3    H246861   3.038   0.289   3.634 -0.3216  0.5523 -1.1538
 7556TIP3   OH246862   0.007   4.323   1.033  0.0037 -0.4288  0.0326
 7556TIP3    H146863  -0.008   4.417   1.024  0.9810 -0.0799  1.6374
 7556TIP3    H246864  -0.003   4.288   0.944 -0.5964  1.1456 -0.5435
 7557TIP3   OH246865   1.342   7.306   1.449 -0.0626 -0.6001  0.0433
 7557TIP3    H146866   1.274   7.243   1.424 -1.0552 -0.0311  1.2030
 7557TIP3    H246867   1.299   7.363   1.512  1.6350 -0.5043  1.1644
 7558TIP3   OH246868   7.642   1.749   0.696  0.1487 -0.5800  0.1179
 7558TIP3    H146869   7.693   1.730   0.776  0.7775 -0.4986 -0.2555
 7558TIP3    H246870   7.572   1.684   0.697  0.5617 -1.0340  0.3786
 7559TIP3   OH246871   1.609   6.094   1.559  0.1671  0.0272  0.1953
 7559TIP3    H146872   1.627   6.159   1.627 -0.1612  0.0258  0.2889
 7559TIP3    H246873   1.582   6.146   1.483 -0.8710 -0.0184  0.5126
 7560TIP3   OH246874   4.289   6.313   2.469 -0.4507 -0.1201 -0.2519
 7560TIP3    H146875   4.355   6.364   2.423 -0.2358 -0.7766 -0.7010
 7560TIP3    H246876   4.339   6.258   2.530 -0.7058  0.4616  0.4890
 7561TIP3   OH246877   4.122   6.719   2.132 -0.4451 -0.1415 -0.4012
 7561TIP3    H146878   4.065   6.796   2.124  0.4951  0.8154  1.4581
 7561TIP3    H246879   4.066   6.652   2.171 -0.3133  0.8826  1.6904
 7562TIP3   OH246880   0.344   3.081   2.458  0.1594 -0.4736  0.0226
 7562TIP3    H146881   0.389   3.146   2.404  0.4385  0.6778  1.5793
 7562TIP3    H246882   0.412   3.046   2.515 -0.6696  0.7158  1.8597
 7563TIP3   OH246883   3.007   4.883   1.788 -0.4894 -0.3305  0.9661
 7563TIP3    H146884   3.092   4.918   1.814 -0.3266 -1.3925  1.9266
 7563TIP3    H246885   3.014   4.870   1.694 -0.9371  3.1874  0.3074
 7564TIP3   OH246886   0.152   1.535   2.552  0.3403  0.6475  0.0345
 7564TIP3    H146887   0.210   1.462   2.531  2.0152  2.0018 -0.3454
 7564TIP3    H246888   0.202   1.587   2.615 -0.4289  1.9214 -0.3738
 7565TIP3   OH246889   7.174   4.569   2.957 -0.7791  0.3903  0.5243
 7565TIP3    H146890   7.137   4.512   2.890  0.9772 -0.2224  0.0346
 7565TIP3    H246891   7.268   4.558   2.950 -0.4849  1.3844  2.1761
 7566TIP3   OH246892   0.489   3.523   1.724 -0.1066  0.1258 -0.7036
 7566TIP3    H146893   0.547   3.456   1.689 -0.5708  0.0492 -1.3431
 7566TIP3    H246894   0.467   3.493   1.813  1.4667  0.5628 -0.1363
 7567TIP3   OH246895   0.637   6.829   0.801 -0.3847 -0.5253 -0.5889
 7567TIP3    H146896   0.568   6.834   0.736  1.7701  0.2450 -2.9592
 7567TIP3    H246897   0.603   6.876   0.877 -2.1870  0.3929 -1.9167
 7568TIP3   OH246898   2.511   0.394   2.156  0.1860  0.1408 -0.9554
 7568TIP3    H146899   2.468   0.376   2.239  0.0269  0.5275 -0.9501
 7568TIP3    H246900   2.567   0.318   2.140  1.6299  0.8647  0.3926
 7569TIP3   OH246901   5.026   4.676   0.832 -0.4333  0.6109  0.5360
 7569TIP3    H146902   4.961   4.740   0.862  0.0327  1.3229  0.0361
 7569TIP3    H246903   4.979   4.623   0.768 -0.4489  1.2915 -0.0187
 7570TIP3   OH246904   0.941   0.932   1.778  0.6400 -0.0079  0.2611
 7570TIP3    H146905   0.961   0.965   1.690  1.1113  0.1025  0.4037
 7570TIP3    H246906   0.859   0.884   1.768  0.0059  1.1032  0.0251
 7571TIP3   OH246907   2.241   3.583   1.489 -0.4986 -0.3403 -0.5538
 7571TIP3    H146908   2.243   3.674   1.460  1.0660 -0.9449 -2.6066
 7571TIP3    H246909   2.286   3.583   1.574 -1.0734  0.8490 -0.2326
 7572TIP3   OH246910   1.309   7.633   1.646 -0.2914 -0.2242 -0.2045
 7572TIP3    H146911   1.259   7.578   1.586 -0.4320 -1.5425  1.0857
 7572TIP3    H246912   1.279   7.722   1.627 -1.0403 -0.7114 -1.3960
 7573TIP3   OH246913   1.072   4.188   1.715  0.1670  0.6131 -0.4034
 7573TIP3    H146914   1.050   4.106   1.672  1.2812 -0.6480  1.3087
 7573TIP3    H246915   1.148   4.221   1.666  0.2349  0.1887 -0.5888
 7574TIP3   OH246916   7.205   0.468   3.029 -0.5203  0.1772 -0.1739
 7574TIP3    H146917   7.271   0.409   2.991  0.8750  0.5827  1.5148
 7574TIP3    H246918   7.170   0.419   3.104  0.1306  1.1845  0.8104
 7575TIP3   OH246919   4.701   7.653   2.112 -0.1749 -0.3081  0.2258
 7575TIP3    H146920   4.615   7.695   2.102 -0.6052 -1.3705 -0.7821
 7575TIP3    H246921   4.700   7.618   2.201 -0.7291 -0.1871  0.2718
 7576TIP3   OH246922   0.128   5.305   2.091  1.0131 -0.0467 -0.3909
 7576TIP3    H146923   0.066   5.245   2.049 -0.6335  0.4409  1.2400
 7576TIP3    H246924   0.119   5.387   2.043 -0.9946  0.5658  0.9220
 7577TIP3   OH246925   1.324   3.061   3.566  0.3275 -0.3074  0.5402
 7577TIP3    H146926   1.345   2.975   3.529  1.6493  0.1383  0.2173
 7577TIP3    H246927   1.360   3.058   3.655 -0.9683 -0.6103  1.0806
 7578TIP3   OH246928   3.725   5.414   0.891  0.3086  0.2449 -0.4147
 7578TIP3    H146929   3.809   5.371   0.876  0.3452  0.9948 -2.6975
 7578TIP3    H246930   3.662   5.360   0.842 -0.2653  0.6315 -0.1123
 7579TIP3   OH246931   6.909   1.556   2.679  0.1110  0.1179 -0.3736
 7579TIP3    H146932   6.980   1.492   2.685 -0.1153 -0.1053 -0.0600
 7579TIP3    H246933   6.914   1.589   2.589  0.4418 -0.0905 -0.4338
 7580TIP3   OH246934   5.302   3.030   1.541  0.1998  0.2372 -0.0962
 7580TIP3    H146935   5.256   2.956   1.581  1.3868 -0.9270 -0.8144
 7580TIP3    H246936   5.270   3.033   1.451  0.4826  0.3238 -0.1958
 7581TIP3   OH246937   1.222   1.564   2.892 -0.1219 -0.1662 -0.0716
 7581TIP3    H146938   1.253   1.515   2.816  2.6082  2.0242 -0.5035
 7581TIP3    H246939   1.178   1.641   2.856 -0.2244  0.0892  0.5686
 7582TIP3   OH246940   2.525   4.314   1.472 -0.0987 -0.5538  0.0320
 7582TIP3    H146941   2.537   4.220   1.484  0.1317 -0.5065  0.1628
 7582TIP3    H246942   2.577   4.355   1.541  1.0183 -0.2874 -0.9463
 7583TIP3   OH246943   3.321   1.777   2.066  0.0127  0.7978  0.2808
 7583TIP3    H146944   3.389   1.733   2.118  1.6046 -0.8371 -2.8750
 7583TIP3    H246945   3.239   1.743   2.101  0.9325  0.2979  2.1240
 7584TIP3   OH246946   6.119   3.895   2.759  0.1064 -0.3542 -0.5732
 7584TIP3    H146947   6.139   3.833   2.829 -2.5900  0.0521  0.6638
 7584TIP3    H246948   6.173   3.972   2.779 -0.0640 -0.5354  0.6552
 7585TIP3   OH246949   1.128   5.750   1.240  0.0783 -0.3086  0.1062
 7585TIP3    H146950   1.067   5.684   1.209 -1.6457 -1.0722  4.4073
 7585TIP3    H246951   1.199   5.701   1.282 -0.7639  0.4173  2.5623
 7586TIP3   OH246952   2.852   1.939   1.296 -0.2459 -0.4061 -0.7623
 7586TIP3    H146953   2.901   1.944   1.214  1.2484  0.2469  0.1171
 7586TIP3    H246954   2.784   2.005   1.288  0.4976  0.3375 -1.1141
 7587TIP3   OH246955   0.659   1.144   2.910 -0.0163 -0.1690 -0.4317
 7587TIP3    H146956   0.677   1.226   2.864  0.1496 -0.1183 -0.2791
 7587TIP3    H246957   0.678   1.163   3.002  3.5160 -1.3222 -0.7521
 7588TIP3   OH246958   0.304   3.324   0.671 -0.0910  0.4438 -0.3260
 7588TIP3    H146959   0.248   3.311   0.594 -1.4684 -0.8193  0.8247
 7588TIP3    H246960   0.257   3.388   0.724  0.8075  1.2404 -0.4625
 7589TIP3   OH246961   6.230   1.805   1.037 -0.2560 -0.5902  0.3095
 7589TIP3    H146962   6.228   1.859   1.116  0.0665 -0.9548  0.5725
 7589TIP3    H246963   6.208   1.717   1.067  4.1459 -1.7429  0.8776
 7590TIP3   OH246964   7.419   5.087   2.440 -0.3373  0.2569  0.1235
 7590TIP3    H146965   7.500   5.070   2.489  0.2753 -1.4910 -1.4079
 7590TIP3    H246966   7.360   5.017   2.466 -1.3279  1.3690  1.0203
 7591TIP3   OH246967   5.580   6.656   0.359  0.2250 -0.0212 -0.2357
 7591TIP3    H146968   5.535   6.604   0.426 -0.4673  0.1121 -0.5840
 7591TIP3    H246969   5.633   6.593   0.311 -0.9907 -0.5240 -0.9804
 7592TIP3   OH246970   1.622   2.153   0.740  0.0938  0.2447 -0.0831
 7592TIP3    H146971   1.660   2.146   0.652 -1.0462 -0.3547 -0.5349
 7592TIP3    H246972   1.550   2.091   0.740 -0.2265  0.6046  1.1242
 7593TIP3   OH246973   0.054   4.881   2.570 -0.3699  0.2521 -0.1796
 7593TIP3    H146974   0.017   4.810   2.623  0.9903  0.8510  1.6599
 7593TIP3    H246975   0.026   4.961   2.615  0.4047  0.7865 -0.6258
 7594TIP3   OH246976   4.834   5.424   2.895  0.0630  0.0187 -0.5258
 7594TIP3    H146977   4.809   5.508   2.855  1.7444 -0.1590 -2.0607
 7594TIP3    H246978   4.888   5.449   2.970  0.3229  0.3090 -0.8087
 7595TIP3   OH246979   7.483   6.554   2.811  0.2226 -0.2065 -0.1684
 7595TIP3    H146980   7.417   6.605   2.858 -1.1758 -2.0315 -0.0181
 7595TIP3    H246981   7.547   6.529   2.878  1.1427  1.5886 -0.3182
 7596TIP3   OH246982   5.494   5.319   2.618 -0.0680  0.1518  0.0033
 7596TIP3    H146983   5.527   5.352   2.702  0.1063  2.3265 -0.8604
 7596TIP3    H246984   5.572   5.312   2.563 -0.5492  2.4853 -1.1219
 7597TIP3   OH246985   4.235   4.629   1.636  0.2486 -0.3139 -0.6475
 7597TIP3    H146986   4.251   4.540   1.603 -0.3750 -0.5017 -0.4568
 7597TIP3    H246987   4.213   4.616   1.729  2.7759  0.2656  0.1347
 7598TIP3   OH246988   1.958   0.702   2.544  0.4031  0.1440 -0.5005
 7598TIP3    H146989   1.979   0.772   2.482 -0.5332  1.3956  0.5422
 7598TIP3    H246990   1.863   0.692   2.536  0.5866 -1.4146 -1.0216
 7599TIP3   OH246991   7.483   2.121   1.051  0.1620  0.2572  0.4126
 7599TIP3    H146992   7.540   2.048   1.076 -0.6760 -0.7504 -0.5093
 7599TIP3    H246993   7.408   2.079   1.008 -1.3646  1.5180  1.7225
 7600TIP3   OH246994   1.535   3.723   0.982 -0.4615 -0.3186 -0.1461
 7600TIP3    H146995   1.494   3.809   0.970 -2.2334 -1.1156 -0.0792
 7600TIP3    H246996   1.607   3.739   1.043 -0.8351  1.0891 -0.0427
 7601TIP3   OH246997   6.807   6.229   3.457 -0.3989 -0.8650 -0.7981
 7601TIP3    H146998   6.788   6.314   3.495 -0.8432 -1.2549 -0.1143
 7601TIP3    H246999   6.902   6.228   3.447 -0.1522 -1.0345  1.0861
 7602TIP3   OH247000   0.364   3.716   2.488  0.0799 -0.4464 -0.0263
 7602TIP3    H147001   0.400   3.749   2.570 -0.3892  0.1930 -0.0670
 7602TIP3    H247002   0.318   3.791   2.451 -0.3375 -0.9374 -0.5120
 7603TIP3   OH247003   4.403   5.256   1.868 -0.4161 -0.5697 -0.2588
 7603TIP3    H147004   4.462   5.273   1.941 -0.3516  0.2422 -0.4980
 7603TIP3    H247005   4.453   5.282   1.790 -0.8258 -0.5464 -0.5165
 7604TIP3   OH247006   0.079   1.526   3.038 -0.1952 -0.0918  0.4564
 7604TIP3    H147007   0.153   1.548   3.095 -0.4161  0.7256  0.4401
 7604TIP3    H247008   0.012   1.493   3.097  0.5026 -1.7685  0.3754
 7605TIP3   OH247009   1.235   0.278   2.830  0.1957 -0.1144 -0.0432
 7605TIP3    H147010   1.259   0.196   2.872  2.2405  0.4143 -0.0573
 7605TIP3    H247011   1.260   0.267   2.738  0.2346  0.4249 -0.1021
 7606TIP3   OH247012   2.894   0.352   1.193 -0.0837 -0.7978 -0.3429
 7606TIP3    H147013   2.930   0.342   1.281 -1.4928 -1.8409  0.1624
 7606TIP3    H247014   2.823   0.415   1.203  0.8301  0.3899 -1.0956
 7607TIP3   OH247015   6.548   4.656   3.096 -0.2993 -0.0262  0.6673
 7607TIP3    H147016   6.618   4.637   3.034 -0.5672 -0.9351  0.6228
 7607TIP3    H247017   6.507   4.735   3.063 -0.3080 -0.3812 -0.1963
 7608TIP3   OH247018   0.004   2.386   0.719 -0.0719  0.2122  0.0912
 7608TIP3    H147019   0.068   2.434   0.666  1.1996  0.4987  1.8057
 7608TIP3    H247020  -0.040   2.328   0.656 -0.1580  2.0599 -1.6361
 7609TIP3   OH247021   2.651   6.133   1.891 -1.0312  0.6269  0.1526
 7609TIP3    H147022   2.701   6.154   1.812 -1.5452  1.3596  0.0098
 7609TIP3    H247023   2.716   6.139   1.962 -0.7602  0.8428 -0.1105
 7610TIP3   OH247024   2.972   1.150   0.847 -0.2614  0.1202 -0.1489
 7610TIP3    H147025   2.878   1.159   0.860 -0.5362 -0.3663 -1.5780
 7610TIP3    H247026   2.983   1.062   0.811  0.8838 -0.2928  1.1418
 7611TIP3   OH247027   3.060   1.537   2.442 -0.1338 -0.1654  0.1849
 7611TIP3    H147028   3.031   1.478   2.511  1.8063 -1.0733  0.2874
 7611TIP3    H247029   2.990   1.533   2.376 -1.3452 -0.3552  1.4348
 7612TIP3   OH247030   2.328   7.590   2.002  0.7547 -0.1623 -0.5145
 7612TIP3    H147031   2.416   7.599   1.964  1.1520  1.5161  0.6946
 7612TIP3    H247032   2.329   7.504   2.044  2.3464  0.3889  0.6918
 7613TIP3   OH247033   0.029   1.212   2.325 -0.3052  0.2408  0.0827
 7613TIP3    H147034   0.018   1.157   2.247  1.8210  0.7412 -0.6136
 7613TIP3    H247035  -0.021   1.166   2.393 -0.3072 -1.4414 -0.9928
 7614TIP3   OH247036   6.263   2.998   0.659 -1.0223  0.3100  0.3336
 7614TIP3    H147037   6.307   3.079   0.686  1.4473 -0.7152 -0.2901
 7614TIP3    H247038   6.258   3.004   0.564 -1.4375  0.0136  0.3367
 7615TIP3   OH247039   3.544   5.441   1.774  0.1765  0.3092  0.1001
 7615TIP3    H147040   3.604   5.373   1.807  1.3799  1.3297  0.0966
 7615TIP3    H247041   3.600   5.500   1.724 -0.9231  1.0694 -0.2684
 7616TIP3   OH247042   0.334   7.264   1.582 -0.0558 -0.5798  0.1176
 7616TIP3    H147043   0.268   7.207   1.621 -0.4804 -1.2195 -1.4804
 7616TIP3    H247044   0.394   7.204   1.537  0.3624  0.1327 -0.2951
 7617TIP3   OH247045   2.613   1.647   2.452  0.4192  0.5200  0.2457
 7617TIP3    H147046   2.620   1.701   2.373  3.8223  1.4414  0.9945
 7617TIP3    H247047   2.604   1.710   2.524 -1.2294 -0.2340  0.7433
 7618TIP3   OH247048   2.363   2.078   1.810  0.4054  0.2745  0.3246
 7618TIP3    H147049   2.369   2.106   1.719  0.0521 -0.6292  0.0196
 7618TIP3    H247050   2.450   2.045   1.831  0.1460 -0.6996 -0.0862
 7619TIP3   OH247051   6.977   5.172   1.049 -0.2406 -0.4635 -0.3389
 7619TIP3    H147052   6.961   5.200   1.139  2.7295  0.0836  0.1207
 7619TIP3    H247053   7.035   5.096   1.057 -2.1849 -2.2174 -1.7897
 7620TIP3   OH247054   6.554   5.235   2.219 -0.5752 -0.0023 -0.2101
 7620TIP3    H147055   6.470   5.190   2.209 -0.7411  0.6137 -1.7129
 7620TIP3    H247056   6.619   5.170   2.192 -0.8194  0.6254 -2.4451
 7621TIP3   OH247057   5.768   5.095   1.647 -0.6745 -0.3885  0.1747
 7621TIP3    H147058   5.755   5.152   1.722 -2.4445 -1.2789  0.6126
 7621TIP3    H247059   5.739   5.148   1.572  0.6606  0.3375  0.1393
 7622TIP3   OH247060   0.087   1.978   2.698  0.4440  0.2321  0.2459
 7622TIP3    H147061   0.030   2.046   2.663  1.6412  0.8622 -0.5278
 7622TIP3    H247062   0.057   1.897   2.656 -2.2717 -0.1467  2.6303
 7623TIP3   OH247063   0.156   5.099   3.247  0.4800 -0.3768  0.2567
 7623TIP3    H147064   0.176   5.191   3.233  1.7201 -0.6227  0.2860
 7623TIP3    H247065   0.064   5.098   3.277  0.2185  0.7622 -0.4777
 7624TIP3   OH247066   5.610   0.431   1.773 -0.4557  0.7740 -0.0611
 7624TIP3    H147067   5.621   0.389   1.858 -2.4144  1.1772  0.4537
 7624TIP3    H247068   5.604   0.524   1.794  0.8206  1.0607 -0.8663
 7625TIP3   OH247069   4.868   1.964   0.858  0.0569  0.0313 -0.4057
 7625TIP3    H147070   4.909   1.885   0.893 -0.3685 -0.0420 -0.0672
 7625TIP3    H247071   4.882   1.958   0.763 -0.4553 -0.7316 -0.4414
 7626TIP3   OH247072   6.472   0.375   2.073 -0.4379 -0.1585  0.0290
 7626TIP3    H147073   6.407   0.327   2.022 -2.0780  0.8787  1.0565
 7626TIP3    H247074   6.435   0.463   2.083  1.6287  0.8026 -0.2356
 7627TIP3   OH247075   3.713   0.313   1.619 -0.0017  0.5984 -0.4645
 7627TIP3    H147076   3.789   0.287   1.672 -1.5182  0.3262  1.7330
 7627TIP3    H247077   3.698   0.405   1.643 -1.2802  0.1955  0.3820
 7628TIP3   OH247078   4.561   6.816   2.123 -0.8445  0.2269  0.2044
 7628TIP3    H147079   4.546   6.883   2.056  0.8973 -0.2527 -0.7099
 7628TIP3    H247080   4.528   6.856   2.204 -0.1097  2.0927 -0.3647
 7629TIP3   OH247081   7.208   6.018   2.186 -0.4811 -0.4974  0.2507
 7629TIP3    H147082   7.183   5.947   2.127 -0.8282  1.5856 -2.3009
 7629TIP3    H247083   7.243   6.086   2.129  1.7322  0.6777  2.7602
 7630TIP3   OH247084   5.574   4.690   1.892 -0.1173  0.1305  0.4020
 7630TIP3    H147085   5.596   4.681   1.800 -0.6021 -1.3960  0.4032
 7630TIP3    H247086   5.543   4.603   1.918 -0.0220  0.5342  1.9951
 7631TIP3   OH247087   7.485   3.757   2.728 -0.0823  0.3393  0.1958
 7631TIP3    H147088   7.532   3.839   2.743  1.4785 -0.8966  2.6496
 7631TIP3    H247089   7.551   3.697   2.694 -1.0104 -0.1596 -0.7932
 7632TIP3   OH247090   5.043   7.421   0.358  0.0223  0.4288 -0.1901
 7632TIP3    H147091   5.050   7.486   0.428  2.5139  0.3986 -0.3080
 7632TIP3    H247092   5.029   7.473   0.278  0.7955  0.7491 -0.1237
 7633TIP3   OH247093   7.496   0.982   1.443 -0.2863 -1.1295  0.3430
 7633TIP3    H147094   7.542   0.904   1.475 -0.0471 -0.2172  2.3766
 7633TIP3    H247095   7.459   1.022   1.522  0.4214  1.3489 -0.4928
 7634TIP3   OH247096   4.924   7.430   2.189 -0.1421  0.0504  0.4417
 7634TIP3    H147097   4.878   7.418   2.272 -0.5686 -1.1670  0.0572
 7634TIP3    H247098   4.873   7.377   2.126  1.0400 -0.2854 -0.2635
 7635TIP3   OH247099   2.962   2.041   0.765 -0.3450  0.5463  0.2206
 7635TIP3    H147100   3.014   2.094   0.704  0.3011 -0.4661 -0.1250
 7635TIP3    H247101   3.011   2.043   0.847 -0.2654  0.3795  0.1757
 7636TIP3   OH247102   2.162   0.656   1.259  0.2729  0.2809 -0.2381
 7636TIP3    H147103   2.213   0.727   1.298 -0.9006  0.9726  0.0866
 7636TIP3    H247104   2.191   0.578   1.306  1.1708  0.6137 -0.2059
 7637TIP3   OH247105   2.050   4.740   1.263  0.4107  0.3122 -0.6159
 7637TIP3    H147106   2.037   4.830   1.234  0.7710  1.2598  1.8991
 7637TIP3    H247107   2.034   4.742   1.357  1.2822 -2.0901 -0.3326
 7638TIP3   OH247108   0.326   0.932   1.907  0.2786  0.0788 -0.1001
 7638TIP3    H147109   0.413   0.950   1.870  0.3827  1.6204  0.8184
 7638TIP3    H247110   0.338   0.850   1.956  0.8214 -0.5155 -1.1909
 7639TIP3   OH247111   7.129   2.401   2.540  0.2373  0.3932 -0.7780
 7639TIP3    H147112   7.153   2.310   2.556 -0.3497  0.1903 -1.0435
 7639TIP3    H247113   7.148   2.415   2.447 -1.0107  0.1218 -1.0825
 7640TIP3   OH247114   7.050   2.783   3.314  0.3058  0.0433 -0.7831
 7640TIP3    H147115   7.076   2.871   3.288  0.1529 -0.0672 -1.3141
 7640TIP3    H247116   6.988   2.797   3.386 -1.7592  0.4854 -2.5469
 7641TIP3   OH247117   2.146   2.595   0.832  0.0944  0.1721  0.0558
 7641TIP3    H147118   2.194   2.676   0.815 -0.7261  0.9688  1.3547
 7641TIP3    H247119   2.137   2.554   0.746 -1.3093  2.5040 -0.9903
 7642TIP3   OH247120   5.621   6.787   1.274 -0.3803 -0.3839  0.4962
 7642TIP3    H147121   5.640   6.881   1.267 -2.2493 -0.0433 -1.1524
 7642TIP3    H247122   5.598   6.773   1.366 -4.1002  1.7332  0.0736
 7643TIP3   OH247123   0.862   5.263   1.328 -0.2506  0.7073 -0.1414
 7643TIP3    H147124   0.790   5.233   1.384  0.1442  0.1997  0.0919
 7643TIP3    H247125   0.846   5.222   1.243 -1.2112  1.9819 -0.6195
 7644TIP3   OH247126   7.028   7.223   1.242 -0.3461  0.2418 -0.0417
 7644TIP3    H147127   7.115   7.189   1.221 -0.3957 -0.2477  0.5179
 7644TIP3    H247128   7.011   7.192   1.331  0.0992  2.6821  0.9759
 7645TIP3   OH247129   4.667   0.981   3.037 -0.4136  0.4158 -0.2847
 7645TIP3    H147130   4.631   1.037   3.106  1.0132  0.6044  0.3504
 7645TIP3    H247131   4.741   1.031   3.003  1.1325 -1.1790  0.5385
 7646TIP3   OH247132   1.924   3.577   1.656  0.1516  0.0597  0.8761
 7646TIP3    H147133   1.952   3.508   1.596 -1.1523  1.0260 -0.9503
 7646TIP3    H247134   1.984   3.649   1.640 -1.4380  1.0887 -0.9434
 7647TIP3   OH247135   1.892   0.875   1.633  0.2022  0.1308  0.2694
 7647TIP3    H147136   1.962   0.810   1.636 -0.7096 -0.8782  0.2677
 7647TIP3    H247137   1.881   0.895   1.540  2.3022  2.3715  0.3986
 7648TIP3   OH247138   1.512   3.468   1.316  0.5565 -0.3777 -0.1891
 7648TIP3    H147139   1.589   3.453   1.370  0.6563 -0.7826 -0.4400
 7648TIP3    H247140   1.511   3.563   1.302  0.7849 -0.3253  0.1396
 7649TIP3   OH247141   2.310   0.407   1.874  0.2690  0.2872 -0.6793
 7649TIP3    H147142   2.360   0.340   1.827 -1.1656 -0.3207 -1.3920
 7649TIP3    H247143   2.303   0.373   1.963  1.4103  0.5546 -0.4718
 7650TIP3   OH247144   2.039   6.026   1.091 -0.0995  0.4305  0.2214
 7650TIP3    H147145   1.997   5.940   1.100  0.5487  0.0236 -0.4206
 7650TIP3    H247146   2.099   6.014   1.017 -0.8573  1.7804 -0.6570
 7651TIP3   OH247147   2.783   3.876   2.137 -0.5313  0.3119 -0.1582
 7651TIP3    H147148   2.870   3.851   2.167  0.2411  0.1217 -2.3934
 7651TIP3    H247149   2.728   3.868   2.215  1.0166 -1.7037  0.8223
 7652TIP3   OH247150   7.571   4.700   1.309 -0.2153  0.0298  0.2933
 7652TIP3    H147151   7.506   4.762   1.340  1.2767  1.5011  0.6111
 7652TIP3    H247152   7.580   4.637   1.381  0.2081  1.0196  1.1277
 7653TIP3   OH247153   7.264   2.868   0.375 -0.3853  0.1170 -0.5291
 7653TIP3    H147154   7.355   2.862   0.343  0.2862  1.4512  1.0108
 7653TIP3    H247155   7.227   2.781   0.357  1.0774 -0.3387 -1.5193
 7654TIP3   OH247156   3.509   1.564   0.614  0.0064  0.3719 -0.2381
 7654TIP3    H147157   3.449   1.634   0.641 -0.5784 -0.8063  1.7471
 7654TIP3    H247158   3.560   1.545   0.692  0.8064 -0.7873 -1.0116
 7655TIP3   OH247159   1.760   4.920   2.154  0.2994  0.5181  0.0059
 7655TIP3    H147160   1.675   4.878   2.139  1.4882 -1.2533 -2.3254
 7655TIP3    H247161   1.785   4.891   2.242 -0.3403 -1.1700 -0.3209
 7656TIP3   OH247162   6.156   3.731   0.649 -0.0526 -0.1160 -0.0864
 7656TIP3    H147163   6.145   3.798   0.582 -2.5479 -1.4182 -1.1207
 7656TIP3    H247164   6.095   3.662   0.624  1.5273 -2.2778  1.5854
 7657TIP3   OH247165   6.208   6.454   1.781 -1.0652 -0.7826  0.4097
 7657TIP3    H147166   6.180   6.450   1.690 -3.8797  0.7544  1.0881
 7657TIP3    H247167   6.221   6.547   1.798  1.2965 -1.1901  1.1335
 7658TIP3   OH247168   0.524   3.791   1.744  0.0309  0.2014  0.1934
 7658TIP3    H147169   0.496   3.699   1.739  2.1396 -0.5239  0.7620
 7658TIP3    H247170   0.505   3.817   1.834  2.2345 -0.7081  0.9820
 7659TIP3   OH247171   3.626   6.043   2.679  0.0570 -0.1186  0.3381
 7659TIP3    H147172   3.677   6.069   2.756 -0.7532  2.2404  0.1743
 7659TIP3    H247173   3.671   5.966   2.645  1.5807 -0.0509  2.0564
 7660TIP3   OH247174   2.756   3.522   1.220  0.0289 -0.6451  0.4015
 7660TIP3    H147175   2.697   3.567   1.280  0.9428 -0.4338  1.1687
 7660TIP3    H247176   2.811   3.592   1.184 -0.0193 -0.8679 -0.1090
 7661TIP3   OH247177   7.284   1.157   0.804  0.6910 -0.0147  0.3062
 7661TIP3    H147178   7.240   1.166   0.720 -0.6804 -0.5666  0.9335
 7661TIP3    H247179   7.283   1.245   0.842 -0.8682 -0.2016  0.7656
 7662TIP3   OH247180   0.454   4.889   2.361 -0.6900 -0.4025  0.1629
 7662TIP3    H147181   0.538   4.891   2.314 -1.4357 -0.1666 -1.2237
 7662TIP3    H247182   0.466   4.950   2.434  0.4814 -0.7055  0.2536
 7663TIP3   OH247183   0.987   4.919   0.629  0.3432  0.0221  0.2932
 7663TIP3    H147184   1.034   4.921   0.712 -1.5939 -1.8637  1.5176
 7663TIP3    H247185   0.962   5.010   0.613  1.3890  0.5179  1.3670
 7664TIP3   OH247186   1.487   4.686   0.917  0.2430  0.4062 -0.3210
 7664TIP3    H147187   1.415   4.624   0.905  2.7256 -2.4704 -1.2420
 7664TIP3    H247188   1.512   4.676   1.009  1.4125 -0.8970 -0.7650
 7665TIP3   OH247189   7.149   2.378   0.501  0.1587 -0.6773 -0.1535
 7665TIP3    H147190   7.241   2.361   0.519 -0.2674  0.1642  3.9245
 7665TIP3    H247191   7.149   2.446   0.434  2.3487 -1.9083 -1.5299
 7666TIP3   OH247192   1.853   5.761   1.286 -0.4653 -0.2645  0.4444
 7666TIP3    H147193   1.768   5.796   1.259  0.9366  1.4885 -2.1792
 7666TIP3    H247194   1.898   5.837   1.323  0.4322 -0.8421  0.5470
 7667TIP3   OH247195   0.231   6.064   1.490  0.3924  0.6912 -0.6620
 7667TIP3    H147196   0.257   6.121   1.417  0.3430  0.6601 -0.7048
 7667TIP3    H247197   0.303   6.070   1.552  1.6513 -1.2477 -1.8273
 7668TIP3   OH247198   1.531   4.752   2.172 -0.6119  0.2015  0.4711
 7668TIP3    H147199   1.609   4.697   2.178 -0.1245  0.8381  0.0788
 7668TIP3    H247200   1.472   4.718   2.240 -0.1358 -0.5048  0.5364
 7669TIP3   OH247201   1.529   0.039   3.209  0.1181 -0.0670 -0.1915
 7669TIP3    H147202   1.581  -0.009   3.274 -0.2686 -0.0000  0.1698
 7669TIP3    H247203   1.508   0.122   3.252  0.4411  0.2687 -0.6627
 7670TIP3   OH247204   0.776   4.492   2.485  0.0503  0.0359  0.2947
 7670TIP3    H147205   0.730   4.499   2.401  0.7189  1.3275  0.0226
 7670TIP3    H247206   0.717   4.439   2.539  0.3656 -2.2770 -1.4826
 7671TIP3   OH247207   1.950   2.958   2.115 -0.5795  0.2255  0.3128
 7671TIP3    H147208   1.964   2.980   2.023 -0.7050 -0.5983  0.0876
 7671TIP3    H247209   1.986   2.870   2.124  0.8857  0.8806  1.4373
 7672TIP3   OH247210   4.577   1.959   2.536  0.1774  0.1413 -0.1717
 7672TIP3    H147211   4.599   2.046   2.504 -1.2702  0.7827  0.4669
 7672TIP3    H247212   4.525   1.920   2.465  1.1292 -0.3559 -0.6072
 7673TIP3   OH247213   5.631   5.927   0.846  0.1437 -0.6741  0.4654
 7673TIP3    H147214   5.715   5.881   0.846  1.0250  0.8454  1.0211
 7673TIP3    H247215   5.580   5.884   0.915 -0.8227 -3.6813 -1.9032
 7674TIP3   OH247216   4.646   3.785   1.343  0.2270 -0.0216  0.4035
 7674TIP3    H147217   4.603   3.718   1.395  2.3016 -0.7590  1.2564
 7674TIP3    H247218   4.647   3.862   1.399 -0.2421  0.0925  0.2584
 7675TIP3   OH247219   7.494   2.672   1.387  0.4833  0.5069 -0.1283
 7675TIP3    H147220   7.487   2.756   1.341  0.8292 -0.2057 -1.5688
 7675TIP3    H247221   7.462   2.608   1.324  0.0094 -0.4257  1.0369
 7676TIP3   OH247222   0.747   1.326   0.511  0.1733  0.0094  0.1078
 7676TIP3    H147223   0.655   1.337   0.487 -0.3574 -0.4954  1.7440
 7676TIP3    H247224   0.784   1.273   0.441 -0.8707 -0.0584 -0.4130
 7677TIP3   OH247225   7.550   3.497   0.770  0.6676 -0.4563 -0.0543
 7677TIP3    H147226   7.534   3.441   0.845 -0.6499  0.3141  0.2682
 7677TIP3    H247227   7.547   3.438   0.694 -0.1558 -0.9058  0.3204
 7678TIP3   OH247228   0.103   3.322   1.825 -0.1736 -0.1689  0.2005
 7678TIP3    H147229   0.017   3.339   1.862 -0.7892  0.8042 -1.6154
 7678TIP3    H247230   0.116   3.389   1.758  1.9856 -0.3058  0.3879
 7679TIP3   OH247231   1.974   0.064   2.170 -0.3431  0.2600  0.5430
 7679TIP3    H147232   2.061   0.082   2.136 -0.4396 -1.2099 -0.6227
 7679TIP3    H247233   1.988   0.034   2.260  0.5750 -1.6231 -0.1637
 7680TIP3   OH247234   1.651   1.392   3.066 -0.5765 -0.1262  0.1182
 7680TIP3    H147235   1.704   1.449   3.011  0.1489 -0.9652 -0.0738
 7680TIP3    H247236   1.672   1.303   3.037  0.8267 -0.6917  2.5554
 7681TIP3   OH247237   1.447   2.453   0.595 -0.3890  0.1227 -0.0045
 7681TIP3    H147238   1.425   2.534   0.642  0.4620 -0.3537  1.2703
 7681TIP3    H247239   1.511   2.480   0.529 -1.6391  0.8123 -0.9716
 7682TIP3   OH247240   7.124   0.987   2.965 -0.0026 -0.1210  0.3019
 7682TIP3    H147241   7.093   0.897   2.978 -0.1485 -0.4630 -1.9320
 7682TIP3    H247242   7.045   1.037   2.945  0.2442  0.1804  0.0679
 7683TIP3   OH247243   0.426   3.878   2.742 -0.1513  0.6151 -0.0559
 7683TIP3    H147244   0.520   3.892   2.737 -0.3417  1.9848 -0.3722
 7683TIP3    H247245   0.395   3.945   2.803 -1.0315  0.8643 -0.7554
 7684TIP3   OH247246   6.682   2.369   2.112  0.0484  0.7260  0.0583
 7684TIP3    H147247   6.738   2.292   2.120  1.4104  1.7769  1.2870
 7684TIP3    H247248   6.595   2.338   2.138  0.5097 -0.4509  0.2677
 7685TIP3   OH247249   0.553   1.000   2.590  0.0574  0.3899 -0.1171
 7685TIP3    H147250   0.529   1.091   2.608  0.0131  0.4277 -0.3621
 7685TIP3    H247251   0.521   0.984   2.501  0.9678  0.4483 -0.4628
 7686TIP3   OH247252   1.153   7.052   0.961  0.5917 -0.5385 -0.1560
 7686TIP3    H147253   1.182   7.110   0.890  0.6833 -0.8710 -0.3944
 7686TIP3    H247254   1.232   7.004   0.986  0.5394 -0.4833  0.1124
 7687TIP3   OH247255   1.119   7.516   1.505  0.2176 -0.5136 -0.1628
 7687TIP3    H147256   1.042   7.572   1.496 -0.2006 -0.8697  0.9517
 7687TIP3    H247257   1.093   7.431   1.471  0.5100 -0.3205 -0.8800
 7688TIP3   OH247258   1.575   6.731   0.990  0.5686  0.4461  0.2477
 7688TIP3    H147259   1.576   6.787   1.067  1.4532  0.1429  0.4659
 7688TIP3    H247260   1.636   6.772   0.929 -1.2026  1.4959 -0.9059
 7689TIP3   OH247261   0.826   7.005   1.878  0.0568 -0.3345 -0.2993
 7689TIP3    H147262   0.906   7.054   1.858  0.7134 -1.0806  0.4574
 7689TIP3    H247263   0.844   6.916   1.849 -0.1232 -0.7334  0.7742
 7690TIP3   OH247264   3.618   5.143   2.014 -0.2280 -0.6641  0.3491
 7690TIP3    H147265   3.678   5.069   2.008 -0.9927 -1.2031 -1.0001
 7690TIP3    H247266   3.575   5.133   2.099 -1.3782 -2.6356 -0.3898
 7691TIP3   OH247267   2.652   2.368   1.307  0.1866 -0.2295  0.1723
 7691TIP3    H147268   2.705   2.358   1.229  0.2555 -0.6323  0.2711
 7691TIP3    H247269   2.620   2.459   1.303 -2.6770 -1.2015 -2.1340
 7692TIP3   OH247270   3.543   0.244   3.140  0.0053  0.0422  0.2601
 7692TIP3    H147271   3.489   0.260   3.218  0.7460  0.2915  0.7342
 7692TIP3    H247272   3.584   0.159   3.157  0.6294  0.3692  0.4228
 7693TIP3   OH247273   7.132   5.042   7.802 -0.4121 -1.0346 -0.0775
 7693TIP3    H147274   7.214   4.996   7.783  0.0681 -0.2601  0.0641
 7693TIP3    H247275   7.156   5.108   7.867 -0.1915  2.0700 -3.0800
 7694TIP3   OH247276   4.251   6.604   1.031  0.2364  0.7459  0.2870
 7694TIP3    H147277   4.172   6.551   1.014  0.7669  0.1326 -0.3169
 7694TIP3    H247278   4.323   6.543   1.018  0.8531  1.5394 -0.0566
 7695TIP3   OH247279   3.750   1.520   2.713  0.4287  0.3638 -0.2436
 7695TIP3    H147280   3.815   1.483   2.653  1.6683  0.4011  1.0166
 7695TIP3    H247281   3.748   1.613   2.692  0.9952  0.4091 -0.1107
 7696TIP3   OH247282   0.385   0.139   1.993  0.2506 -0.5294  0.5775
 7696TIP3    H147283   0.468   0.177   1.963 -0.6738  1.7921  0.7630
 7696TIP3    H247284   0.343   0.209   2.043 -1.9151 -1.5662  0.3280
 7697TIP3   OH247285   0.187   2.146   0.775 -0.6083  0.2531  0.8903
 7697TIP3    H147286   0.136   2.192   0.708  0.4153  0.9407  0.5640
 7697TIP3    H247287   0.167   2.191   0.857  0.1422  1.1188  0.6224
 7698TIP3   OH247288   6.707   1.203   0.602  0.5826 -0.1844  0.4066
 7698TIP3    H147289   6.787   1.151   0.612  0.6038 -0.1157  0.6018
 7698TIP3    H247290   6.666   1.170   0.522  0.5940 -0.5026  0.5319
 7699TIP3   OH247291   2.392   5.104   0.669 -0.1248 -0.0184  0.1408
 7699TIP3    H147292   2.459   5.036   0.668  1.0371  1.0662  0.9945
 7699TIP3    H247293   2.430   5.175   0.720 -1.1212  1.4620 -1.0759
 7700TIP3   OH247294   4.732   5.443   1.450  0.6841  0.1424 -0.0991
 7700TIP3    H147295   4.817   5.425   1.490  1.1840  1.4938 -0.4798
 7700TIP3    H247296   4.753   5.463   1.358 -0.2325 -1.0975 -0.6006
 7701TIP3   OH247297   0.131   3.750   1.739  0.1964 -0.8957 -0.2691
 7701TIP3    H147298   0.169   3.667   1.710  2.6407 -0.1980  0.6803
 7701TIP3    H247299   0.154   3.812   1.670 -0.6666 -0.7599 -0.4467
 7702TIP3   OH247300   2.915   1.315   2.542 -0.2384 -0.8280  0.5966
 7702TIP3    H147301   2.847   1.369   2.582  0.2645 -1.1115  1.8585
 7702TIP3    H247302   2.890   1.310   2.450 -1.5615 -0.3781  0.9137
 7703TIP3   OH247303   1.749   3.968   3.272  0.2064 -0.7289 -0.0341
 7703TIP3    H147304   1.746   3.927   3.186  0.5434  1.9276 -1.4081
 7703TIP3    H247305   1.829   3.932   3.312  0.8212 -0.9690 -1.4020
 7704TIP3   OH247306   3.074   4.627   2.104 -0.4911 -0.1843 -0.7028
 7704TIP3    H147307   3.059   4.661   2.192  0.6396  1.9275 -1.2555
 7704TIP3    H247308   3.004   4.664   2.051 -0.1915 -0.0360 -1.0031
 7705TIP3   OH247309   4.966   0.682   2.621 -0.0327  0.2680  0.7924
 7705TIP3    H147310   4.952   0.764   2.668 -1.4471  2.6094 -3.1973
 7705TIP3    H247311   4.888   0.630   2.638 -0.3658  0.9047  1.2385
 7706TIP3   OH247312   1.991   4.494   2.237  0.5653 -0.8707 -0.3294
 7706TIP3    H147313   1.994   4.443   2.317  0.2023 -0.5487 -0.1047
 7706TIP3    H247314   2.081   4.525   2.224  0.4492 -0.1579  0.4671
 7707TIP3   OH247315   7.096   4.114   0.743 -0.1056  0.2933  0.0629
 7707TIP3    H147316   7.002   4.130   0.735 -0.1113  0.0290 -0.4599
 7707TIP3    H247317   7.116   4.129   0.835 -0.5199  1.1073  0.0289
 7708TIP3   OH247318   2.133   3.385   1.336 -0.1513 -0.3879  0.2966
 7708TIP3    H147319   2.155   3.456   1.397 -2.2284  0.8823 -0.3135
 7708TIP3    H247320   2.077   3.326   1.388 -1.0083  0.1158 -0.0234
 7709TIP3   OH247321   3.501   5.282   0.788 -0.8987  0.2443 -0.0514
 7709TIP3    H147322   3.426   5.331   0.755  0.3208  1.4309 -1.1424
 7709TIP3    H247323   3.462   5.208   0.836 -2.7418  0.6451 -0.8614
 7710TIP3   OH247324   7.281   3.632   1.740  0.3223 -0.0903 -0.5153
 7710TIP3    H147325   7.329   3.651   1.659  0.5404 -1.2139 -0.6566
 7710TIP3    H247326   7.236   3.550   1.723 -1.1972  0.6285 -0.1559
 7711TIP3   OH247327   2.432   7.664   1.197 -0.3645  0.8156  0.1728
 7711TIP3    H147328   2.375   7.609   1.250  0.1788 -1.7838 -1.7454
 7711TIP3    H247329   2.463   7.732   1.257 -2.9484  0.4641  2.0556
 7712TIP3   OH247330   6.283   3.116   0.403  0.3071 -0.7262 -0.3235
 7712TIP3    H147331   6.201   3.136   0.359  0.1316 -0.5278  0.0828
 7712TIP3    H247332   6.315   3.201   0.433  0.0776 -0.9275  0.5220
 7713TIP3   OH247333   3.348   3.423   1.082  0.3289 -0.1528 -0.5261
 7713TIP3    H147334   3.353   3.427   0.987 -1.4862 -0.8864 -0.6877
 7713TIP3    H247335   3.414   3.486   1.112 -1.1290  2.4291 -2.3192
 7714TIP3   OH247336   1.991   4.077   2.333  0.1891 -0.5711  0.2791
 7714TIP3    H147337   1.949   3.999   2.297 -1.4787 -0.4184  1.7743
 7714TIP3    H247338   1.953   4.150   2.284  0.1121 -0.5572  0.3591
 7715TIP3   OH247339   3.091   6.329   2.485 -0.6681  0.1684  0.1445
 7715TIP3    H147340   3.128   6.402   2.435  0.2225 -1.0568 -1.0500
 7715TIP3    H247341   3.147   6.323   2.562 -0.1775  0.1893 -0.2021
 7716TIP3   OH247342   6.492   1.967   2.626  0.1945  0.2391 -0.6867
 7716TIP3    H147343   6.460   1.964   2.536  1.5080  0.2397 -1.1767
 7716TIP3    H247344   6.431   2.025   2.671 -2.3469 -2.1816 -0.7670
 7717TIP3   OH247345   1.578   2.980   1.675 -0.4943 -0.4281  0.3304
 7717TIP3    H147346   1.495   3.024   1.695  0.3542  0.7755  1.4074
 7717TIP3    H247347   1.620   2.969   1.760  0.6272 -0.6409 -0.2287
 7718TIP3   OH247348   3.880   4.051   1.201  0.3536 -0.4866 -0.0854
 7718TIP3    H147349   3.832   4.045   1.284  1.0517 -0.4739  0.3272
 7718TIP3    H247350   3.818   4.093   1.141 -1.5063 -3.6171 -0.5988
 7719TIP3   OH247351   0.738   4.866   1.939 -0.2803 -0.3718  0.3307
 7719TIP3    H147352   0.654   4.821   1.948 -0.2911 -0.1890  1.2714
 7719TIP3    H247353   0.740   4.929   2.011  1.0476 -0.9870  0.8718
 7720TIP3   OH247354   2.621   5.199   2.640 -0.5768  0.0517  0.0839
 7720TIP3    H147355   2.543   5.254   2.652 -1.1266 -0.9245  1.1850
 7720TIP3    H247356   2.674   5.215   2.719 -1.1635 -1.6189  0.8617
 7721TIP3   OH247357   2.520   3.308   2.443 -1.3273 -0.3595  0.7780
 7721TIP3    H147358   2.604   3.270   2.470  0.0889  0.7493 -1.7172
 7721TIP3    H247359   2.456   3.269   2.503  0.7446 -2.3652  1.8635
 7722TIP3   OH247360   2.012   6.860   2.719  0.1103 -0.0932 -0.0874
 7722TIP3    H147361   1.925   6.823   2.715 -0.0855  0.2568  0.6756
 7722TIP3    H247362   2.030   6.870   2.813 -0.5680  3.3234 -0.1883
 7723TIP3   OH247363   6.691   5.979   1.457  0.7265  0.4679 -0.4513
 7723TIP3    H147364   6.649   5.956   1.540  1.5051  1.2173  0.1707
 7723TIP3    H247365   6.723   5.896   1.422 -0.2375  0.0447 -0.3651
 7724TIP3   OH247366   6.797   4.887   0.559  0.0215 -0.1537  0.5272
 7724TIP3    H147367   6.802   4.972   0.516 -0.7826  0.0178  0.7617
 7724TIP3    H247368   6.712   4.887   0.603  0.5343 -0.5843  1.5547
 7725TIP3   OH247369   2.967   3.372   1.850  0.1041 -0.0237  0.4849
 7725TIP3    H147370   2.971   3.437   1.781  2.2900 -1.3679 -0.7717
 7725TIP3    H247371   2.900   3.310   1.821  1.2988 -0.8078 -0.7124
 7726TIP3   OH247372   3.488   5.030   0.940  0.7509  0.0834 -0.6324
 7726TIP3    H147373   3.564   5.070   0.982  1.9933 -0.5246 -2.2016
 7726TIP3    H247374   3.495   4.937   0.962 -0.1388  0.1696  0.0692
 7727TIP3   OH247375   6.712   6.013   3.123 -0.0342  0.4692  0.1332
 7727TIP3    H147376   6.728   5.918   3.125 -0.0045  0.4606 -0.5619
 7727TIP3    H247377   6.776   6.047   3.061 -1.5115  0.6547 -1.3307
 7728TIP3   OH247378   1.902   7.021   1.120 -0.3071 -0.0626 -0.2309
 7728TIP3    H147379   1.926   7.072   1.198 -1.3248  0.9457 -0.5497
 7728TIP3    H247380   1.856   6.945   1.155 -1.2717  0.6726  0.1578
 7729TIP3   OH247381   5.470   1.707   1.362 -0.5343 -0.0596 -0.0051
 7729TIP3    H147382   5.455   1.692   1.269 -1.1217 -1.3940  0.2902
 7729TIP3    H247383   5.505   1.624   1.394 -0.0832  0.4724  0.9229
 7730TIP3   OH247384   1.737   2.944   1.911  0.2484  0.1156  0.1909
 7730TIP3    H147385   1.768   2.873   1.968 -3.0346 -1.5484  0.1496
 7730TIP3    H247386   1.711   3.014   1.970  1.5632  0.4924  0.3561
 7731TIP3   OH247387   2.406   2.596   0.457  0.4752 -0.0662  0.4769
 7731TIP3    H147388   2.473   2.643   0.409  1.6899 -0.6417  1.5295
 7731TIP3    H247389   2.445   2.510   0.476 -0.8895 -0.7452  0.3738
 7732TIP3   OH247390   6.444   5.071   3.280  1.0498 -0.2801  0.0136
 7732TIP3    H147391   6.517   5.074   3.342  2.4345  0.7274 -1.5809
 7732TIP3    H247392   6.437   5.160   3.247 -0.4015 -0.5459 -0.4746
 7733TIP3   OH247393   4.372   6.756   0.383 -0.7619  0.3151 -0.1212
 7733TIP3    H147394   4.362   6.701   0.305 -1.6404 -1.5451  1.2293
 7733TIP3    H247395   4.466   6.767   0.393 -0.6229  0.1825 -1.1568
 7734TIP3   OH247396   4.670   3.237   2.250 -0.4692  0.2265  0.0158
 7734TIP3    H147397   4.644   3.315   2.299 -4.9871 -1.2713  0.4042
 7734TIP3    H247398   4.644   3.256   2.159 -0.2018 -0.2754 -0.1711
 7735TIP3   OH247399   2.509   6.903   0.988 -0.7963 -0.0268 -0.2772
 7735TIP3    H147400   2.517   6.865   0.901 -1.1250  0.0864 -0.3594
 7735TIP3    H247401   2.415   6.912   1.002 -0.7476 -0.1172  0.1221
 7736TIP3   OH247402   7.042   6.931   2.427  0.4374 -0.2091  0.0639
 7736TIP3    H147403   6.997   6.867   2.373  0.5352  1.3485 -1.9730
 7736TIP3    H247404   7.030   6.900   2.517 -0.2320 -2.5732 -0.7837
 7737TIP3   OH247405   2.790   3.369   0.998 -0.3859  0.2939  0.1174
 7737TIP3    H147406   2.801   3.442   1.059  1.4301 -1.1176  1.6538
 7737TIP3    H247407   2.696   3.358   0.990 -0.6923  1.3755  1.6636
 7738TIP3   OH247408   4.844   4.359   2.153  0.0630 -0.4190 -0.1220
 7738TIP3    H147409   4.800   4.283   2.116  0.5097 -0.4069 -0.6793
 7738TIP3    H247410   4.780   4.396   2.214 -0.0586 -1.3815  0.3467
 7739TIP3   OH247411   4.945   4.367   1.381 -0.1857  0.6370 -0.0111
 7739TIP3    H147412   4.869   4.404   1.337 -0.9650 -0.3279  0.4781
 7739TIP3    H247413   4.960   4.283   1.337  1.0301  1.1059 -0.5471
 7740TIP3   OH247414   5.663   4.533   2.640  0.3041 -0.6548  0.1043
 7740TIP3    H147415   5.716   4.520   2.719 -0.2995  0.0370  0.6494
 7740TIP3    H247416   5.714   4.594   2.587 -0.0836  0.3188  0.8030
 7741TIP3   OH247417   3.018   2.795   2.928  0.5145  0.0720 -0.5406
 7741TIP3    H147418   3.016   2.700   2.916  0.4820  0.0900 -0.6801
 7741TIP3    H247419   3.018   2.808   3.023  0.4716 -0.0662 -0.5228
 7742TIP3   OH247420   6.568   5.792   3.317  0.2333  0.3385  0.4860
 7742TIP3    H147421   6.535   5.828   3.400 -0.4607  0.8694 -0.0088
 7742TIP3    H247422   6.663   5.788   3.330  0.0870 -0.1642  1.5283
 7743TIP3   OH247423   7.134   3.840   0.965 -0.1977 -0.3593  0.2115
 7743TIP3    H147424   7.159   3.819   0.875 -0.5317 -0.7667  0.2098
 7743TIP3    H247425   7.038   3.834   0.965 -0.1416 -1.4664  0.8541
 7744TIP3   OH247426   4.201   4.383   0.705  0.2694  0.1390  0.2262
 7744TIP3    H147427   4.228   4.403   0.795  1.2123 -0.4319  0.0754
 7744TIP3    H247428   4.214   4.465   0.657 -1.3667  0.8031  0.8444
 7745TIP3   OH247429   4.049   2.040   2.090  0.2778 -0.5462 -0.4023
 7745TIP3    H147430   4.011   1.957   2.120  1.7760 -0.2133  2.9672
 7745TIP3    H247431   4.006   2.106   2.144  2.1618  0.3076  0.1610
 7746TIP3   OH247432   1.704   0.687   1.746 -0.2556  0.9014 -0.0546
 7746TIP3    H147433   1.739   0.639   1.821  0.7575  0.7187 -0.6241
 7746TIP3    H247434   1.769   0.754   1.727  0.7285 -0.5682 -2.2404
 7747TIP3   OH247435   7.155   4.104   1.353 -0.0042 -0.1994  0.3021
 7747TIP3    H147436   7.163   4.024   1.302 -0.8681  0.2054 -0.5140
 7747TIP3    H247437   7.236   4.152   1.336 -0.2902 -0.0526 -0.7597
 7748TIP3   OH247438   0.957   2.888   0.646 -0.4026 -0.4201  0.3580
 7748TIP3    H147439   1.037   2.921   0.607 -0.1308 -1.0145  0.4002
 7748TIP3    H247440   0.911   2.966   0.678  0.1113 -0.0743  0.2525
 7749TIP3   OH247441   2.232   7.098   0.565 -1.2148  0.3005 -0.0749
 7749TIP3    H147442   2.235   7.040   0.489  0.7770 -0.1005  0.2499
 7749TIP3    H247443   2.239   7.186   0.528  3.4353  0.0256 -0.3702
 7750TIP3   OH247444   4.275   2.926   1.615 -0.1203 -0.0520 -0.4637
 7750TIP3    H147445   4.350   2.980   1.640 -0.9534  1.3449 -0.9064
 7750TIP3    H247446   4.209   2.988   1.584 -1.1521 -1.3167 -0.9037
 7751TIP3   OH247447   6.524   5.786   1.276 -0.8649 -0.2454 -0.3297
 7751TIP3    H147448   6.478   5.768   1.194  0.3823 -2.6058 -0.6026
 7751TIP3    H247449   6.610   5.819   1.249 -0.9259  0.2539  0.0694
 7752TIP3   OH247450   0.739   7.010   2.229 -0.1565 -1.2048  0.4578
 7752TIP3    H147451   0.794   6.932   2.223 -0.0847 -1.0560 -2.3149
 7752TIP3    H247452   0.764   7.052   2.311  1.5905 -2.7924  0.7831
 7753TIP3   OH247453   4.917   6.477   2.344 -1.1379 -0.1361  0.2569
 7753TIP3    H147454   4.963   6.550   2.386 -0.0270  0.1961 -1.4378
 7753TIP3    H247455   4.883   6.514   2.263  0.3373 -1.6942 -1.1576
 7754TIP3   OH247456   7.175   7.455   1.380  0.2652 -0.0063  0.2250
 7754TIP3    H147457   7.187   7.444   1.475  0.3129 -0.8807  0.1224
 7754TIP3    H247458   7.123   7.379   1.354  0.1987  0.2681 -0.4447
 7755TIP3   OH247459   5.530   0.180   2.500  0.2960 -0.1067  0.4418
 7755TIP3    H147460   5.624   0.172   2.518  1.5180  2.6515 -3.3556
 7755TIP3    H247461   5.509   0.101   2.449  0.8844 -0.1366  0.2396
 7756TIP3   OH247462   6.929   4.014   1.594 -0.6217  0.5334 -0.7071
 7756TIP3    H147463   6.865   3.994   1.662  0.4847  0.4384  0.3529
 7756TIP3    H247464   6.979   4.088   1.628 -0.5333  0.9828 -1.7634
 7757TIP3   OH247465   2.970   3.343   2.776  0.0597 -0.1720  0.3503
 7757TIP3    H147466   2.930   3.415   2.727 -1.6347 -0.3294  1.3864
 7757TIP3    H247467   3.038   3.385   2.829  0.0295  0.4349 -0.0793
 7758TIP3   OH247468   1.117   1.717   2.071  0.0212 -0.0373 -0.0628
 7758TIP3    H147469   1.103   1.806   2.102 -0.5860 -0.7078  1.7012
 7758TIP3    H247470   1.030   1.689   2.040 -0.0949 -0.4577  0.6291
 7759TIP3   OH247471   0.146   6.933   0.761  0.1811 -0.1766  0.3528
 7759TIP3    H147472   0.206   6.876   0.809  1.6583 -0.4364 -1.6416
 7759TIP3    H247473   0.203   7.002   0.724 -0.9620  0.3829 -0.4459
 7760TIP3   OH247474   1.241   6.242   1.524 -0.1005  0.2304 -0.8142
 7760TIP3    H147475   1.276   6.301   1.457  0.7083  0.1797 -0.4552
 7760TIP3    H247476   1.310   6.240   1.591 -0.1188 -1.1315 -0.8209
 7761TIP3   OH247477   0.331   6.384   1.782 -0.3723 -0.4573  0.2776
 7761TIP3    H147478   0.358   6.293   1.798  2.0808  0.2287  0.5578
 7761TIP3    H247479   0.387   6.435   1.841 -0.8457  1.3145 -0.7567
 7762TIP3   OH247480   2.386   1.107   3.519  0.0304  0.2697 -0.2327
 7762TIP3    H147481   2.317   1.060   3.473 -0.4889  1.3621 -0.6078
 7762TIP3    H247482   2.453   1.041   3.538 -1.2767 -0.8957  0.4875
 7763TIP3   OH247483   4.181   0.449   3.153 -0.5646  0.3809 -0.1815
 7763TIP3    H147484   4.090   0.430   3.130  0.0160 -1.8328 -0.8838
 7763TIP3    H247485   4.218   0.488   3.074 -0.0764 -1.8554 -1.1230
 7764TIP3   OH247486   3.357   2.652   1.376  0.3070 -0.4309 -0.2013
 7764TIP3    H147487   3.326   2.562   1.381  0.3995 -0.6070 -2.2577
 7764TIP3    H247488   3.405   2.665   1.458 -1.4275 -1.5548  1.0545
 7765TIP3   OH247489   4.601   1.444   2.178 -0.3619  0.4062 -0.2962
 7765TIP3    H147490   4.660   1.495   2.122  0.6911 -0.4812 -0.0192
 7765TIP3    H247491   4.552   1.389   2.117  2.8638 -2.7710 -0.3263
 7766TIP3   OH247492   5.714   7.131   1.916 -0.9247 -0.4979  0.1456
 7766TIP3    H147493   5.648   7.148   1.983 -1.4960  1.5182 -0.8559
 7766TIP3    H247494   5.698   7.197   1.849  1.9472 -0.0874 -0.2781
 7767TIP3   OH247495   3.519   1.722   2.293  0.1478 -0.4539 -0.1672
 7767TIP3    H147496   3.577   1.653   2.261  1.9146  0.7250  0.3853
 7767TIP3    H247497   3.576   1.798   2.305 -0.9675  0.0399  2.8144
 7768TIP3   OH247498   2.166   6.123   2.785 -0.4954 -0.2357  0.1972
 7768TIP3    H147499   2.084   6.108   2.832 -0.6745 -0.0405 -0.0540
 7768TIP3    H247500   2.233   6.090   2.845 -0.7337 -0.1417  0.5247
 7769TIP3   OH247501   7.282   5.016   3.264 -0.1484  0.7796  0.0080
 7769TIP3    H147502   7.224   5.092   3.261 -0.7521  0.3053 -1.0186
 7769TIP3    H247503   7.223   4.941   3.255  0.5823  0.2697 -0.6867
 7770TIP3   OH247504   5.793   1.326   3.219 -0.9938 -0.1494  0.3327
 7770TIP3    H147505   5.704   1.316   3.185 -1.4835  1.4537  1.0450
 7770TIP3    H247506   5.848   1.333   3.141 -1.6996  0.4718 -0.1157
 7771TIP3   OH247507   4.300   3.789   1.477  0.4962  0.0471  0.5660
 7771TIP3    H147508   4.226   3.741   1.514  1.0125  0.0945  1.7178
 7771TIP3    H247509   4.308   3.757   1.387  0.1502 -1.2243  0.9706
 7772TIP3   OH247510   0.908   1.255   2.739  0.1694  0.2861  0.2405
 7772TIP3    H147511   0.929   1.258   2.832  1.3198 -0.2727  0.0234
 7772TIP3    H247512   0.839   1.319   2.727  1.2860  1.7245  1.1635
 7773TIP3   OH247513   4.524   1.197   1.972 -0.0245  0.1409  0.4710
 7773TIP3    H147514   4.589   1.128   1.963  1.2658  1.2113  1.2133
 7773TIP3    H247515   4.477   1.177   2.053  0.3567  0.1460  0.6918
 7774TIP3   OH247516   3.180   0.387   0.662  0.2472 -0.5768  0.2643
 7774TIP3    H147517   3.268   0.353   0.678 -0.4050 -1.6855  1.6453
 7774TIP3    H247518   3.192   0.482   0.656  1.5328 -0.7101  0.4586
 7775TIP3   OH247519   0.838   4.170   2.669 -0.1440  0.0036  0.4018
 7775TIP3    H147520   0.756   4.219   2.674 -0.3131  0.0056 -1.6247
 7775TIP3    H247521   0.897   4.215   2.730 -1.3215  0.6422  1.0951
 7776TIP3   OH247522   4.937   2.636   1.344 -0.2035  0.2345 -0.5699
 7776TIP3    H147523   4.863   2.620   1.402  0.7742 -1.2750  0.3348
 7776TIP3    H247524   4.926   2.727   1.315 -1.8816  0.3341  0.2620
 7777TIP3   OH247525   1.952   1.292   2.164 -0.4914 -0.0582  0.0737
 7777TIP3    H147526   1.956   1.387   2.177  1.0076  0.0355 -0.8092
 7777TIP3    H247527   1.858   1.272   2.167 -0.7439  1.1674  1.9988
 7778TIP3   OH247528   2.229   3.869   3.121 -0.0007 -0.1166  0.1251
 7778TIP3    H147529   2.154   3.926   3.105  1.1464  0.9261 -1.8551
 7778TIP3    H247530   2.197   3.781   3.101 -1.0637  0.1297  0.6754
 7779TIP3   OH247531   0.756   1.014   0.914  0.0369  0.3590  0.1090
 7779TIP3    H147532   0.820   1.078   0.943 -0.7592  0.8465  0.8521
 7779TIP3    H247533   0.681   1.066   0.886 -0.3316 -0.2203 -0.0150
 7780TIP3   OH247534   7.570   5.757   1.793 -0.4952  0.1395  0.1032
 7780TIP3    H147535   7.645   5.816   1.785 -1.2477  1.0387 -0.6329
 7780TIP3    H247536   7.554   5.750   1.887 -0.3236  1.0429  0.2132
 7781TIP3   OH247537   0.307   5.885   2.535  0.0139 -0.2546 -0.4827
 7781TIP3    H147538   0.252   5.953   2.576 -1.2582 -0.8156 -1.1997
 7781TIP3    H247539   0.340   5.834   2.609  1.4566  1.4527  0.1129
 7782TIP3   OH247540   1.428   5.106   2.382 -0.4713  0.2658 -0.3179
 7782TIP3    H147541   1.357   5.162   2.349 -2.0885 -2.1977 -1.3372
 7782TIP3    H247542   1.499   5.117   2.318 -1.2042  0.3018 -1.1401
 7783TIP3   OH247543   0.535   4.420   2.346 -0.0818  0.5071 -0.3724
 7783TIP3    H147544   0.529   4.367   2.266 -0.6411  0.2694 -0.1844
 7783TIP3    H247545   0.568   4.504   2.317  2.1773 -0.3521 -0.4815
 7784TIP3   OH247546   6.231   4.449   1.588  0.1429  0.1731  0.5958
 7784TIP3    H147547   6.321   4.432   1.616  0.2183  0.6368  0.6420
 7784TIP3    H247548   6.217   4.542   1.607 -0.3969  0.0708  0.7333
 7785TIP3   OH247549   5.038   6.709   2.175 -0.1853  0.0290  0.3149
 7785TIP3    H147550   4.950   6.675   2.158 -0.9188  0.4631  2.7348
 7785TIP3    H247551   5.058   6.765   2.100 -1.9405 -0.1331 -0.3233
 7786TIP3   OH247552   3.003   2.531   3.064  0.0365  0.9669  0.4369
 7786TIP3    H147553   3.074   2.469   3.051 -1.4945 -0.8230  0.0965
 7786TIP3    H247554   3.026   2.578   3.143  1.0936 -0.3276  0.9337
 7787TIP3   OH247555   0.155   2.722   0.422 -0.0388 -0.1463 -0.0085
 7787TIP3    H147556   0.185   2.639   0.459 -2.4516 -0.7021  0.9024
 7787TIP3    H247557   0.141   2.778   0.499 -0.2049  0.4684 -0.4838
 7788TIP3   OH247558   1.735   4.576   2.172 -0.1975 -0.1200 -0.3119
 7788TIP3    H147559   1.681   4.502   2.201 -0.6968 -0.4476 -1.9778
 7788TIP3    H247560   1.824   4.552   2.197 -0.6066 -0.2715  1.0991
 7789TIP3   OH247561   6.288   6.668   2.258 -0.1755 -0.0674  0.1833
 7789TIP3    H147562   6.250   6.601   2.202  1.7503 -1.4463  0.4710
 7789TIP3    H247563   6.247   6.750   2.228 -0.2227 -0.9274 -2.2740
 7790TIP3   OH247564   6.642   0.052   2.544 -0.8759 -0.5148 -0.0658
 7790TIP3    H147565   6.680  -0.013   2.603 -1.0883 -1.2733 -0.7361
 7790TIP3    H247566   6.692   0.043   2.463 -1.2126 -0.1676 -0.3180
 7791TIP3   OH247567   2.134   5.459   1.701 -0.1151  0.3884  0.2111
 7791TIP3    H147568   2.194   5.450   1.775  0.2598  0.3517 -0.0947
 7791TIP3    H247569   2.140   5.552   1.677 -0.9715  0.6169  0.8395
 7792TIP3   OH247570   5.037   5.337   2.037  0.0083  0.4049  0.5369
 7792TIP3    H147571   4.977   5.300   1.973  0.5218 -1.7973  1.2525
 7792TIP3    H247572   4.981   5.393   2.092 -0.9951  0.0161 -0.0598
 7793TIP3   OH247573   0.578   2.175   2.930  0.3280 -0.6184 -0.1033
 7793TIP3    H147574   0.587   2.169   2.835 -0.4001 -1.4633 -0.1290
 7793TIP3    H247575   0.647   2.236   2.957 -0.2397  0.6158 -1.3052
 7794TIP3   OH247576   2.177   6.434   1.861 -0.0851  0.0902  0.3249
 7794TIP3    H147577   2.249   6.372   1.868  0.7104  1.0168  0.4686
 7794TIP3    H247578   2.165   6.469   1.949 -0.4766  0.2114  0.2285
 7795TIP3   OH247579   1.666   0.072   2.976  0.6036 -0.5800  0.4697
 7795TIP3    H147580   1.597   0.104   2.918  0.4054 -1.1764  0.3742
 7795TIP3    H247581   1.647   0.113   3.061 -0.0195 -0.9334  0.5091
 7796TIP3   OH247582   2.311   6.430   3.218  0.2518  0.2747 -0.5701
 7796TIP3    H147583   2.230   6.393   3.181  0.0631 -0.6679  0.7212
 7796TIP3    H247584   2.380   6.373   3.186  0.0329 -0.8424  0.8961
 7797TIP3   OH247585   0.819   4.308   0.634  0.0931  0.1823  0.5394
 7797TIP3    H147586   0.831   4.336   0.724  0.7058 -1.0519  0.8484
 7797TIP3    H247587   0.899   4.260   0.612 -0.7731 -1.0368 -0.0739
 7798TIP3   OH247588   7.402   1.934   2.453  0.4024 -0.3528 -0.4606
 7798TIP3    H147589   7.432   1.915   2.542 -3.8043 -2.0172  0.8597
 7798TIP3    H247590   7.423   1.854   2.404 -0.9866 -1.2111  0.2617
 7799TIP3   OH247591   6.544   0.306   1.193  0.3060  0.1750 -0.3613
 7799TIP3    H147592   6.542   0.368   1.120  0.3362  0.5091 -0.0818
 7799TIP3    H247593   6.637   0.297   1.213  0.3417 -0.3652 -0.7359
 7800TIP3   OH247594   6.465   2.661   2.326  0.2682  0.6639 -0.0643
 7800TIP3    H147595   6.557   2.634   2.330 -0.1580 -0.9376 -0.4210
 7800TIP3    H247596   6.447   2.700   2.412  1.0475  0.1966  0.3204
 7801TIP3   OH247597   6.987   0.988   1.744  0.6674  0.4560 -0.1243
 7801TIP3    H147598   7.046   0.924   1.783  0.4847  0.1748 -0.3050
 7801TIP3    H247599   6.968   1.050   1.814  0.0570 -0.2439  0.3418
 7802TIP3   OH247600   2.372   6.793   0.765 -0.2920  0.2333 -0.2038
 7802TIP3    H147601   2.308   6.858   0.734  0.6671  1.5351  0.4672
 7802TIP3    H247602   2.319   6.715   0.782 -1.7605  1.3474  0.5681
 7803TIP3   OH247603   2.325   1.823   1.186  0.2869  0.4122  0.2759
 7803TIP3    H147604   2.286   1.864   1.264  0.5946  0.0399  0.6349
 7803TIP3    H247605   2.415   1.857   1.184  0.0580  0.9818 -0.3343
 7804TIP3   OH247606   2.942   7.494   3.073  0.2249 -0.2638 -0.4993
 7804TIP3    H147607   2.934   7.589   3.086 -0.3492 -0.4792  0.8617
 7804TIP3    H247608   2.986   7.463   3.152  0.8830 -1.0792 -1.1757
 7805TIP3   OH247609   7.184   6.522   0.915  0.0820  0.5854 -0.2422
 7805TIP3    H147610   7.142   6.458   0.972 -0.4905  0.0144 -1.2912
 7805TIP3    H247611   7.277   6.519   0.940  0.3868 -1.8987 -1.3836
 7806TIP3   OH247612   2.451   0.626   1.188 -0.2186 -0.2668  0.1476
 7806TIP3    H147613   2.450   0.534   1.214 -2.8575 -0.3097  0.1654
 7806TIP3    H247614   2.447   0.624   1.092  2.1689 -0.1086 -0.0119
 7807TIP3   OH247615   1.087   7.252   2.220  0.0104  0.3069  0.4095
 7807TIP3    H147616   1.100   7.285   2.309 -1.1874 -1.7400  1.4220
 7807TIP3    H247617   1.152   7.182   2.211 -1.0114 -0.6383  0.3216
 7808TIP3   OH247618   0.785   4.188   1.472 -0.3020  0.6374 -0.3212
 7808TIP3    H147619   0.755   4.278   1.464 -0.4086  0.6806  0.4692
 7808TIP3    H247620   0.743   4.142   1.400 -2.3153  0.6905  0.7560
 7809TIP3   OH247621   3.125   5.871   2.261  0.3669 -0.2865  0.5073
 7809TIP3    H147622   3.186   5.921   2.206  0.1156 -1.0657 -0.5303
 7809TIP3    H247623   3.123   5.784   2.220 -0.9060 -0.4824  0.9457
 7810TIP3   OH247624   2.975   4.051   1.662 -0.4888 -0.0235  0.0524
 7810TIP3    H147625   2.971   3.957   1.644  0.6227 -0.3409  1.2970
 7810TIP3    H247626   3.064   4.077   1.636  0.2944  0.0048  2.4571
 7811TIP3   OH247627   7.456   4.034   0.529 -0.2327 -0.2766  0.4090
 7811TIP3    H147628   7.492   4.119   0.502 -2.1807 -0.1806 -2.4037
 7811TIP3    H247629   7.455   4.037   0.624  0.4633  2.5413  0.4147
 7812TIP3   OH247630   6.643   1.974   2.035  0.3028  0.1059 -0.0602
 7812TIP3    H147631   6.621   2.012   2.120  0.3674 -0.4927  0.2279
 7812TIP3    H247632   6.563   1.983   1.984  0.5118  1.2151 -0.2194
 7813TIP3   OH247633   7.286   1.100   1.870 -0.4624  0.7276 -0.5881
 7813TIP3    H147634   7.289   1.006   1.850  3.1213  0.7394 -0.6174
 7813TIP3    H247635   7.283   1.143   1.784 -0.1708  0.6679 -0.6273
 7814TIP3   OH247636   0.914   7.067   1.108 -0.5397 -0.0508 -0.4895
 7814TIP3    H147637   0.991   7.069   1.052 -1.3270  0.0027 -1.6180
 7814TIP3    H247638   0.887   6.975   1.108 -0.9007  0.0496 -0.7294
 7815TIP3   OH247639   6.890   4.386   2.458 -0.0271  0.5181  0.2096
 7815TIP3    H147640   6.846   4.330   2.395 -0.2900 -0.2758  1.0729
 7815TIP3    H247641   6.823   4.448   2.486 -0.4763 -0.3640  1.1399
 7816TIP3   OH247642   4.174   0.182   0.746 -0.1469  0.2443  0.6013
 7816TIP3    H147643   4.208   0.257   0.795  1.8971 -0.8413  0.9395
 7816TIP3    H247644   4.214   0.189   0.660  0.9787 -1.0250  0.9868
 7817TIP3   OH247645   4.554   6.864   1.295 -0.0200 -0.1690  0.0495
 7817TIP3    H147646   4.565   6.854   1.390  1.9632 -2.2637 -0.3109
 7817TIP3    H247647   4.545   6.958   1.282  1.1335  0.3094  2.1914
 7818TIP3   OH247648   4.338   5.339   0.672 -0.1708 -0.5352  0.6269
 7818TIP3    H147649   4.245   5.340   0.650 -0.6268 -0.3042  2.4228
 7818TIP3    H247650   4.362   5.246   0.671 -0.6486 -0.6635  1.0198
 7819TIP3   OH247651   2.086   4.276   1.345  0.2392  0.0616  0.1529
 7819TIP3    H147652   2.169   4.244   1.310  0.4259  0.6636  0.0217
 7819TIP3    H247653   2.111   4.322   1.426  0.0509  0.3261  0.0622
 7820TIP3   OH247654   4.750   1.596   2.002 -0.6092  0.3236  0.2379
 7820TIP3    H147655   4.825   1.568   1.949  0.1207  0.4966  1.1365
 7820TIP3    H247656   4.751   1.691   1.997 -0.7295  0.3289  0.2991
 7821TIP3   OH247657   5.635   6.756   3.213  0.5179 -0.8247  0.3458
 7821TIP3    H147658   5.599   6.685   3.266  1.7646 -1.9447 -0.2206
 7821TIP3    H247659   5.674   6.711   3.137 -2.2154  0.7480 -2.2041
 7822TIP3   OH247660   6.864   0.552   1.722 -0.6679  0.2597 -0.1939
 7822TIP3    H147661   6.836   0.640   1.694 -1.0889 -0.1701 -1.1517
 7822TIP3    H247662   6.947   0.567   1.767 -1.3012  1.2936  0.7065
 7823TIP3   OH247663   5.465   1.400   0.796 -0.1476  0.0599 -0.3348
 7823TIP3    H147664   5.407   1.427   0.867 -0.2959  0.0223 -0.4404
 7823TIP3    H247665   5.543   1.365   0.839 -0.8633 -1.3786 -0.1617
 7824TIP3   OH247666   0.045   5.514   0.988  0.2631 -0.8603 -0.2064
 7824TIP3    H147667   0.107   5.537   0.919  0.5399 -1.0674 -0.0313
 7824TIP3    H247668  -0.014   5.589   0.994  1.5852  0.1524  0.8709
 7825TIP3   OH247669   3.363   3.269   1.748  0.4583 -0.6767 -0.4297
 7825TIP3    H147670   3.398   3.193   1.796  0.8156 -1.1145 -1.3546
 7825TIP3    H247671   3.343   3.333   1.816  1.5584 -1.0318  0.2622
 7826TIP3   OH247672   4.040   5.670   2.343 -0.3569 -0.0759 -0.4533
 7826TIP3    H147673   4.091   5.652   2.264  0.0070  2.8191 -0.9991
 7826TIP3    H247674   4.105   5.694   2.408 -0.7537 -1.1640  0.3731
 7827TIP3   OH247675   4.246   6.847   2.390  0.3005 -0.2205  0.3602
 7827TIP3    H147676   4.165   6.822   2.345 -0.0201  1.3473  0.0252
 7827TIP3    H247677   4.219   6.869   2.478  0.1408  1.4650 -0.0802
 7828TIP3   OH247678   1.375   5.148   2.827 -0.6126  0.2178 -0.2737
 7828TIP3    H147679   1.447   5.176   2.884 -1.5038  0.6911  0.6375
 7828TIP3    H247680   1.330   5.081   2.878 -0.9910  0.1231 -0.7307
 7829TIP3   OH247681   4.434   6.838   0.792 -0.3719 -0.5243  0.2276
 7829TIP3    H147682   4.401   6.843   0.882 -0.6652 -3.2708  0.3383
 7829TIP3    H247683   4.492   6.762   0.791 -1.0119 -1.0781 -2.0879
 7830TIP3   OH247684   5.745   0.491   0.762  0.2256 -0.0426 -0.5439
 7830TIP3    H147685   5.800   0.413   0.762 -0.6353 -0.6725 -0.1140
 7830TIP3    H247686   5.660   0.460   0.729 -0.3466  0.5320  0.3394
 7831TIP3   OH247687   5.137   2.585   2.552 -0.2512  0.5719  0.0504
 7831TIP3    H147688   5.047   2.571   2.585 -0.6846 -1.6987 -1.8536
 7831TIP3    H247689   5.125   2.631   2.469  0.2159 -0.8158 -0.8128
 7832TIP3   OH247690   6.899   5.413   3.299  0.4551  0.3023 -0.2262
 7832TIP3    H147691   6.811   5.448   3.315 -0.6037 -1.6552 -1.3684
 7832TIP3    H247692   6.935   5.469   3.231 -0.4152  0.3795 -0.6379
 7833TIP3   OH247693   1.475   3.752   1.347 -0.2710 -0.3633 -0.4502
 7833TIP3    H147694   1.557   3.799   1.327 -1.1034  0.9541 -0.9031
 7833TIP3    H247695   1.425   3.814   1.399 -1.8153 -0.3354 -1.8891
 7834TIP3   OH247696   3.685   3.235   2.263  0.1584  0.2592  0.3311
 7834TIP3    H147697   3.747   3.267   2.328  1.0729 -1.8349  0.5429
 7834TIP3    H247698   3.604   3.218   2.312  0.1887  0.6415  0.5162
 7835TIP3   OH247699   1.414   6.365   2.640  0.6050  0.3312 -0.0433
 7835TIP3    H147700   1.346   6.309   2.677  1.7080 -1.6701 -0.8319
 7835TIP3    H247701   1.387   6.454   2.662 -2.1658 -0.3683 -0.1975
 7836TIP3   OH247702   4.747   1.720   0.656  0.1825 -0.3553 -0.1733
 7836TIP3    H147703   4.695   1.789   0.614  0.9195  0.6996  0.6020
 7836TIP3    H247704   4.838   1.743   0.635  0.5135 -0.3054  1.2472
 7837TIP3   OH247705   4.671   2.688   2.501 -0.4470  0.0350 -0.2879
 7837TIP3    H147706   4.602   2.745   2.534 -0.3016  0.0148  0.0554
 7837TIP3    H247707   4.629   2.603   2.487 -0.2106 -0.3496  1.1719
 7838TIP3   OH247708   1.934   3.813   0.794  0.0701  0.3951 -0.1717
 7838TIP3    H147709   1.865   3.754   0.763 -1.8551  0.8085  2.9103
 7838TIP3    H247710   1.946   3.875   0.722  0.6177 -2.3667 -2.6354
 7839TIP3   OH247711   6.209   7.557   2.292  0.3404  0.0206 -0.8013
 7839TIP3    H147712   6.275   7.622   2.270  0.6558 -0.3291 -0.8956
 7839TIP3    H247713   6.251   7.473   2.275 -0.3977 -0.1924 -1.6345
 7840TIP3   OH247714   4.894   1.988   2.527 -0.3301  0.3511 -0.4473
 7840TIP3    H147715   4.805   2.001   2.493 -1.8287 -0.9634  2.5825
 7840TIP3    H247716   4.947   1.970   2.449 -2.6967  1.1122 -2.3592
 7841TIP3   OH247717   7.085   5.247   2.041 -0.2080  0.1581  0.4445
 7841TIP3    H147718   7.155   5.184   2.053 -1.0157 -1.0337 -0.7611
 7841TIP3    H247719   7.012   5.212   2.093 -0.8112 -0.1978 -0.6060
 7842TIP3   OH247720   3.533   0.353   2.646  0.4964  0.9713 -0.1751
 7842TIP3    H147721   3.607   0.406   2.614  1.2341  0.1688  0.1603
 7842TIP3    H247722   3.538   0.359   2.741  2.8273 -2.5040  0.1112
 7843TIP3   OH247723   3.566   6.451   0.822  0.0884  0.1355 -0.2502
 7843TIP3    H147724   3.527   6.378   0.870  0.2528 -0.6499 -1.2904
 7843TIP3    H247725   3.514   6.527   0.848 -0.0573 -0.3341  0.8751
 7844TIP3   OH247726   7.284   3.410   2.480  0.0134  0.1434 -0.3028
 7844TIP3    H147727   7.244   3.457   2.553  0.8528 -0.3598  0.5109
 7844TIP3    H247728   7.266   3.464   2.403  2.5684  2.8769  0.8128
 7845TIP3   OH247729   6.786   3.734   1.429 -0.3659  0.0181  0.2240
 7845TIP3    H147730   6.762   3.729   1.522 -0.3560  1.2129  0.3131
 7845TIP3    H247731   6.833   3.817   1.421 -0.3450 -0.0831 -0.8453
 7846TIP3   OH247732   3.569   5.872   1.640 -0.6054  0.2662  0.0098
 7846TIP3    H147733   3.624   5.794   1.645 -0.8963  0.0437 -0.1850
 7846TIP3    H247734   3.589   5.922   1.719 -1.5952 -0.7959  0.9815
 7847TIP3   OH247735   1.602   4.155   1.658  0.2109 -0.0075  0.3933
 7847TIP3    H147736   1.619   4.107   1.739 -1.6015 -2.6785 -0.6737
 7847TIP3    H247737   1.536   4.220   1.682 -1.9640 -2.1946  0.7692
 7848TIP3   OH247738   2.575   1.938   1.489 -0.0656  0.3612  0.7474
 7848TIP3    H147739   2.576   1.922   1.394  0.7455 -0.2433  0.8392
 7848TIP3    H247740   2.625   2.018   1.501  0.1431  0.2403  0.6904
 7849TIP3   OH247741   1.895   5.899   2.183  0.5576  0.6678 -0.5738
 7849TIP3    H147742   1.950   5.832   2.142 -0.2671  0.3342 -1.1626
 7849TIP3    H247743   1.943   5.924   2.262  0.8510 -0.6807 -0.2892
 7850TIP3   OH247744   4.578   5.645   2.052 -0.2516 -0.1694 -0.2821
 7850TIP3    H147745   4.658   5.642   2.000 -0.3524  0.7008 -0.5111
 7850TIP3    H247746   4.522   5.709   2.007 -0.3404  0.6188  0.8801
 7851TIP3   OH247747   1.468   0.276   0.742 -0.6289  0.1111 -0.1303
 7851TIP3    H147748   1.501   0.188   0.720 -0.9014 -0.4896  1.6353
 7851TIP3    H247749   1.505   0.333   0.675 -0.4205 -1.3421 -1.3164
 7852TIP3   OH247750   6.625   0.935   1.149  0.1961  0.6996 -0.6398
 7852TIP3    H147751   6.701   0.961   1.202 -0.5368  1.1642  0.2291
 7852TIP3    H247752   6.640   0.976   1.064  0.0965  2.2818  0.0510
 7853TIP3   OH247753   2.962   2.656   1.170  0.3253  0.2838  0.5988
 7853TIP3    H147754   3.040   2.696   1.207  0.6392  1.6000 -1.3579
 7853TIP3    H247755   2.899   2.728   1.163 -0.2622 -0.2680  0.0631
 7854TIP3   OH247756   6.338   6.637   2.523  0.1757  0.0607 -0.0060
 7854TIP3    H147757   6.341   6.543   2.545  0.7470  0.0741 -0.0282
 7854TIP3    H247758   6.314   6.638   2.430 -2.2804  0.0048  0.5509
 7855TIP3   OH247759   4.355   5.562   1.391  0.2747  0.0839 -0.0668
 7855TIP3    H147760   4.313   5.482   1.361  0.8932 -0.3872  0.2867
 7855TIP3    H247761   4.290   5.604   1.448  0.0649 -0.3370  0.0084
 7856TIP3   OH247762   1.574   4.436   2.345  0.0066  0.2435 -0.1968
 7856TIP3    H147763   1.488   4.457   2.381  1.0284  0.9085  2.0327
 7856TIP3    H247764   1.619   4.390   2.416  2.1699  1.6587 -0.5711
 7857TIP3   OH247765   3.762   6.516   1.662 -0.2261 -0.0205 -0.1095
 7857TIP3    H147766   3.726   6.526   1.574  0.3534  1.1155 -0.2366
 7857TIP3    H247767   3.687   6.527   1.720 -0.2851  1.2586 -0.4032
 7858TIP3   OH247768   4.645   1.984   3.171 -0.2615  0.4006 -0.1998
 7858TIP3    H147769   4.652   2.053   3.236 -0.4085 -0.1691  0.4388
 7858TIP3    H247770   4.726   1.990   3.121  0.2056  0.3616  0.5341
 7859TIP3   OH247771   2.857   7.188   2.180 -1.0240 -0.6658  0.1903
 7859TIP3    H147772   2.891   7.128   2.247  1.1541 -0.1929 -0.3938
 7859TIP3    H247773   2.900   7.159   2.099 -1.3576  0.5603 -0.4355
 7860TIP3   OH247774   5.821   1.869   0.762 -0.0513  0.4978  0.1008
 7860TIP3    H147775   5.857   1.884   0.849 -1.0883  0.0643  0.6111
 7860TIP3    H247776   5.839   1.951   0.715 -0.0042  0.9521  0.8984
 7861TIP3   OH247777   4.084   5.834   1.057 -0.7642 -0.1669  0.3014
 7861TIP3    H147778   4.090   5.792   0.971 -0.6257  0.9704 -0.2646
 7861TIP3    H247779   4.101   5.763   1.119  0.6276 -0.7325 -0.6482
 7862TIP3   OH247780   4.813   6.282   0.723  0.3551  0.2152  0.1207
 7862TIP3    H147781   4.730   6.263   0.766  0.8143 -1.2196  0.4276
 7862TIP3    H247782   4.870   6.312   0.793  0.5157 -0.1798  0.1591
 7863TIP3   OH247783   3.764   0.767   2.585 -0.5029 -0.5146  0.5744
 7863TIP3    H147784   3.691   0.767   2.522 -0.6084 -1.9745  0.6563
 7863TIP3    H247785   3.723   0.751   2.669 -0.3065  0.9628  0.9725
 7864TIP3   OH247786   0.099   2.309   1.523  0.4231 -0.4184  0.2246
 7864TIP3    H147787   0.194   2.304   1.536  0.6572  1.4153 -0.5340
 7864TIP3    H247788   0.067   2.222   1.547  2.4721 -1.5702 -0.9885
 7865TIP3   OH247789   4.820   2.241   1.343 -0.1476  0.0758 -0.2163
 7865TIP3    H147790   4.814   2.205   1.255  0.8068 -1.8519  0.4519
 7865TIP3    H247791   4.785   2.172   1.399 -0.7706  1.2848  0.9214
 7866TIP3   OH247792   3.414   1.115   1.377 -0.1111  0.0897 -0.3858
 7866TIP3    H147793   3.438   1.165   1.455  0.8807 -0.5077 -0.2886
 7866TIP3    H247794   3.424   1.178   1.305 -1.0064  0.6330 -0.0492
 7867TIP3   OH247795   1.660   5.590   1.772 -0.0126  0.2339 -0.1782
 7867TIP3    H147796   1.738   5.549   1.733 -1.1265 -0.7413 -1.4723
 7867TIP3    H247797   1.661   5.680   1.740  1.6570  0.8794  1.4875
 7868TIP3   OH247798   2.565   4.914   0.608  0.4343 -0.0266  0.4032
 7868TIP3    H147799   2.574   4.983   0.542  0.7647 -1.5230 -1.1919
 7868TIP3    H247800   2.650   4.910   0.651  1.0280 -0.6527 -0.7826
 7869TIP3   OH247801   5.780   6.307   0.797  0.0331 -0.0232 -0.1054
 7869TIP3    H147802   5.853   6.247   0.782  1.8472  1.9571  0.2760
 7869TIP3    H247803   5.739   6.318   0.711  1.1319 -0.0295 -0.6440
 7870TIP3   OH247804   6.275   2.745   1.705  0.8209  0.3147 -0.4164
 7870TIP3    H147805   6.335   2.671   1.699 -0.9167 -1.2680  0.5211
 7870TIP3    H247806   6.214   2.732   1.632  1.0968  1.4245 -0.8640
 7871TIP3   OH247807   3.896   7.439   1.334  0.4737  0.4059 -0.3596
 7871TIP3    H147808   3.976   7.445   1.385  1.0402  0.1066 -1.1971
 7871TIP3    H247809   3.923   7.454   1.244  0.2475 -3.1358 -1.1751
 7872TIP3   OH247810   6.497   5.799   2.722 -0.4037 -0.4244 -0.0924
 7872TIP3    H147811   6.553   5.839   2.788 -1.2399 -1.5230  1.3359
 7872TIP3    H247812   6.517   5.705   2.727 -2.8482 -0.9590  1.0020
 7873TIP3   OH247813   2.079   0.070   3.209 -0.0890  0.0691  0.1684
 7873TIP3    H147814   2.050   0.122   3.134  1.1922  0.6467  0.0428
 7873TIP3    H247815   2.154   0.019   3.176  0.9101  0.8194  1.1847
 7874TIP3   OH247816   2.437   5.576   2.528 -0.0755  0.4107  0.4108
 7874TIP3    H147817   2.414   5.661   2.567  0.0997  0.1179  1.1800
 7874TIP3    H247818   2.432   5.515   2.602 -1.1938 -0.4272 -0.3371
 7875TIP3   OH247819   6.055   7.328   3.025 -0.3930 -0.4811 -0.5847
 7875TIP3    H147820   6.065   7.248   3.077  0.1480  0.0168  0.0862
 7875TIP3    H247821   6.145   7.361   3.015 -0.5046 -0.4714 -1.6875
 7876TIP3   OH247822   1.122   1.835   2.799 -0.1296  0.2515 -0.6587
 7876TIP3    H147823   1.127   1.881   2.883  1.5772 -0.7749 -0.1581
 7876TIP3    H247824   1.110   1.905   2.734 -0.4195  1.1436  0.3257
 7877TIP3   OH247825   3.302   2.525   2.090  0.2760  0.0616 -0.0470
 7877TIP3    H147826   3.263   2.484   2.012  0.3000  2.9927 -1.7555
 7877TIP3    H247827   3.364   2.588   2.054  1.0127  0.8270  2.4330
 7878TIP3   OH247828   6.107   2.416   0.692 -0.6830 -0.2037 -0.5245
 7878TIP3    H147829   6.177   2.351   0.694 -1.9085 -1.5643  0.0027
 7878TIP3    H247830   6.135   2.480   0.626  2.1923  0.6665  1.2879
 7879TIP3   OH247831   6.059   6.672   1.465 -0.1181  0.0084  0.0806
 7879TIP3    H147832   6.019   6.758   1.449  2.4166  1.1877 -0.3954
 7879TIP3    H247833   6.102   6.650   1.383  2.0268 -0.1133  1.1652
 7880TIP3   OH247834   7.368   4.013   2.476 -0.1795 -0.2689 -0.1884
 7880TIP3    H147835   7.391   3.921   2.489 -1.5305 -0.6016  0.0004
 7880TIP3    H247836   7.447   4.052   2.440 -0.0780 -1.8671 -1.8433
 7881TIP3   OH247837   3.833   4.955   2.566  0.0839  0.0212  0.4640
 7881TIP3    H147838   3.792   5.003   2.494 -0.9731  0.0950  1.0869
 7881TIP3    H247839   3.820   4.863   2.545 -0.0537  0.0420  0.4559
 7882TIP3   OH247840   4.746   5.365   2.581  0.1473  0.3136  0.0070
 7882TIP3    H147841   4.745   5.412   2.664 -0.0368  0.1897  0.0767
 7882TIP3    H247842   4.832   5.382   2.545 -0.2282  1.4124 -0.3833
 7883TIP3   OH247843   4.505   6.994   2.321 -0.9358  0.2151 -0.0207
 7883TIP3    H147844   4.423   6.947   2.334 -0.7648 -0.0398  0.1355
 7883TIP3    H247845   4.526   7.029   2.408 -2.0093  2.1409 -0.4707
 7884TIP3   OH247846   5.734   7.091   0.698  0.5469  0.0541  0.5027
 7884TIP3    H147847   5.664   7.029   0.719  0.0911  0.3412 -0.1286
 7884TIP3    H247848   5.774   7.056   0.619  0.4630  0.4188  0.2965
 7885TIP3   OH247849   1.622   4.386   0.708 -0.0272  0.3074  0.3670
 7885TIP3    H147850   1.608   4.292   0.718 -1.0313  0.5526  1.5775
 7885TIP3    H247851   1.561   4.413   0.640 -1.2600  0.3829  1.4496
 7886TIP3   OH247852   6.609   7.061   1.402 -0.8028 -0.1549  0.0291
 7886TIP3    H147853   6.596   7.126   1.333 -0.2434 -0.5051 -0.4145
 7886TIP3    H247854   6.537   6.999   1.392  0.7552 -1.8038 -2.0869
 7887TIP3   OH247855   3.818   7.305   1.997  0.6931 -0.2512 -0.0351
 7887TIP3    H147856   3.904   7.295   2.037 -0.2954 -1.9355  1.8490
 7887TIP3    H247857   3.765   7.348   2.064 -0.2351 -0.2556 -0.7440
 7888TIP3   OH247858   6.406   0.101   2.985  0.3174 -0.2208 -0.6757
 7888TIP3    H147859   6.347   0.090   2.910 -1.2676 -2.8146  0.8270
 7888TIP3    H247860   6.349   0.130   3.056  0.8379 -2.4855  0.7399
 7889TIP3   OH247861   2.077   6.515   2.934 -0.2630  0.1165 -0.9677
 7889TIP3    H147862   2.156   6.467   2.910 -0.0317 -0.2590  0.4244
 7889TIP3    H247863   2.060   6.488   3.025 -0.2084  2.5125 -0.1720
 7890TIP3   OH247864   5.608   6.593   2.410  0.2560 -0.0619  0.2803
 7890TIP3    H147865   5.642   6.505   2.426  1.8029  0.2138 -1.2745
 7890TIP3    H247866   5.517   6.579   2.384  0.0134 -1.0532  1.5688
 7891TIP3   OH247867   2.600   0.586   2.824  0.2914 -0.0487  0.5049
 7891TIP3    H147868   2.617   0.637   2.903 -0.2025  0.0896  0.5249
 7891TIP3    H247869   2.589   0.651   2.755 -0.8367 -0.0972  0.6268
 7892TIP3   OH247870   0.171   0.491   1.204 -0.3473 -0.5296  0.3339
 7892TIP3    H147871   0.102   0.542   1.247  0.7962  1.6125 -0.1871
 7892TIP3    H247872   0.240   0.485   1.270  0.6331  1.0928 -0.4637
 7893TIP3   OH247873   7.349   6.779   1.595  0.1161  0.1300  0.3362
 7893TIP3    H147874   7.385   6.832   1.666  1.5085  1.0572 -1.0039
 7893TIP3    H247875   7.323   6.842   1.528 -0.1800 -0.7689 -0.4144
 7894TIP3   OH247876   3.964   5.260   0.881 -0.1729 -0.0593 -0.3091
 7894TIP3    H147877   3.943   5.182   0.829 -1.5839 -0.4105  0.7225
 7894TIP3    H247878   4.039   5.233   0.935 -1.0355 -0.9599  0.4976
 7895TIP3   OH247879   0.704   1.915   0.669 -0.2084 -0.4063  0.4104
 7895TIP3    H147880   0.657   1.958   0.741  0.7103  0.0966  0.7242
 7895TIP3    H247881   0.636   1.865   0.623 -0.6370 -1.5667  2.2139
 7896TIP3   OH247882   7.049   2.233   1.841  0.3586 -0.1987 -0.6818
 7896TIP3    H147883   7.142   2.249   1.852  0.6035 -0.3037 -2.3208
 7896TIP3    H247884   7.043   2.185   1.758 -1.2333  0.8436 -1.2167
 7897TIP3   OH247885   0.276   3.322   3.083  0.1447  0.1616 -0.3792
 7897TIP3    H147886   0.202   3.371   3.047  0.3124  1.3808  0.8417
 7897TIP3    H247887   0.340   3.389   3.105  0.8285 -0.7150  0.3666
 7898TIP3   OH247888   1.772   5.174   2.740 -0.6815 -0.1777  0.6459
 7898TIP3    H147889   1.778   5.121   2.820 -2.9769 -2.3295 -0.4746
 7898TIP3    H247890   1.705   5.131   2.688  1.7488  0.1759 -3.2044
 7899TIP3   OH247891   1.288   6.820   1.553 -0.2925  0.7460  0.0992
 7899TIP3    H147892   1.197   6.835   1.525  0.2074 -0.1360 -2.2373
 7899TIP3    H247893   1.323   6.908   1.568 -1.7861  1.0670  2.1306
 7900TIP3   OH247894   4.101   6.494   2.273  0.0557  0.0272 -0.1913
 7900TIP3    H147895   4.157   6.427   2.312  1.2130  0.9305 -0.2513
 7900TIP3    H247896   4.045   6.523   2.346  0.8751  0.3408  0.3324
 7901TIP3   OH247897   7.341   5.261   1.275  0.1853  0.3120  0.4791
 7901TIP3    H147898   7.350   5.231   1.365 -2.0069 -0.1387  0.6216
 7901TIP3    H247899   7.402   5.334   1.267 -1.1753  1.8960  3.0694
 7902TIP3   OH247900   3.941   4.285   0.937  0.2215  0.0866 -0.4589
 7902TIP3    H147901   3.874   4.282   1.005  1.3088 -1.8083  0.6258
 7902TIP3    H247902   4.016   4.326   0.979  1.4629 -2.5971  0.1302
 7903TIP3   OH247903   0.132   2.337   3.260  0.2361 -0.3454  0.2560
 7903TIP3    H147904   0.205   2.275   3.256  0.7610  0.2751  0.1274
 7903TIP3    H247905   0.055   2.285   3.234  0.8135 -0.7019 -0.7803
 7904TIP3   OH247906   3.043   5.149   1.175 -0.1064  0.2886 -0.2686
 7904TIP3    H147907   3.059   5.222   1.115 -3.9941 -1.5160 -4.0906
 7904TIP3    H247908   2.958   5.167   1.213 -0.9348 -1.8980 -0.9153
 7905TIP3   OH247909   4.414   0.380   2.063  0.2182 -0.1821  0.3465
 7905TIP3    H147910   4.445   0.453   2.009 -0.6818  0.6301  0.8835
 7905TIP3    H247911   4.320   0.397   2.074 -0.0064 -1.4355  0.4833
 7906TIP3   OH247912   0.896   7.389   1.194 -0.3961 -0.3792 -0.0511
 7906TIP3    H147913   0.806   7.416   1.180  0.0965  1.2089 -0.3601
 7906TIP3    H247914   0.949   7.460   1.156  0.9741 -1.0005  0.6192
 7907TIP3   OH247915   3.564   0.388   7.333 -0.5971  0.1709 -0.0116
 7907TIP3    H147916   3.529   0.431   7.255 -1.4234 -1.5056 -0.6143
 7907TIP3    H247917   3.513   0.425   7.405 -1.1666  0.3411 -0.4921
 7908TIP3   OH247918   4.499   6.427   0.705 -0.3077 -0.8415  0.1240
 7908TIP3    H147919   4.438   6.501   0.709  0.4331 -0.2591  1.8901
 7908TIP3    H247920   4.445   6.352   0.683 -1.5694 -0.2239  1.0162
 7909TIP3   OH247921   2.713   7.305   1.411  0.1303 -0.0177 -0.2969
 7909TIP3    H147922   2.745   7.354   1.335 -0.8143  0.6727 -0.2740
 7909TIP3    H247923   2.747   7.354   1.486  1.6832 -1.1170 -0.2424
 7910TIP3   OH247924   6.635   4.997   2.303  0.4169  0.2627  0.3168
 7910TIP3    H147925   6.576   4.985   2.378 -0.9360  2.9408 -0.1867
 7910TIP3    H247926   6.602   4.936   2.237 -0.4088  0.1512  0.8135
 7911TIP3   OH247927   0.289   0.699   2.056 -0.0854  0.3113  0.1627
 7911TIP3    H147928   0.206   0.656   2.078  0.4694 -0.6448  0.4548
 7911TIP3    H247929   0.304   0.760   2.129 -2.0903  2.9056 -1.4284
 7912TIP3   OH247930   7.230   2.809   2.167  0.0852  0.7108  0.0744
 7912TIP3    H147931   7.155   2.801   2.108  0.2645  1.1032 -0.2110
 7912TIP3    H247932   7.305   2.778   2.116  0.6388  3.1896 -0.7455
 7913TIP3   OH247933   0.560   2.128   1.242 -0.1460 -0.3012  0.2238
 7913TIP3    H147934   0.630   2.123   1.307  1.4551  3.4928 -0.9549
 7913TIP3    H247935   0.599   2.094   1.161 -0.0554  0.6657 -0.1460
 7914TIP3   OH247936   6.035   1.604   1.884 -0.0720  0.3085  0.7945
 7914TIP3    H147937   5.954   1.653   1.875 -0.2923 -0.0235  0.9847
 7914TIP3    H247938   6.074   1.607   1.797 -0.7915 -0.4181  0.4385
 7915TIP3   OH247939   2.079   6.999   2.096 -0.3759 -0.0817  0.0788
 7915TIP3    H147940   2.085   7.066   2.028 -0.7219 -0.8275 -0.6931
 7915TIP3    H247941   2.119   6.921   2.057 -1.1397 -0.6948  0.4964
 7916TIP3   OH247942   0.281   1.941   1.949  0.1556 -0.3388  0.3207
 7916TIP3    H147943   0.373   1.925   1.971  0.5543  0.2881 -0.8245
 7916TIP3    H247944   0.252   1.861   1.906  0.8900  0.3135 -1.4893
 7917TIP3   OH247945   4.964   0.412   2.528 -0.1118 -0.1834  0.0221
 7917TIP3    H147946   4.885   0.357   2.531  0.2031 -0.6369  0.1908
 7917TIP3    H247947   4.935   0.494   2.488 -0.5800 -0.4909 -0.2820
 7918TIP3   OH247948   1.244   0.585   1.128 -0.4144 -0.4751 -0.1360
 7918TIP3    H147949   1.259   0.514   1.065  0.9430 -0.0714 -0.3025
 7918TIP3    H247950   1.326   0.592   1.176 -1.5549 -1.0913  2.0688
 7919TIP3   OH247951   4.811   6.949   0.519 -0.3761  1.1153  0.2451
 7919TIP3    H147952   4.897   6.988   0.504  0.1628  1.1090  2.8845
 7919TIP3    H247953   4.762   7.016   0.566 -0.8351  0.1063  1.2460
 7920TIP3   OH247954   3.770   5.924   0.338 -0.0671  0.1024 -0.5107
 7920TIP3    H147955   3.727   5.860   0.281 -1.4201 -0.3547  0.9601
 7920TIP3    H247956   3.739   6.008   0.307 -0.4638 -0.1195 -0.7278
 7921TIP3   OH247957   7.107   0.166   2.553 -0.2334 -0.4780  0.0217
 7921TIP3    H147958   7.058   0.084   2.549 -1.0201 -0.0823  1.1926
 7921TIP3    H247959   7.191   0.141   2.592 -0.7761 -0.6120  1.1521
 7922TIP3   OH247960   5.297   0.166   1.861  0.9072  0.1152 -0.6405
 7922TIP3    H147961   5.234   0.208   1.920  1.8674  0.8741 -0.1266
 7922TIP3    H247962   5.244   0.134   1.789  0.0528  1.9079 -0.8739
 7923TIP3   OH247963   4.380   5.701   2.298 -0.3590 -0.5644 -0.2734
 7923TIP3    H147964   4.361   5.646   2.223 -0.3711  0.0904 -0.7609
 7923TIP3    H247965   4.432   5.646   2.356 -0.6692 -1.1921 -0.5897
 7924TIP3   OH247966   6.500   0.646   0.757  0.1067 -0.6782 -0.9699
 7924TIP3    H147967   6.526   0.611   0.842 -1.5260  1.9014  0.7168
 7924TIP3    H247968   6.430   0.588   0.728 -1.2274 -0.0729  0.8363
 7925TIP3   OH247969   2.520   0.868   0.506 -0.0813  0.3795  0.0828
 7925TIP3    H147970   2.430   0.881   0.534  0.5274 -0.5746  2.7344
 7925TIP3    H247971   2.526   0.913   0.421 -3.0133  0.4305 -0.1755
 7926TIP3   OH247972   0.241   4.315   2.336  0.0236  0.4072 -0.6891
 7926TIP3    H147973   0.304   4.356   2.395 -0.7574 -0.2980  0.7009
 7926TIP3    H247974   0.168   4.376   2.332  0.5755  1.0200 -1.9446
 7927TIP3   OH247975   7.133   3.342   2.253  0.0256  0.6113  0.1413
 7927TIP3    H147976   7.041   3.325   2.272  0.4514 -0.8524  1.0462
 7927TIP3    H247977   7.178   3.262   2.278  1.5260  1.1918 -0.5597
 7928TIP3   OH247978   1.989   1.919   2.859  0.4869  0.2885 -0.8280
 7928TIP3    H147979   1.905   1.966   2.855 -0.5470 -1.5104 -1.0972
 7928TIP3    H247980   2.016   1.927   2.951 -0.9338 -0.6604 -0.2982
 7929TIP3   OH247981   7.372   1.182   3.072 -0.6166 -0.2178  0.3901
 7929TIP3    H147982   7.331   1.123   3.135 -0.8115  0.6319  1.0798
 7929TIP3    H247983   7.299   1.230   3.033 -0.4827 -0.6272 -0.3778
 7930TIP3   OH247984   6.318   3.487   0.601  0.1524 -0.3352 -0.0662
 7930TIP3    H147985   6.279   3.568   0.634  0.2634 -0.5411  0.5705
 7930TIP3    H247986   6.412   3.507   0.594  0.2246 -0.4986  0.3797
 7931TIP3   OH247987   6.172   1.075   1.944 -0.0345  0.1842  0.5583
 7931TIP3    H147988   6.215   1.092   1.860 -1.2659  1.5749  0.1691
 7931TIP3    H247989   6.090   1.032   1.921  0.6231 -1.5606  1.2394
 7932TIP3   OH247990   1.234   0.091   2.198 -0.0554 -0.3901  0.9226
 7932TIP3    H147991   1.316   0.128   2.231  0.0076 -0.5220  0.9109
 7932TIP3    H247992   1.260   0.012   2.151 -0.2853 -0.9626  1.7411
 7933TIP3   OH247993   2.043   1.561   2.192 -0.0601  0.4491  0.1119
 7933TIP3    H147994   2.059   1.642   2.144  2.4405 -0.5212 -0.8498
 7933TIP3    H247995   2.050   1.585   2.284 -0.2735  1.4903 -0.1348
 7934TIP3   OH247996   2.616   7.112   1.840  0.2881 -0.7513  0.1315
 7934TIP3    H147997   2.557   7.186   1.855 -0.1454 -1.3975  1.9229
 7934TIP3    H247998   2.580   7.041   1.894  1.5418 -1.8017 -0.3494
 7935TIP3   OH247999   4.842   6.016   1.335 -0.2889 -0.6236 -0.1594
 7935TIP3    H148000   4.758   6.036   1.376 -1.2251 -0.0411 -2.2291
 7935TIP3    H248001   4.879   6.101   1.312 -0.2278 -0.9330 -1.2904
 7936TIP3   OH248002   5.461   2.896   2.567  0.5913  0.6350 -0.0229
 7936TIP3    H148003   5.515   2.818   2.575  0.6253  0.5906 -0.6670
 7936TIP3    H248004   5.477   2.945   2.648  1.8054  0.7578 -0.3243
 7937TIP3   OH248005   4.336   7.664   1.808 -0.0492 -0.5862  0.0385
 7937TIP3    H148006   4.391   7.693   1.881 -2.1324  0.0330  1.4606
 7937TIP3    H248007   4.305   7.745   1.767 -0.5454 -0.8959 -0.2172
 7938TIP3   OH248008   4.222   1.969   1.875 -0.0211  0.0142  0.3614
 7938TIP3    H148009   4.159   1.982   1.946 -0.3185 -0.4499  0.1888
 7938TIP3    H248010   4.208   2.043   1.817  1.1336  1.1238  1.4380
 7939TIP3   OH248011   5.429   1.035   1.331  0.3294  0.5078 -0.4611
 7939TIP3    H148012   5.348   1.052   1.284  0.3600 -0.9756 -1.0946
 7939TIP3    H248013   5.434   0.940   1.338  0.8462  0.6279  1.6736
 7940TIP3   OH248014   1.005   0.944   2.207 -0.1484 -0.3322 -0.2520
 7940TIP3    H148015   0.937   0.986   2.261 -0.3669 -0.8104 -0.1505
 7940TIP3    H248016   1.081   0.938   2.264 -0.5343 -1.3055  0.1925
 7941TIP3   OH248017   7.265   2.869   2.443 -0.3209 -0.0261 -0.1958
 7941TIP3    H148018   7.289   2.844   2.354  1.5903  1.8457 -0.2850
 7941TIP3    H248019   7.286   2.792   2.496  0.7085 -0.3834 -1.0792
 7942TIP3   OH248020   0.272   2.832   3.137 -0.0547 -0.1828 -0.4365
 7942TIP3    H148021   0.239   2.846   3.226 -1.1885 -2.0653 -0.5054
 7942TIP3    H248022   0.240   2.907   3.087 -1.3494 -0.2421  0.2662
 7943TIP3   OH248023   6.824   0.828   2.681 -0.2895  0.1396 -0.8147
 7943TIP3    H148024   6.792   0.866   2.762  2.0069  0.5572 -0.0191
 7943TIP3    H248025   6.780   0.878   2.612  0.0743  1.9603  0.1980
 7944TIP3   OH248026   3.018   0.669   1.398 -0.3434 -0.2527 -0.7791
 7944TIP3    H148027   3.057   0.674   1.311 -0.9566  2.5116 -1.0096
 7944TIP3    H248028   3.012   0.761   1.426 -0.6006 -1.0320  1.9927
 7945TIP3   OH248029   4.906   6.890   2.648  0.3962 -0.9102 -0.1572
 7945TIP3    H148030   4.969   6.865   2.580  0.0805  2.1056 -1.7482
 7945TIP3    H248031   4.961   6.921   2.720  0.7441 -0.8269 -0.4510
 7946TIP3   OH248032   4.497   4.570   2.764 -0.2379  0.6326 -0.0094
 7946TIP3    H148033   4.418   4.568   2.818 -1.2152  0.1700 -1.3957
 7946TIP3    H248034   4.559   4.514   2.810 -1.1964 -0.1140  0.4202
 7947TIP3   OH248035   4.530   5.071   3.326  0.2826  0.2886  0.5815
 7947TIP3    H148036   4.483   4.988   3.315  2.3148 -0.7829 -0.7058
 7947TIP3    H248037   4.473   5.124   3.381 -2.0368 -1.1869 -0.2632
 7948TIP3   OH248038   1.678   1.263   1.602 -0.2361 -0.6666  0.1441
 7948TIP3    H148039   1.674   1.244   1.696 -0.6115  1.4958  0.6123
 7948TIP3    H248040   1.764   1.303   1.589 -0.5599 -0.0775 -0.2352
 7949TIP3   OH248041   7.114   4.916   1.140 -0.3082 -0.6490  0.2386
 7949TIP3    H148042   7.206   4.923   1.165 -0.5036  2.2179  0.5171
 7949TIP3    H248043   7.115   4.871   1.055  1.4035 -0.1479 -0.0430
 7950TIP3   OH248044   5.986   6.533   2.432 -0.0331 -0.1136  0.7373
 7950TIP3    H148045   5.956   6.587   2.359  1.3126 -0.9255 -0.4657
 7950TIP3    H248046   5.924   6.460   2.434  1.3771 -1.5010 -1.3928
 7951TIP3   OH248047   5.359   5.798   0.357 -0.2921  0.2198 -0.6632
 7951TIP3    H148048   5.369   5.773   0.265 -0.0848 -0.0956 -0.5524
 7951TIP3    H248049   5.319   5.722   0.399 -2.0188  0.9738 -0.8348
 7952TIP3   OH248050   3.831   2.694   1.520  0.1129 -0.2799  0.0195
 7952TIP3    H148051   3.764   2.628   1.499  0.5712 -1.0203  0.8342
 7952TIP3    H248052   3.808   2.725   1.608  1.2820 -1.1363  0.6571
 7953TIP3   OH248053   5.638   6.115   2.141  0.0100 -0.9492 -1.1037
 7953TIP3    H148054   5.650   6.144   2.051 -0.8933 -1.2153 -1.3203
 7953TIP3    H248055   5.639   6.196   2.192  0.8994 -0.8275 -1.2966
 7954TIP3   OH248056   3.395   7.651   2.704 -0.1932  0.0770  0.1793
 7954TIP3    H148057   3.426   7.693   2.785  1.3213  0.7035 -0.6787
 7954TIP3    H248058   3.300   7.663   2.706 -0.3252 -0.8321  2.3526
 7955TIP3   OH248059   1.030   0.219   1.649 -0.0986 -0.0868  0.8052
 7955TIP3    H148060   1.118   0.255   1.658  0.5142 -0.9717 -1.0490
 7955TIP3    H248061   0.990   0.230   1.735  1.3243  1.6034  1.2949
 7956TIP3   OH248062   5.014   4.126   1.797 -0.1799 -0.3219 -0.5707
 7956TIP3    H148063   5.047   4.142   1.886  0.3949 -1.0162 -0.6474
 7956TIP3    H248064   5.013   4.031   1.789  0.0500 -0.2621 -1.4136
 7957TIP3   OH248065   7.082   3.443   1.754  0.2528  0.2811 -0.0058
 7957TIP3    H148066   6.998   3.488   1.763 -0.7458 -1.2542 -1.1397
 7957TIP3    H248067   7.081   3.375   1.820  1.7481  1.7866  1.6841
 7958TIP3   OH248068   3.512   4.765   1.232  0.1399 -0.7379 -0.3532
 7958TIP3    H148069   3.587   4.723   1.189  0.0623 -0.4073 -0.8276
 7958TIP3    H248070   3.541   4.854   1.250 -0.1721 -0.5714 -0.6496
 7959TIP3   OH248071   3.790   5.294   1.844  0.1864  0.1053  0.1648
 7959TIP3    H148072   3.843   5.238   1.786  1.2667  1.4371 -0.1965
 7959TIP3    H248073   3.736   5.233   1.893  1.5733 -1.2918  0.0496
 7960TIP3   OH248074   0.974   3.320   1.632 -0.0433 -0.5474 -0.2267
 7960TIP3    H148075   1.055   3.271   1.623  1.1504  1.4136 -0.8939
 7960TIP3    H248076   0.923   3.297   1.554  0.4679 -0.7694 -0.4960
 7961TIP3   OH248077   5.965   5.818   2.310 -0.0913  0.6145  0.1993
 7961TIP3    H148078   5.915   5.861   2.241 -0.4844  1.5000  1.0161
 7961TIP3    H248079   6.042   5.872   2.323 -0.9984  1.6252  1.8124
 7962TIP3   OH248080   3.649   6.583   1.102 -0.4765  0.0734  0.1402
 7962TIP3    H148081   3.557   6.565   1.117 -1.0537  1.1694 -1.7168
 7962TIP3    H248082   3.675   6.521   1.033 -0.4269  1.1674 -0.8518
 7963TIP3   OH248083   2.693   5.304   1.014  0.4532 -0.6967 -0.5008
 7963TIP3    H148084   2.613   5.272   0.972 -0.3375  0.7231 -0.1264
 7963TIP3    H248085   2.699   5.253   1.096 -1.7632  1.2068  0.9678
 7964TIP3   OH248086   3.353   7.040   2.363 -0.1179  0.4833  0.4667
 7964TIP3    H148087   3.372   6.977   2.294 -1.3244  0.0300  0.5283
 7964TIP3    H248088   3.438   7.058   2.403  0.4174 -0.1458 -0.3616
 7965TIP3   OH248089   4.407   4.108   1.708  0.1287  0.3244 -0.0118
 7965TIP3    H148090   4.420   4.151   1.792 -0.2886  2.6200 -1.0213
 7965TIP3    H248091   4.433   4.017   1.722 -0.3530  0.5285  2.6776
 7966TIP3   OH248092   7.568   4.960   1.886 -0.6460  0.1978 -0.1618
 7966TIP3    H148093   7.567   4.899   1.812 -0.2927  1.0303 -0.8715
 7966TIP3    H248094   7.590   4.905   1.962 -2.1872 -0.8872 -0.4482
 7967TIP3   OH248095   2.120   2.491   1.992  0.2489 -0.1111 -0.3123
 7967TIP3    H148096   2.115   2.454   1.903  0.9680 -0.6385 -0.1459
 7967TIP3    H248097   2.176   2.430   2.039  0.7336  0.7345  0.2190
 7968TIP3   OH248098   2.865   5.899   1.194 -0.0283 -0.5877  0.2464
 7968TIP3    H148099   2.948   5.869   1.233  0.4980 -0.9491 -1.1080
 7968TIP3    H248100   2.887   5.917   1.103 -1.7616 -2.0643 -0.5226
 7969TIP3   OH248101   2.114   2.438   1.497 -0.0363 -0.4150 -0.0479
 7969TIP3    H148102   2.190   2.402   1.453 -0.6078 -2.6709  0.6535
 7969TIP3    H248103   2.082   2.507   1.438  0.5252 -1.7792 -2.0519
 7970TIP3   OH248104   0.672   0.289   1.315 -0.4710 -0.1420 -0.2126
 7970TIP3    H148105   0.643   0.341   1.239 -1.4042  0.9329  0.8224
 7970TIP3    H248106   0.761   0.264   1.294  0.1233  2.1057 -0.7179
 7971TIP3   OH248107   1.589   7.296   1.691 -0.9118  0.1842  0.1952
 7971TIP3    H148108   1.493   7.300   1.695 -1.0090  1.1989 -2.0758
 7971TIP3    H248109   1.611   7.217   1.740 -3.0955 -1.4036 -1.1952
 7972TIP3   OH248110   1.382   4.942   1.995  0.2895  0.1406  0.1036
 7972TIP3    H148111   1.388   4.883   2.070 -0.1770 -0.6316 -0.4530
 7972TIP3    H248112   1.289   4.958   1.985  0.2631 -0.6123 -0.9539
 7973TIP3   OH248113   5.393   6.083   1.455 -0.8057 -0.5511  0.1361
 7973TIP3    H148114   5.375   6.150   1.389 -0.1819 -1.3290 -0.8560
 7973TIP3    H248115   5.487   6.090   1.470 -0.5771 -1.7539 -0.6210
 7974TIP3   OH248116   4.531   2.199   0.649 -0.4945  1.0237 -0.0348
 7974TIP3    H148117   4.597   2.207   0.718  0.8962 -0.1190 -1.1593
 7974TIP3    H248118   4.523   2.105   0.634 -2.5053  1.1242  0.1379
 7975TIP3   OH248119   0.338   2.640   2.942 -0.2978 -0.0426  0.3211
 7975TIP3    H148120   0.324   2.713   3.002 -0.6323  1.3150 -1.3273
 7975TIP3    H248121   0.397   2.581   2.989 -1.5520  0.3085  2.4617
 7976TIP3   OH248122   2.005   2.291   2.246 -0.3002  1.0024 -0.6853
 7976TIP3    H148123   1.942   2.358   2.274 -0.9247  0.3312 -0.4631
 7976TIP3    H248124   1.992   2.284   2.152 -0.6794  0.7501 -0.6168
 7977TIP3   OH248125   5.303   3.233   1.240  0.5497  0.3213  0.4147
 7977TIP3    H148126   5.303   3.163   1.175 -1.3172 -0.1933  0.9180
 7977TIP3    H248127   5.391   3.230   1.279  1.2681 -0.1872 -1.1789
 7978TIP3   OH248128   5.744   4.133   0.862 -0.4150  0.3680  0.2672
 7978TIP3    H148129   5.750   4.217   0.908 -0.6763 -0.6218  2.2061
 7978TIP3    H248130   5.834   4.113   0.835 -0.2556  0.9693  0.3499
 7979TIP3   OH248131   2.550   2.826   0.984  0.5070  0.4895  0.1100
 7979TIP3    H148132   2.495   2.870   0.919 -1.8012  0.4056  1.8653
 7979TIP3    H248133   2.562   2.738   0.948  0.8953  0.9992 -1.0687
 7980TIP3   OH248134   2.833   0.186   1.569 -0.2811 -0.8970 -0.1746
 7980TIP3    H148135   2.892   0.154   1.638 -0.1980 -0.3079  0.0273
 7980TIP3    H248136   2.868   0.271   1.545 -0.0649 -1.2748 -1.2522
 7981TIP3   OH248137   0.441   7.658   1.492 -0.5126  0.1207 -0.1558
 7981TIP3    H148138   0.382   7.618   1.428 -1.0938  1.0447 -0.2160
 7981TIP3    H248139   0.435   7.600   1.568  0.5991 -1.2896 -1.0774
 7982TIP3   OH248140   7.595   3.183   2.125 -0.2162 -0.0652 -0.0294
 7982TIP3    H148141   7.574   3.260   2.071  0.7810 -0.4869 -1.0408
 7982TIP3    H248142   7.688   3.192   2.145  0.2286 -1.6056 -1.1901
 7983TIP3   OH248143   7.251   2.340   2.312  0.0219  0.2902  0.1083
 7983TIP3    H148144   7.302   2.262   2.290 -0.1562  0.0265  0.6031
 7983TIP3    H248145   7.256   2.395   2.234  0.1324 -0.2255 -0.2545
 7984TIP3   OH248146   4.716   5.255   3.187  0.1355 -0.0807  0.4798
 7984TIP3    H148147   4.683   5.191   3.250  0.0542  0.9382  1.5041
 7984TIP3    H248148   4.809   5.234   3.178 -0.4544 -2.2983 -1.6198
 7985TIP3   OH248149   0.530   3.748   0.623 -1.1588  0.0309 -0.3982
 7985TIP3    H148150   0.440   3.718   0.639 -1.1030  0.4928  0.8199
 7985TIP3    H248151   0.585   3.677   0.656 -0.9700 -2.0085 -4.3688
 7986TIP3   OH248152   4.581   6.264   1.727  0.0986  0.0196  0.3675
 7986TIP3    H148153   4.558   6.283   1.818  1.8174 -0.8824  1.0397
 7986TIP3    H248154   4.507   6.296   1.676 -1.2909 -0.2386  2.1420
 7987TIP3   OH248155   2.846   6.635   1.327 -0.0579  0.6373  0.5863
 7987TIP3    H148156   2.788   6.687   1.273 -0.8123  1.1269  1.8159
 7987TIP3    H248157   2.931   6.640   1.284 -0.8944 -0.0818 -1.2282
 7988TIP3   OH248158   0.676   0.900   2.796 -0.5183  0.0394 -0.5265
 7988TIP3    H148159   0.701   0.978   2.846  0.8003 -0.7549  0.1397
 7988TIP3    H248160   0.627   0.933   2.721 -2.4582  1.3085  1.1926
 7989TIP3   OH248161   2.144   5.759   1.474  0.5344  0.5155 -0.8841
 7989TIP3    H148162   2.102   5.843   1.453 -0.7784 -0.6484 -3.3684
 7989TIP3    H248163   2.188   5.734   1.393 -0.2842 -1.8335 -0.6639
 7990TIP3   OH248164   7.020   3.754   2.478  0.3718  0.1527 -0.6699
 7990TIP3    H148165   7.097   3.780   2.428  0.1658 -0.7213 -1.4749
 7990TIP3    H248166   7.053   3.693   2.544  0.5102  0.6150 -0.3002
 7991TIP3   OH248167   1.777   2.544   2.878  0.3199 -0.1413 -0.5468
 7991TIP3    H148168   1.765   2.463   2.829  0.3006 -1.0895  0.9573
 7991TIP3    H248169   1.768   2.613   2.812 -0.4666 -1.3128 -1.7353
 7992TIP3   OH248170   0.051   5.838   2.274  0.1139  0.3027 -0.1797
 7992TIP3    H148171   0.145   5.846   2.289  0.1068 -1.4692  1.1458
 7992TIP3    H248172   0.035   5.744   2.272 -1.2192  0.4604 -3.4784
 7993TIP3   OH248173   1.313   7.043   2.681 -0.2951 -0.3693 -0.3451
 7993TIP3    H148174   1.390   7.095   2.659 -1.1472  0.8286 -0.5878
 7993TIP3    H248175   1.332   6.956   2.645  0.6835  0.0658 -0.9206
 7994TIP3   OH248176   7.067   1.539   1.082  0.1226  0.1212 -0.2426
 7994TIP3    H148177   7.122   1.513   1.008  0.2364  0.7907 -0.3941
 7994TIP3    H248178   7.062   1.634   1.077  1.0663  0.2803  1.2803
 7995TIP3   OH248179   0.513   7.329   2.225  0.6081  0.2793 -0.4738
 7995TIP3    H148180   0.551   7.348   2.139  0.5448 -0.9525 -0.7863
 7995TIP3    H248181   0.568   7.378   2.286  0.6900  1.1255 -1.1954
 7996TIP3   OH248182   7.030   0.098   0.816 -0.1126 -0.0018  0.5031
 7996TIP3    H148183   6.943   0.059   0.811 -1.4229  2.7900 -0.1238
 7996TIP3    H248184   7.041   0.121   0.908  0.3298 -1.0111  0.7226
 7997TIP3   OH248185   1.671   3.234   2.638 -0.4828 -0.2596  0.0401
 7997TIP3    H148186   1.684   3.305   2.574 -0.8082  0.7520  1.0557
 7997TIP3    H248187   1.740   3.247   2.703 -2.4569  1.2117  2.0005
 7998TIP3   OH248188   7.203   2.427   1.447  0.4989 -0.0166  0.6427
 7998TIP3    H148189   7.222   2.463   1.360  0.1892 -0.0613  0.5556
 7998TIP3    H248190   7.122   2.470   1.474  0.6709  0.1040  0.9725
 7999TIP3   OH248191   2.503   6.974   1.637 -0.1333 -0.3731  1.6426
 7999TIP3    H148192   2.556   7.016   1.705  2.6790 -0.1553 -0.5154
 7999TIP3    H248193   2.488   7.042   1.572  0.8041 -1.5142  0.1464
 8000TIP3   OH248194   1.323   3.828   2.480 -0.2513  0.1112  0.5709
 8000TIP3    H148195   1.245   3.847   2.428 -0.1466 -2.2708 -0.5991
 8000TIP3    H248196   1.317   3.734   2.499  2.3427 -0.1660  0.4064
 8001TIP3   OH248197   1.088   2.073   2.345 -0.2055  0.0134  0.4624
 8001TIP3    H148198   1.010   2.118   2.311 -0.3391 -1.0212 -0.6813
 8001TIP3    H248199   1.158   2.138   2.338 -0.7010  0.5375  0.2751
 8002TIP3   OH248200   6.781   1.786   3.635  0.1787 -0.4970 -0.3952
 8002TIP3    H148201   6.731   1.738   3.570 -1.6805 -0.9548  1.2692
 8002TIP3    H248202   6.864   1.740   3.642 -0.0753 -1.1463 -1.5482
 8003TIP3   OH248203   4.445   2.517   1.570 -0.0579  0.0677  0.0864
 8003TIP3    H148204   4.444   2.433   1.616  2.1325  0.7278  1.4887
 8003TIP3    H248205   4.530   2.519   1.524 -0.1978  1.3781 -0.1699
 8004TIP3   OH248206   3.283   2.390   1.406  0.6619  0.0673 -0.0971
 8004TIP3    H148207   3.292   2.342   1.324 -1.6115 -0.5583 -0.0487
 8004TIP3    H248208   3.311   2.329   1.474 -1.3522 -0.9721 -0.1154
 8005TIP3   OH248209   0.565   7.488   2.004 -0.2101  0.0994  0.0067
 8005TIP3    H148210   0.636   7.536   1.960 -0.7409  1.3359  0.4574
 8005TIP3    H248211   0.516   7.448   1.932 -0.6789  1.5579 -0.5224
 8006TIP3   OH248212   3.902   1.755   3.353 -0.0572  0.1355  0.0079
 8006TIP3    H148213   3.915   1.782   3.444  1.1463  0.6299 -0.2974
 8006TIP3    H248214   3.913   1.835   3.302 -1.5428  0.0298 -0.5277
 8007TIP3   OH248215   4.614   5.964   2.189 -0.2159  0.0591  0.0470
 8007TIP3    H148216   4.648   5.893   2.134 -1.7101 -0.3176 -0.4332
 8007TIP3    H248217   4.690   5.993   2.239  0.5675 -1.5059 -0.1523
 8008TIP3   OH248218   7.616   7.668   2.665 -0.3220 -0.1128  0.0559
 8008TIP3    H148219   7.603   7.696   2.574 -0.3660 -1.2703 -0.3105
 8008TIP3    H248220   7.529   7.675   2.704 -0.2465  0.6651  0.0973
 8009TIP3   OH248221   7.300   4.475   1.890  0.3044  0.1727  0.4668
 8009TIP3    H148222   7.275   4.389   1.922  0.3460  0.2372  0.6704
 8009TIP3    H248223   7.395   4.480   1.902  0.1136  0.8096  1.8222
 8010TIP3   OH248224   5.841   4.355   1.677 -0.4527  0.5082 -0.4163
 8010TIP3    H148225   5.863   4.448   1.679  0.9296  0.2465 -1.7216
 8010TIP3    H248226   5.756   4.352   1.632 -0.6720  1.1421 -0.0694
 8011TIP3   OH248227   6.112   7.666   0.710  0.3930  0.0306  0.0353
 8011TIP3    H148228   6.136   7.723   0.783  0.3322 -0.1740  0.2140
 8011TIP3    H248229   6.079   7.726   0.643  0.0687  0.1811  0.3290
 8012TIP3   OH248230   4.539   2.562   1.117 -0.3756  0.2559  0.5883
 8012TIP3    H148231   4.499   2.644   1.145 -2.4662 -0.5142  0.0755
 8012TIP3    H248232   4.495   2.541   1.035  0.8797 -0.8581  0.1666
 8013TIP3   OH248233   5.866   6.656   2.874 -0.1097  0.1299 -0.6360
 8013TIP3    H148234   5.947   6.606   2.887  1.8319  3.6378  2.7383
 8013TIP3    H248235   5.805   6.621   2.939  0.3902  0.5293  0.0591
 8014TIP3   OH248236   0.396   1.068   2.949 -0.1531  0.1156 -0.1456
 8014TIP3    H148237   0.336   1.051   2.877 -2.1472  2.8617  0.7138
 8014TIP3    H248238   0.473   1.106   2.908 -0.7492  0.4825 -0.9537
 8015TIP3   OH248239   3.389   4.551   0.719 -0.1472 -0.3241  0.2075
 8015TIP3    H148240   3.296   4.566   0.707  0.0465  0.5422 -0.3267
 8015TIP3    H248241   3.395   4.483   0.786 -1.1613 -0.6224  0.0020
 8016TIP3   OH248242   3.295   7.151   1.467 -0.5150 -0.5912 -0.1304
 8016TIP3    H148243   3.217   7.195   1.502 -1.4201 -2.7934  0.8670
 8016TIP3    H248244   3.366   7.176   1.526 -0.2077  2.0341 -1.4745
 8017TIP3   OH248245   0.859   2.514   0.506  0.0442  0.9155  0.2608
 8017TIP3    H148246   0.889   2.425   0.525 -1.5972  0.5739  1.4683
 8017TIP3    H248247   0.939   2.562   0.484  1.2458 -0.3307  1.7009
 8018TIP3   OH248248   0.380   1.388   1.519 -0.0104 -0.6317  0.3160
 8018TIP3    H148249   0.460   1.427   1.482 -0.3944  0.8289  0.9530
 8018TIP3    H248250   0.309   1.440   1.482 -0.5991 -1.2868  0.5200
 8019TIP3   OH248251   1.561   5.076   1.807  0.4683 -0.5373  0.3116
 8019TIP3    H148252   1.486   5.054   1.862  1.1042  0.7106  1.7498
 8019TIP3    H248253   1.534   5.155   1.760  0.4242 -0.8225 -0.1492
 8020TIP3   OH248254   3.996   5.887   1.456 -0.2710 -0.4720 -0.3415
 8020TIP3    H148255   3.930   5.911   1.390 -0.2273  1.1037  0.1568
 8020TIP3    H248256   4.034   5.971   1.483  2.0546 -1.3416 -0.7180
 8021TIP3   OH248257   2.069   4.146   2.956  0.4010 -0.2029 -0.2624
 8021TIP3    H148258   2.054   4.190   3.040  0.0690 -0.9953  0.0973
 8021TIP3    H248259   2.139   4.197   2.916 -0.4355  1.0675 -0.1586
 8022TIP3   OH248260   3.137   0.105   1.339  0.5837 -0.7106  0.1469
 8022TIP3    H148261   3.177   0.073   1.419  0.4809 -0.7379  0.1875
 8022TIP3    H248262   3.072   0.039   1.316  0.8597 -0.8816 -0.1533
 8023TIP3   OH248263   5.807   6.230   1.319  0.3716 -0.8036 -0.2845
 8023TIP3    H148264   5.713   6.229   1.305  0.6003 -2.0800 -1.9899
 8023TIP3    H248265   5.844   6.184   1.244  2.5559  1.7589 -0.9710
 8024TIP3   OH248266   5.158   4.652   1.829  0.3347  0.3934 -0.2054
 8024TIP3    H148267   5.074   4.608   1.817  0.9144 -0.7814 -0.1171
 8024TIP3    H248268   5.150   4.697   1.912  0.0265 -0.2889  0.1426
 8025TIP3   OH248269   3.986   4.649   2.179 -0.3152 -0.0595  0.0228
 8025TIP3    H148270   4.051   4.704   2.136  0.6534 -0.6494  0.6892
 8025TIP3    H248271   3.915   4.709   2.202 -1.0786  0.2201 -2.6963
 8026TIP3   OH248272   5.581   6.453   1.867 -0.1587  0.5203 -0.0075
 8026TIP3    H148273   5.639   6.380   1.888  0.8043  1.2466 -0.0613
 8026TIP3    H248274   5.557   6.440   1.776  1.0143  0.9148 -0.3955
 8027TIP3   OH248275   1.999   6.024   2.433 -0.2102  0.9565 -0.4050
 8027TIP3    H148276   2.077   5.987   2.474 -0.9102  0.4021  0.4698
 8027TIP3    H248277   1.974   6.096   2.491 -0.6060  0.8454 -0.4343
 8028TIP3   OH248278   3.052   7.113   0.984 -0.5641  0.3552  0.0600
 8028TIP3    H148279   3.038   7.045   0.919  1.0533 -0.4503  0.5135
 8028TIP3    H248280   3.075   7.191   0.933  1.8538 -0.5521 -0.3750
 8029TIP3   OH248281   4.797   2.926   2.572  0.1758 -0.2840  0.1426
 8029TIP3    H148282   4.886   2.939   2.539  0.5736 -0.4083  1.1532
 8029TIP3    H248283   4.772   2.839   2.541  0.3706 -0.2194 -0.2032
 8030TIP3   OH248284   2.259   2.967   1.612  0.1855  0.1577 -0.3768
 8030TIP3    H148285   2.335   2.956   1.554 -0.3312 -1.5811 -0.7872
 8030TIP3    H248286   2.230   2.877   1.629  0.4362  0.5875  2.7662
 8031TIP3   OH248287   4.986   0.576   2.101  0.3025  0.0271 -0.7479
 8031TIP3    H148288   4.924   0.630   2.151 -1.5124 -1.9365 -0.7125
 8031TIP3    H248289   5.064   0.572   2.156 -0.3712  0.7397  0.3065
 8032TIP3   OH248290   1.651   1.232   1.323  0.6431  0.1033 -0.0308
 8032TIP3    H148291   1.661   1.276   1.408 -1.1795  2.1858 -0.7899
 8032TIP3    H248292   1.570   1.270   1.287 -0.5391 -3.2366 -1.2158
 8033TIP3   OH248293   6.621   0.757   1.900  0.2532 -0.1911  0.4007
 8033TIP3    H148294   6.599   0.665   1.883  1.0968 -0.4748  0.7711
 8033TIP3    H248295   6.687   0.753   1.969  1.7116  0.5857 -0.8873
 8034TIP3   OH248296   4.950   7.025   2.091  0.1067 -0.4801 -0.3910
 8034TIP3    H148297   4.911   7.050   2.008  0.4554  0.2431 -0.3466
 8034TIP3    H248298   4.878   7.027   2.154  0.0349 -0.0383 -0.4855
 8035TIP3   OH248299   5.510   3.206   2.212 -0.0925 -0.1193 -0.5451
 8035TIP3    H148300   5.588   3.229   2.262 -0.7948 -0.0174  0.5508
 8035TIP3    H248301   5.450   3.279   2.228 -0.5759 -0.4196 -0.9830
 8036TIP3   OH248302   5.010   7.587   2.521  0.2410  0.1447  0.2388
 8036TIP3    H148303   4.983   7.667   2.475 -1.7553 -0.9709 -0.6451
 8036TIP3    H248304   4.983   7.600   2.611 -0.5040  0.2911 -0.0029
 8037TIP3   OH248305   0.165   5.067   1.756 -0.2921  0.3596 -0.3518
 8037TIP3    H148306   0.137   5.036   1.842 -0.1300 -2.1449 -1.1107
 8037TIP3    H248307   0.260   5.056   1.757 -0.4887 -4.5796 -2.3166
 8038TIP3   OH248308   1.670   3.581   3.063  0.4639  0.6657 -0.2805
 8038TIP3    H148309   1.664   3.549   3.153  0.4959 -1.9993 -1.1492
 8038TIP3    H248310   1.581   3.577   3.030  0.7493 -0.4908 -0.9883
 8039TIP3   OH248311   3.029   6.171   1.081  0.3092  0.4355 -0.1587
 8039TIP3    H148312   3.018   6.147   0.990  0.9868 -0.7602  0.0520
 8039TIP3    H248313   3.019   6.267   1.083  2.4029  0.7652 -1.8417
 8040TIP3   OH248314   5.295   4.380   2.082 -0.4062 -0.2259  0.1036
 8040TIP3    H148315   5.234   4.450   2.108 -0.6326 -0.2035 -0.4717
 8040TIP3    H248316   5.289   4.377   1.987 -0.9932 -1.5653  0.1564
 8041TIP3   OH248317   5.982   0.980   1.773 -0.7608 -0.5782  0.2725
 8041TIP3    H148318   5.990   1.034   1.695  1.2818 -0.9200  0.1864
 8041TIP3    H248319   5.950   0.896   1.741 -2.2695  0.0093  0.1716
 8042TIP3   OH248320   1.802   1.090   2.398 -0.2114 -0.3641 -0.3764
 8042TIP3    H148321   1.784   1.118   2.309  1.3154 -0.5056 -0.7507
 8042TIP3    H248322   1.833   1.000   2.390  0.7943 -0.0873  0.1896
 8043TIP3   OH248323   4.052   6.000   2.021 -0.1585  0.6159  0.5671
 8043TIP3    H148324   4.117   6.041   2.077 -1.0248  2.5348  0.2289
 8043TIP3    H248325   4.094   5.994   1.935  0.9778 -1.8532  1.2000
 8044TIP3   OH248326   0.281   3.978   2.409 -0.2347 -0.1950  0.4554
 8044TIP3    H148327   0.252   4.009   2.323  1.0562 -1.9530 -0.6802
 8044TIP3    H248328   0.294   4.058   2.460 -1.5258  0.8710 -0.8058
 8045TIP3   OH248329   6.593   2.913   2.482 -0.0180  0.1479  0.2874
 8045TIP3    H148330   6.541   2.854   2.536 -0.9082  0.5494 -0.0984
 8045TIP3    H248331   6.551   2.998   2.493  1.1432  0.6836  0.7001
 8046TIP3   OH248332   6.737   6.516   0.708  0.4569 -0.0091 -0.2825
 8046TIP3    H148333   6.764   6.546   0.622  2.7840 -1.7550 -0.2400
 8046TIP3    H248334   6.804   6.549   0.768 -1.5266  1.8599  1.0902
 8047TIP3   OH248335   1.414   5.615   1.086  0.1556  0.1770 -0.3313
 8047TIP3    H148336   1.365   5.573   1.158  1.1799 -0.7886 -0.1774
 8047TIP3    H248337   1.364   5.695   1.067  1.0973  1.7443  3.0499
 8048TIP3   OH248338   3.396   6.297   0.986 -0.2954 -0.1537 -0.5099
 8048TIP3    H148339   3.351   6.217   1.015  0.3854 -0.5399 -0.4972
 8048TIP3    H248340   3.415   6.344   1.067  0.7354 -0.7625 -0.3810
 8049TIP3   OH248341   4.721   2.378   2.113  0.3389  0.6387  0.5622
 8049TIP3    H148342   4.652   2.346   2.054 -0.9238  0.4068  2.0723
 8049TIP3    H248343   4.801   2.337   2.081 -0.4734 -0.2810 -0.3706
 8050TIP3   OH248344   7.197   1.756   2.857 -0.9718  0.7579  0.1993
 8050TIP3    H148345   7.201   1.707   2.939  0.1167  0.1371 -0.1962
 8050TIP3    H248346   7.130   1.710   2.805 -0.2442 -0.0942 -0.0160
 8051TIP3   OH248347   2.613   5.723   3.253  0.1076 -0.7028 -0.4087
 8051TIP3    H148348   2.654   5.779   3.319 -0.6144 -0.5931 -0.0349
 8051TIP3    H248349   2.661   5.641   3.258 -1.0534 -1.3352  1.5557
 8052TIP3   OH248350   0.509   1.144   1.618 -0.1661  0.2532  0.4139
 8052TIP3    H148351   0.521   1.086   1.543  0.5482  1.1484 -0.1888
 8052TIP3    H248352   0.455   1.216   1.584  1.5580  1.5286  0.2460
 8053TIP3   OH248353   6.381   7.145   2.529 -0.0344 -0.5220  0.3378
 8053TIP3    H148354   6.309   7.156   2.591 -1.9355  0.5334 -1.9030
 8053TIP3    H248355   6.357   7.068   2.477 -0.3890  0.7346 -1.4398
 8054TIP3   OH248356   4.999   5.677   1.578  0.3370  0.2654 -0.4534
 8054TIP3    H148357   5.039   5.744   1.522  0.8048 -0.9683 -1.6356
 8054TIP3    H248358   4.937   5.632   1.521  2.0688 -2.1721 -0.5575
 8055TIP3   OH248359   6.235   7.653   1.575  0.2208 -0.6038 -0.2532
 8055TIP3    H148360   6.266   7.597   1.646  0.4206 -2.7427 -1.9360
 8055TIP3    H248361   6.141   7.632   1.568 -0.1193  0.6524  0.2475
 8056TIP3   OH248362   1.701   4.046   1.907  0.0062  0.1310 -0.5827
 8056TIP3    H148363   1.751   4.127   1.902  0.4235 -0.1864 -2.4057
 8056TIP3    H248364   1.634   4.063   1.973  1.1818  1.3059  0.3736
 8057TIP3   OH248365   6.649   1.317   2.627 -0.0675  0.3046  0.3841
 8057TIP3    H148366   6.726   1.260   2.624 -0.6368 -0.4657 -1.0160
 8057TIP3    H248367   6.585   1.267   2.678 -0.7444 -0.6067 -1.2821
 8058TIP3   OH248368   0.064   2.780   2.223 -0.0076  0.0032  0.0126
 8058TIP3    H148369   0.107   2.711   2.274 -0.5798 -1.0978 -0.9445
 8058TIP3    H248370   0.134   2.843   2.205  0.3333  0.1491  1.6469
 8059TIP3   OH248371   3.086   2.780   1.524  0.1463 -0.3424  0.2745
 8059TIP3    H148372   3.002   2.811   1.490 -0.2974  0.2468  1.8640
 8059TIP3    H248373   3.149   2.848   1.499  0.0266 -0.4116 -0.2366
 8060TIP3   OH248374   1.588   1.995   1.356 -0.0819 -0.1840  0.2759
 8060TIP3    H148375   1.680   1.995   1.327 -0.2357  2.2882 -0.4984
 8060TIP3    H248376   1.568   2.088   1.370 -2.0297 -0.7854  1.9543
 8061TIP3   OH248377   6.317   1.996   1.679 -0.5278  0.2895 -0.8556
 8061TIP3    H148378   6.233   2.013   1.636 -1.4732 -1.7864  0.0121
 8061TIP3    H248379   6.295   1.940   1.754  1.7251 -0.9962 -1.0577
 8062TIP3   OH248380   1.464   0.564   2.904  0.1270 -0.6485  0.2885
 8062TIP3    H148381   1.483   0.475   2.935  2.3321 -0.0489  0.8422
 8062TIP3    H248382   1.438   0.611   2.983 -0.1142 -0.5805  0.1669
 8063TIP3   OH248383   1.753   5.247   1.219 -0.1796 -0.2688 -0.0388
 8063TIP3    H148384   1.842   5.261   1.188 -0.3626  0.7546 -0.1246
 8063TIP3    H248385   1.734   5.323   1.274 -0.0774 -1.7451  2.1557
 8064TIP3   OH248386   6.201   6.474   2.074 -0.4234 -0.1803  0.3492
 8064TIP3    H148387   6.247   6.391   2.057 -0.0214 -0.1529  1.2119
 8064TIP3    H248388   6.219   6.528   1.997 -0.7390 -0.9095 -0.2514
 8065TIP3   OH248389   7.271   0.528   2.366  0.5435  0.6290  0.2205
 8065TIP3    H148390   7.302   0.576   2.443 -1.2434  0.6019  1.0182
 8065TIP3    H248391   7.328   0.558   2.295  1.7865  1.1917  1.4008
 8066TIP3   OH248392   0.157   0.851   1.409  0.1096  0.5992  0.4776
 8066TIP3    H148393   0.198   0.934   1.434 -0.9351  0.7867  1.6590
 8066TIP3    H248394   0.230   0.798   1.376  1.0102  1.5181  0.9137
 8067TIP3   OH248395   2.551   2.721   1.820  0.3659 -0.3153  0.1187
 8067TIP3    H148396   2.506   2.637   1.810  0.2906 -0.3393  0.6084
 8067TIP3    H248397   2.482   2.781   1.850  0.7465 -0.4701  1.3734
 8068TIP3   OH248398   1.569   4.197   3.232 -0.2510  0.0058  0.4870
 8068TIP3    H148399   1.607   4.112   3.252 -0.2415 -0.2034 -0.3661
 8068TIP3    H248400   1.478   4.190   3.260 -0.1181 -0.1124  0.8863
 8069TIP3   OH248401   4.593   2.657   0.602  0.6072  0.1339 -0.0320
 8069TIP3    H148402   4.568   2.596   0.532 -1.0723 -0.3887  0.9533
 8069TIP3    H248403   4.641   2.603   0.665  2.6381  0.7231 -0.9711
 8070TIP3   OH248404   5.969   5.013   1.374 -0.4477  0.1804 -0.0278
 8070TIP3    H148405   5.979   5.050   1.461 -0.1972 -0.5909  0.2771
 8070TIP3    H248406   5.901   4.947   1.383  1.1694 -1.5282  0.1259
 8071TIP3   OH248407   3.316   2.084   3.147 -0.0527 -0.3739  0.4102
 8071TIP3    H148408   3.230   2.042   3.151 -0.4022  0.2238 -0.4401
 8071TIP3    H248409   3.315   2.147   3.219 -0.8922  0.6097 -0.4216
 8072TIP3   OH248410   4.473   0.170   2.356  0.1314  0.2042 -0.0150
 8072TIP3    H148411   4.566   0.146   2.346  0.3224  0.5221  0.9662
 8072TIP3    H248412   4.475   0.261   2.387 -0.5091  0.1717  0.1262
 8073TIP3   OH248413   3.889   6.796   2.472  0.6602 -0.0631  0.5007
 8073TIP3    H148414   3.904   6.826   2.383 -1.2677  1.3905  0.6131
 8073TIP3    H248415   3.884   6.700   2.464 -0.2524  0.0811 -1.0920
 8074TIP3   OH248416   1.522   1.012   1.983  0.6475 -0.2228  0.4547
 8074TIP3    H148417   1.584   1.027   1.912 -0.5374 -1.9625 -1.0265
 8074TIP3    H248418   1.436   1.030   1.945 -0.0389 -1.4501  1.3466
 8075TIP3   OH248419   2.706   6.218   1.382 -0.0697 -0.7597  0.0138
 8075TIP3    H148420   2.674   6.140   1.336 -0.3934 -0.8227  0.3409
 8075TIP3    H248421   2.801   6.210   1.381 -0.0144 -0.2338 -1.5671
 8076TIP3   OH248422   6.287   7.046   1.876 -0.6305  0.6127 -0.2280
 8076TIP3    H148423   6.332   6.994   1.810  0.5672 -0.2593  1.2295
 8076TIP3    H248424   6.194   7.031   1.859 -0.4185  1.4996 -2.5313
 8077TIP3   OH248425   5.553   5.490   1.190 -0.5705 -0.6015 -0.3650
 8077TIP3    H148426   5.579   5.522   1.103 -2.0183 -1.0938 -1.0060
 8077TIP3    H248427   5.613   5.534   1.250 -0.2145  0.5550 -1.5194
 8078TIP3   OH248428   3.481   5.535   1.049 -0.2727 -0.1778  0.1992
 8078TIP3    H148429   3.563   5.522   1.001 -0.1602 -0.5029  0.4705
 8078TIP3    H248430   3.471   5.630   1.055  0.5313 -0.1252  0.9036
 8079TIP3   OH248431   1.151   4.883   3.417 -0.2141  0.2915 -0.0394
 8079TIP3    H148432   1.167   4.812   3.355  1.6133  0.9670 -0.4045
 8079TIP3    H248433   1.235   4.896   3.461 -1.0170  1.0004  1.3498
 8080TIP3   OH248434   3.750   3.067   1.105  0.0882  0.5407  0.2440
 8080TIP3    H148435   3.672   3.121   1.119 -0.5418 -0.1476 -0.5681
 8080TIP3    H248436   3.763   3.023   1.189 -1.7195 -1.0294 -0.2353
 8081TIP3   OH248437   3.639   4.967   1.570  0.5620  0.3928  0.1082
 8081TIP3    H148438   3.564   4.970   1.511  1.8630 -2.2692 -1.8682
 8081TIP3    H248439   3.700   5.032   1.535 -0.1413  1.4923  0.8406
 8082TIP3   OH248440   5.112   1.225   0.785  0.1928 -0.1561 -0.0348
 8082TIP3    H148441   5.158   1.245   0.866 -0.8429  0.6196  0.3837
 8082TIP3    H248442   5.143   1.290   0.723 -1.4096  1.3916  0.6743
 8083TIP3   OH248443   2.141   4.352   1.589  0.3740  0.2090  0.0201
 8083TIP3    H148444   2.056   4.392   1.607 -0.0261  0.0183 -1.3054
 8083TIP3    H248445   2.199   4.387   1.657 -1.5184 -2.4720  3.3467
 8084TIP3   OH248446   1.994   0.836   2.776 -0.1376 -0.0308  0.5136
 8084TIP3    H148447   1.985   0.926   2.747 -1.7373 -0.0615  0.7823
 8084TIP3    H248448   2.024   0.788   2.698  2.0631  0.9016  0.7223
 8085TIP3   OH248449   1.584   0.914   2.919  0.0485  0.8434 -0.0116
 8085TIP3    H148450   1.606   0.900   2.827 -0.9323  1.2674 -0.3202
 8085TIP3    H248451   1.553   0.829   2.950 -0.4821  0.9208 -0.3241
 8086TIP3   OH248452   1.926   3.892   1.947 -0.2338 -0.2506  0.0536
 8086TIP3    H148453   1.936   3.856   1.859 -0.7385 -0.8290  0.2263
 8086TIP3    H248454   1.851   3.951   1.941  0.5517  0.7460 -0.2127
 8087TIP3   OH248455   1.788   0.833   1.350  0.3212 -0.0920  0.1076
 8087TIP3    H148456   1.739   0.752   1.362  1.5374 -1.1187 -1.3606
 8087TIP3    H248457   1.722   0.898   1.328 -0.5947 -0.9164  0.3581
 8088TIP3   OH248458   5.685   0.935   2.940  0.2098 -0.1722  0.0332
 8088TIP3    H148459   5.774   0.954   2.912  0.0995 -0.0583 -0.2437
 8088TIP3    H248460   5.694   0.904   3.030  0.5659 -0.5242 -0.1190
 8089TIP3   OH248461   2.298   1.459   2.419 -0.2828  0.0357 -0.1629
 8089TIP3    H148462   2.284   1.544   2.460 -0.6590  0.4261 -1.0714
 8089TIP3    H248463   2.389   1.462   2.388 -0.5590  0.4609 -0.9658
 8090TIP3   OH248464   6.604   5.452   2.620 -0.4139  0.1139 -0.3592
 8090TIP3    H148465   6.546   5.388   2.579 -1.2118  0.3609  0.3370
 8090TIP3    H248466   6.576   5.454   2.712  1.4280 -0.5652  0.2642
 8091TIP3   OH248467   7.442   2.514   2.200  0.2346 -0.4566 -0.0792
 8091TIP3    H148468   7.482   2.601   2.203 -1.4536  0.3563  0.4808
 8091TIP3    H248469   7.464   2.481   2.113 -0.2139  1.1298 -0.8518
 8092TIP3   OH248470   3.613   0.731   0.781 -0.5224  0.0287  0.0139
 8092TIP3    H148471   3.618   0.779   0.698 -0.9202 -0.1946 -0.1370
 8092TIP3    H248472   3.666   0.652   0.766 -0.9555 -0.2287 -0.1750
 8093TIP3   OH248473   0.674   7.218   1.128  0.3977  0.7689 -0.1658
 8093TIP3    H148474   0.621   7.140   1.112  0.6517  0.5595 -0.0063
 8093TIP3    H248475   0.764   7.185   1.132  0.4111  0.8832  1.0790
 8094TIP3   OH248476   5.055   1.963   2.290  0.5824 -0.3527 -0.2273
 8094TIP3    H148477   5.101   2.037   2.250 -0.8550  0.3666 -0.6013
 8094TIP3    H248478   4.971   1.959   2.245 -0.2376 -0.8452  1.2782
 8095TIP3   OH248479   1.513   7.111   1.329  0.5129  0.1222 -0.3583
 8095TIP3    H148480   1.462   7.130   1.407 -0.1574  1.7202 -1.1320
 8095TIP3    H248481   1.577   7.183   1.324  0.6302 -0.0279 -1.2021
 8096TIP3   OH248482   3.304   3.508   0.814  0.2942  0.1185  0.0738
 8096TIP3    H148483   3.224   3.549   0.846  1.4328  1.0775  1.8816
 8096TIP3    H248484   3.362   3.582   0.793  0.0550 -0.4892 -3.2143
 8097TIP3   OH248485   4.311   1.090   0.392  0.5402  0.0758  0.2447
 8097TIP3    H148486   4.394   1.100   0.439  0.4401  1.2985  0.1860
 8097TIP3    H248487   4.335   1.040   0.313  1.5781  1.8133 -0.6110
 8098TIP3   OH248488   1.274   5.894   2.426  0.0920 -0.0437  0.1461
 8098TIP3    H148489   1.288   5.858   2.339 -2.0271 -0.2473 -0.1649
 8098TIP3    H248490   1.201   5.955   2.416 -0.0771  0.0580  1.7364
 8099TIP3   OH248491   6.961   7.310   3.484 -0.3642 -0.1264 -0.3131
 8099TIP3    H148492   6.916   7.266   3.412  0.0050  1.6568 -1.6895
 8099TIP3    H248493   7.053   7.311   3.458  0.3403 -2.2032  1.6795
 8100TIP3   OH248494   3.923   2.128   2.706 -0.0314 -0.9077 -0.6418
 8100TIP3    H148495   3.839   2.169   2.683 -0.9232 -2.9360 -1.2297
 8100TIP3    H248496   3.921   2.123   2.802 -0.5491 -0.8627 -0.6437
 8101TIP3   OH248497   2.335   5.949   1.085 -0.3802  0.4513  0.1161
 8101TIP3    H148498   2.288   5.947   1.002  0.4623 -0.4267 -0.3692
 8101TIP3    H248499   2.426   5.967   1.061 -0.0022 -0.4854  0.7661
 8102TIP3   OH248500   5.816   1.881   2.434 -0.4349 -0.0302 -0.1152
 8102TIP3    H148501   5.894   1.910   2.387  1.6007 -3.4133  0.8141
 8102TIP3    H248502   5.833   1.902   2.525 -0.0757 -1.6807  0.2237
 8103TIP3   OH248503   3.135   1.473   1.243 -0.1601  0.4516  0.4758
 8103TIP3    H148504   3.201   1.539   1.266 -2.0422  2.0906  1.4815
 8103TIP3    H248505   3.054   1.506   1.280 -2.0766 -0.3253 -2.6247
 8104TIP3   OH248506   2.864   1.972   1.786  0.1506  0.8575  0.0775
 8104TIP3    H148507   2.912   1.958   1.705  0.8416  1.1938  0.4163
 8104TIP3    H248508   2.891   2.059   1.815  0.2550  0.5596  0.8961
 8105TIP3   OH248509   0.477   1.771   0.966  0.2883 -0.0431 -0.0812
 8105TIP3    H148510   0.522   1.790   1.049 -1.6002  0.7238  0.8178
 8105TIP3    H248511   0.509   1.684   0.941  1.4194  0.0024  1.0680
 8106TIP3   OH248512   2.485   4.479   0.971 -0.0411  0.6364  0.4297
 8106TIP3    H148513   2.452   4.534   1.042  2.0960 -0.8923  2.7389
 8106TIP3    H248514   2.550   4.534   0.927  0.7361  0.6255  1.5373
 8107TIP3   OH248515   6.981   3.067   0.687 -0.0295 -0.6314 -0.0227
 8107TIP3    H148516   7.038   3.030   0.754 -0.3334  1.0208  1.2419
 8107TIP3    H248517   6.901   3.090   0.735 -1.1831 -1.5177 -1.4462
 8108TIP3   OH248518   1.022   2.755   1.650 -0.4042  0.0355 -0.9841
 8108TIP3    H148519   0.965   2.831   1.636 -0.6470  0.6170  2.3606
 8108TIP3    H248520   1.111   2.790   1.641 -0.5235  0.3421 -0.9788
 8109TIP3   OH248521   2.318   7.507   1.399  0.0084  0.7897  0.2421
 8109TIP3    H148522   2.317   7.431   1.341 -4.5621 -0.4601  1.5241
 8109TIP3    H248523   2.324   7.471   1.487 -0.5710  2.0331  0.8224
 8110TIP3   OH248524   1.255   3.562   2.250  0.2277 -0.1490  0.0967
 8110TIP3    H148525   1.337   3.529   2.287 -0.9572 -0.8848  2.2142
 8110TIP3    H248526   1.276   3.652   2.223  1.6283 -0.1973  0.9272
 8111TIP3   OH248527   0.766   5.553   2.310  0.0654  0.4710 -0.3382
 8111TIP3    H148528   0.818   5.625   2.272  1.9602 -1.4454 -1.6173
 8111TIP3    H248529   0.824   5.515   2.376 -1.4038  0.8115  1.2251
 8112TIP3   OH248530   1.348   6.133   1.270  0.2146 -0.7336 -0.5678
 8112TIP3    H148531   1.316   6.189   1.199  0.7251  0.6118  0.2165
 8112TIP3    H248532   1.412   6.188   1.316  1.0160 -2.1131  0.0143
 8113TIP3   OH248533   2.380   5.483   1.100  0.0086 -0.7743  0.1615
 8113TIP3    H148534   2.406   5.392   1.083 -1.5818 -1.3105  0.3616
 8113TIP3    H248535   2.316   5.502   1.032  0.4067  0.2535  0.0617
 8114TIP3   OH248536   3.404   1.915   2.966  0.4975  0.3160  0.1285
 8114TIP3    H148537   3.430   1.861   3.041  0.4404 -0.6034 -0.4854
 8114TIP3    H248538   3.370   1.996   3.004 -0.9690 -0.7318  1.1716
 8115TIP3   OH248539   6.642   5.510   3.238 -0.6169  0.2951  0.4347
 8115TIP3    H148540   6.592   5.428   3.232  0.5346 -0.4632  0.8838
 8115TIP3    H248541   6.575   5.578   3.243 -1.6213 -0.4334 -1.8521
 8116TIP3   OH248542   5.544   2.717   2.255  0.2550 -0.8144 -0.4800
 8116TIP3    H148543   5.638   2.731   2.243  0.3842 -1.1946  0.0578
 8116TIP3    H248544   5.538   2.662   2.333 -0.4584  0.0294  0.0860
 8117TIP3   OH248545   4.658   2.833   1.071 -0.0370 -0.4944  0.3503
 8117TIP3    H148546   4.668   2.917   1.026  0.2837  0.4408  2.0946
 8117TIP3    H248547   4.676   2.767   1.003 -2.0119  0.7441 -1.5091
 8118TIP3   OH248548   6.257   7.100   1.131  0.6128  0.1632 -0.0054
 8118TIP3    H148549   6.226   7.010   1.141 -0.3321  0.5842  1.0897
 8118TIP3    H248550   6.259   7.135   1.220  2.1111  0.8765 -0.2832
 8119TIP3   OH248551   7.303   3.115   2.291 -0.2957 -0.4856  0.1719
 8119TIP3    H148552   7.297   3.031   2.337  1.8115 -0.2957  0.9251
 8119TIP3    H248553   7.367   3.099   2.221 -1.3880 -0.0212 -0.9635
 8120TIP3   OH248554   7.192   6.406   3.126 -0.7435 -0.4657 -0.4419
 8120TIP3    H148555   7.170   6.494   3.095 -1.0238 -0.3249  0.1423
 8120TIP3    H248556   7.116   6.353   3.101 -0.1580 -0.7523 -1.6506
 8121TIP3   OH248557   3.434   5.831   1.384  0.2083  0.4447  0.0185
 8121TIP3    H148558   3.505   5.830   1.448 -1.1299  1.9698  1.6345
 8121TIP3    H248559   3.420   5.739   1.362  1.6466  0.0019  0.8425
 8122TIP3   OH248560   6.478   0.315   8.322  0.0044  0.2345 -0.6207
 8122TIP3    H148561   6.541   0.353   8.383  1.0450  0.8730 -2.0393
 8122TIP3    H248562   6.395   0.313   8.371  0.6598  1.2929  0.5853
 8123TIP3   OH248563   2.069   0.908   1.409  0.2542 -0.2437  0.2827
 8123TIP3    H148564   2.125   0.973   1.366  0.9592 -0.3070  1.0748
 8123TIP3    H248565   1.994   0.899   1.351  0.7352  0.3648 -0.4570
 8124TIP3   OH248566   4.078   1.690   2.317  0.2796  0.3514  0.2560
 8124TIP3    H148567   4.118   1.774   2.340  1.2917  0.2508 -1.0160
 8124TIP3    H248568   4.132   1.656   2.246 -1.2684 -0.4807 -0.5795
 8125TIP3   OH248569   5.104   5.187   0.846 -0.4180 -0.2544 -0.4841
 8125TIP3    H148570   5.077   5.122   0.912  1.0759 -0.7301 -0.3007
 8125TIP3    H248571   5.080   5.271   0.884  1.1915 -0.4611  1.1089
 8126TIP3   OH248572   3.460   5.018   1.380 -0.1006  0.0832  0.0204
 8126TIP3    H148573   3.446   5.113   1.373 -1.0693  0.0697  1.3676
 8126TIP3    H248574   3.414   4.982   1.305  1.8903  0.7571 -1.6304
 8127TIP3   OH248575   3.950   6.855   0.453  0.2381  0.3455  0.3384
 8127TIP3    H148576   3.989   6.914   0.517 -0.1339  1.6417 -0.5776
 8127TIP3    H248577   3.972   6.894   0.368 -2.4228  0.8004 -0.2388
 8128TIP3   OH248578   2.208   1.826   2.716 -0.0168  0.4072 -0.6083
 8128TIP3    H148579   2.119   1.848   2.740 -0.2426 -1.0519 -0.0356
 8128TIP3    H248580   2.259   1.838   2.796 -0.0940 -0.8306 -0.3636
 8129TIP3   OH248581   3.640   0.120   0.691 -0.2278  0.4540 -0.9373
 8129TIP3    H148582   3.728   0.125   0.654  0.1221 -0.1851 -0.2090
 8129TIP3    H248583   3.595   0.056   0.636 -0.5291  1.4259 -1.8603
 8130TIP3   OH248584   0.892   3.122   3.347 -0.2800  0.1677  0.4617
 8130TIP3    H148585   0.977   3.162   3.331 -0.5930  0.9697  0.7448
 8130TIP3    H248586   0.838   3.194   3.380 -1.0310 -0.3579  0.3930
 8131TIP3   OH248587   3.189   3.735   2.504  0.1482  0.1599 -0.7233
 8131TIP3    H148588   3.254   3.758   2.570  0.2707 -1.7298 -0.1503
 8131TIP3    H248589   3.215   3.648   2.473 -3.0829 -1.5119  0.8321
 8132TIP3   OH248590   7.510   2.425   1.583  0.6906  0.1862  0.0969
 8132TIP3    H148591   7.600   2.414   1.554  0.6254 -1.5639  0.4540
 8132TIP3    H248592   7.479   2.503   1.536  2.2169  0.5416 -0.3876
 8133TIP3   OH248593   5.988   2.607   2.492 -0.1297  0.0714  0.6820
 8133TIP3    H148594   6.028   2.667   2.430  0.9692 -0.7685  0.5529
 8133TIP3    H248595   6.061   2.565   2.537 -0.8154 -1.5467  0.3950
 8134TIP3   OH248596   6.821   6.634   8.948 -0.5141  0.4328  0.2332
 8134TIP3    H148597   6.742   6.689   8.950 -1.2216 -0.5544  0.1395
 8134TIP3    H248598   6.833   6.607   9.039 -1.8652 -1.5693 -0.1189
 8135TIP3   OH248599   7.004   2.187   1.582  0.7298 -0.6777  0.4114
 8135TIP3    H148600   7.089   2.176   1.539  0.3804 -2.5551  0.1279
 8135TIP3    H248601   6.954   2.241   1.521  1.2684 -0.6855 -0.0567
 8136TIP3   OH248602   2.666   1.326   1.588 -0.0158 -0.2759  0.6780
 8136TIP3    H148603   2.691   1.261   1.523 -1.1861  0.1811 -0.2600
 8136TIP3    H248604   2.633   1.274   1.662 -1.5639 -0.7922 -0.3171
 8137TIP3   OH248605   2.416   2.557   0.995  0.2952  0.8482  0.5050
 8137TIP3    H148606   2.427   2.485   0.933 -1.7833  0.1032  0.8982
 8137TIP3    H248607   2.338   2.603   0.965 -1.0928  0.1546  2.7389
 8138TIP3   OH248608   7.335   4.179   1.659  0.4441  0.2632 -0.1706
 8138TIP3    H148609   7.314   4.093   1.623 -1.0677  1.1889 -1.6044
 8138TIP3    H248610   7.382   4.160   1.741  0.3179 -1.8967 -0.5481
 8139TIP3   OH248611   5.044   4.988   1.052  0.1729 -0.2117  0.0774
 8139TIP3    H148612   4.976   4.940   1.005  1.1681 -0.2641 -1.3874
 8139TIP3    H248613   4.997   5.034   1.122 -1.6969  1.3077 -2.0151
 8140TIP3   OH248614   4.643   2.491   1.372  0.1584 -0.0819  0.1590
 8140TIP3    H148615   4.706   2.423   1.351  1.6267  1.4261 -0.5579
 8140TIP3    H248616   4.603   2.514   1.288 -1.6635 -1.2335  0.6373
 8141TIP3   OH248617   7.033   5.459   1.865 -0.0994 -0.1557  0.4732
 8141TIP3    H148618   6.964   5.503   1.915  1.1256  1.7982  0.5463
 8141TIP3    H248619   7.064   5.389   1.923 -0.6177  0.2638  1.2719
 8142TIP3   OH248620   5.032   2.532   0.841 -0.0271  0.5336 -0.0010
 8142TIP3    H148621   5.066   2.443   0.831  1.6220  1.1113  0.1145
 8142TIP3    H248622   4.981   2.529   0.922 -0.3773 -0.4036 -0.2383
 8143TIP3   OH248623   0.936   3.269   2.580  0.5743 -0.0643 -0.1383
 8143TIP3    H148624   0.861   3.231   2.535  0.8788  0.5043 -1.1530
 8143TIP3    H248625   0.902   3.348   2.621  0.6382  0.2808 -0.7338
 8144TIP3   OH248626   0.566   7.111   1.555 -0.8372  0.2396 -0.4972
 8144TIP3    H148627   0.499   7.042   1.551 -0.2873 -0.3385  0.2404
 8144TIP3    H248628   0.637   7.078   1.500 -0.9607  0.6622 -0.9242
 8145TIP3   OH248629   6.503   1.782   1.502 -0.1173 -0.1410  0.5025
 8145TIP3    H148630   6.480   1.816   1.416  0.5824  1.3526  0.8705
 8145TIP3    H248631   6.569   1.715   1.485 -0.3826 -0.2398 -0.1507
 8146TIP3   OH248632   3.229   3.334   1.528  0.4028  0.0084  0.5731
 8146TIP3    H148633   3.264   3.311   1.615  1.3277 -0.3168  0.1305
 8146TIP3    H248634   3.282   3.410   1.501 -0.4302  0.6267  0.6286
 8147TIP3   OH248635   0.702   0.375   2.828  0.3415 -0.7934  0.0278
 8147TIP3    H148636   0.703   0.457   2.876  0.9615 -1.2638  0.8234
 8147TIP3    H248637   0.651   0.315   2.883 -1.9868 -0.3938 -1.5130
 8148TIP3   OH248638   1.225   0.892   2.365  0.1757  0.1686  0.1981
 8148TIP3    H148639   1.314   0.926   2.368 -0.2158  1.1932  0.4407
 8148TIP3    H248640   1.236   0.801   2.337  1.5055 -0.4700  2.5330
 8149TIP3   OH248641   3.224   6.528   2.330  0.2763  0.2399  0.0673
 8149TIP3    H148642   3.244   6.547   2.239  0.5120  0.0824  0.0871
 8149TIP3    H248643   3.306   6.496   2.368  0.3653  0.9677  0.5176
 8150TIP3   OH248644   1.202   0.561   2.732 -0.2856 -0.0191 -0.3951
 8150TIP3    H148645   1.242   0.496   2.789  1.2343  1.4289  0.2839
 8150TIP3    H248646   1.265   0.573   2.661 -1.2713 -0.3944 -1.3552
 8151TIP3   OH248647   2.274   2.270   2.044 -0.3320 -0.1975 -0.4874
 8151TIP3    H148648   2.347   2.307   1.994  1.6671 -0.0169  2.3408
 8151TIP3    H248649   2.304   2.183   2.070 -0.9881 -0.0381  0.9013
 8152TIP3   OH248650   4.385   3.458   2.132 -0.3936  0.0207 -0.2618
 8152TIP3    H148651   4.454   3.459   2.198  0.3476 -1.1419 -0.9815
 8152TIP3    H248652   4.331   3.383   2.155 -0.6592  0.1472 -0.4632
 8153TIP3   OH248653   5.653   1.365   2.224 -0.0830 -0.6715 -0.0819
 8153TIP3    H148654   5.711   1.429   2.182  0.4648 -1.3739 -0.4064
 8153TIP3    H248655   5.585   1.419   2.266  0.3262  0.1190 -0.4079
 8154TIP3   OH248656   2.763   1.542   3.102  0.3612  0.2642  0.3743
 8154TIP3    H148657   2.825   1.538   3.175 -1.2033  1.5958  1.8535
 8154TIP3    H248658   2.763   1.635   3.077  1.7485 -0.3339 -2.1872
 8155TIP3   OH248659   3.186   6.860   2.702  0.0131 -0.1300 -0.4090
 8155TIP3    H148660   3.160   6.792   2.639  0.8938  0.1931 -1.1473
 8155TIP3    H248661   3.188   6.815   2.786  0.4644 -1.0082 -0.8708
 8156TIP3   OH248662   0.128   5.873   0.580  0.3934 -0.3099  0.6556
 8156TIP3    H148663   0.116   5.778   0.585  1.0368 -0.5513 -1.4152
 8156TIP3    H248664   0.219   5.888   0.603  0.4018 -0.2326  0.5729
 8157TIP3   OH248665   5.951   4.357   0.791  0.1229 -0.1576  0.0836
 8157TIP3    H148666   6.006   4.361   0.869 -0.4102  0.5314  0.4410
 8157TIP3    H248667   5.869   4.400   0.817 -0.5311 -1.0236 -0.4793
 8158TIP3   OH248668   2.434   3.082   0.852 -0.4616  0.0754  0.0496
 8158TIP3    H148669   2.478   3.096   0.768 -0.0225 -0.3089  0.2064
 8158TIP3    H248670   2.432   3.169   0.893 -0.5760  0.2421 -0.3102
 8159TIP3   OH248671   2.164   0.899   0.813 -0.1088  0.2111 -0.3774
 8159TIP3    H148672   2.206   0.861   0.890 -1.5175 -1.4058 -0.3280
 8159TIP3    H248673   2.143   0.989   0.838  1.1682  0.3069  0.4094
 8160TIP3   OH248674   7.308   5.096   2.175 -0.2934 -0.4426  0.5096
 8160TIP3    H148675   7.360   5.110   2.255 -0.1147 -1.6676  0.6242
 8160TIP3    H248676   7.254   5.020   2.195  0.5138 -1.4293 -0.8982
 8161TIP3   OH248677   4.997   4.064   2.326 -0.8780 -0.1583 -0.7229
 8161TIP3    H148678   5.058   4.107   2.266 -1.8406 -0.0607 -1.6665
 8161TIP3    H248679   5.035   4.077   2.413 -0.8207  2.0651 -1.0325
 8162TIP3   OH248680   7.341   6.607   1.844 -0.6383  0.1461  0.0368
 8162TIP3    H148681   7.372   6.620   1.934  0.9011  1.1425 -0.5968
 8162TIP3    H248682   7.287   6.684   1.826  0.1243  0.6101 -0.3105
 8163TIP3   OH248683   3.148   4.650   0.799 -0.2343  0.3461 -0.7005
 8163TIP3    H148684   3.129   4.734   0.757  0.4288  1.1421  0.5149
 8163TIP3    H248685   3.063   4.613   0.820 -0.5466  0.4571 -1.6838
 8164TIP3   OH248686   5.934   0.683   0.683 -0.6499  0.5483  0.2798
 8164TIP3    H148687   5.877   0.607   0.695 -0.7049  0.7658  1.5100
 8164TIP3    H248688   5.874   0.755   0.664 -0.6813  0.5169  0.2594
 8165TIP3   OH248689   2.539   1.056   1.045  0.5662  0.2981  0.2937
 8165TIP3    H148690   2.461   1.033   1.097  2.2561 -1.2932  2.2716
 8165TIP3    H248691   2.515   1.034   0.955 -1.4069  0.2710  0.7748
 8166TIP3   OH248692   0.547   6.107   2.717  0.4623  0.1353 -0.4683
 8166TIP3    H148693   0.490   6.055   2.774  0.2725  0.3994 -0.4140
 8166TIP3    H248694   0.493   6.181   2.690  1.1074  0.9778  0.4699
 8167TIP3   OH248695   7.677   2.920   2.878  0.1462  0.3092  0.0039
 8167TIP3    H148696   7.719   2.989   2.930  0.7530  0.5759 -0.8315
 8167TIP3    H248697   7.708   2.934   2.789  0.4080 -1.1416 -0.1520
 8168TIP3   OH248698   5.830   6.909   2.078  0.2524  0.5299  0.2266
 8168TIP3    H148699   5.832   6.992   2.029 -0.1892  0.5130  0.1678
 8168TIP3    H248700   5.749   6.867   2.048 -0.0638  0.5528  1.0315
 8169TIP3   OH248701   4.746   5.178   2.859  0.0317  0.0727 -0.8811
 8169TIP3    H148702   4.687   5.162   2.932 -1.5473  0.2034 -2.0722
 8169TIP3    H248703   4.783   5.265   2.877  0.2043 -0.1955  0.0980
 8170TIP3   OH248704   1.091   7.108   2.517 -0.3401  0.1919  1.0039
 8170TIP3    H148705   1.171   7.085   2.565 -0.5632 -1.8185  0.5330
 8170TIP3    H248706   1.063   7.025   2.477 -2.9617  0.7086  1.5878
 8171TIP3   OH248707   0.906   1.421   1.780  0.3452  0.2813 -0.2775
 8171TIP3    H148708   0.980   1.425   1.841 -0.4527  0.0474  0.7190
 8171TIP3    H248709   0.838   1.373   1.827 -0.6324  0.9390 -0.9797
 8172TIP3   OH248710   5.701   7.562   3.168  0.4292 -0.1397  0.3709
 8172TIP3    H148711   5.790   7.590   3.190  0.6552  0.5717 -1.2831
 8172TIP3    H248712   5.648   7.640   3.184  0.2542 -0.2727  0.4323
 8173TIP3   OH248713   0.798   5.807   1.481 -0.0418  0.2247 -0.0156
 8173TIP3    H148714   0.893   5.817   1.472 -0.3085  3.3994 -0.5609
 8173TIP3    H248715   0.776   5.734   1.423  2.1638 -1.4506  1.1356
 8174TIP3   OH248716   5.228   1.564   1.695  0.1656 -0.3133 -0.0448
 8174TIP3    H148717   5.292   1.589   1.762  1.7674  1.8529 -2.1822
 8174TIP3    H248718   5.205   1.647   1.653 -0.8487 -1.5619 -2.0843
 8175TIP3   OH248719   7.283   0.313   1.157  0.4664  0.3294 -0.1763
 8175TIP3    H148720   7.360   0.335   1.209  0.2261  0.2583  0.2131
 8175TIP3    H248721   7.229   0.393   1.159 -0.4827 -0.3101  1.3699
 8176TIP3   OH248722   7.541   2.787   0.361 -0.0765  0.3112  0.0039
 8176TIP3    H148723   7.590   2.733   0.422 -0.1095 -1.7232 -1.6911
 8176TIP3    H248724   7.603   2.855   0.334  0.3455  0.4437  1.2195
 8177TIP3   OH248725   0.758   2.719   2.964  0.3423 -0.1339 -0.7199
 8177TIP3    H148726   0.773   2.796   3.019 -0.5653 -0.8775  0.6396
 8177TIP3    H248727   0.669   2.731   2.931  0.9472  0.3928 -2.2218
 8178TIP3   OH248728   2.350   4.340   3.168 -0.3656  0.3541  0.4201
 8178TIP3    H148729   2.359   4.327   3.074 -1.8907  1.2197  0.1309
 8178TIP3    H248730   2.429   4.388   3.193 -0.2614  0.7098 -0.5454
 8179TIP3   OH248731   3.880   0.376   2.219 -0.4596 -0.8183 -0.2512
 8179TIP3    H148732   3.832   0.361   2.137 -0.8886  1.0361 -0.3833
 8179TIP3    H248733   3.898   0.470   2.219  3.2600 -1.3744 -0.2308
 8180TIP3   OH248734   7.042   4.424   2.718  0.0575  0.1613 -0.2567
 8180TIP3    H148735   7.055   4.330   2.733  0.6797 -0.2562 -2.8588
 8180TIP3    H248736   6.973   4.427   2.652 -0.0932  1.5703 -0.0508
 8181TIP3   OH248737   2.002   5.929   3.175  0.5402  0.4567 -0.1637
 8181TIP3    H148738   2.092   5.936   3.207 -0.1291  0.7689  1.7416
 8181TIP3    H248739   1.952   5.989   3.230 -0.8036  0.5235 -1.4061
 8182TIP3   OH248740   3.598   1.565   1.725  0.2270  0.7594 -0.3817
 8182TIP3    H148741   3.679   1.529   1.689 -0.1519  1.0724 -1.5990
 8182TIP3    H248742   3.538   1.568   1.650 -0.9957  0.2968  0.5436
 8183TIP3   OH248743   2.820   2.827   1.437 -0.3891  0.0328  0.3776
 8183TIP3    H148744   2.759   2.761   1.469 -0.4917 -0.5373 -0.9194
 8183TIP3    H248745   2.793   2.843   1.347  0.0963  1.3152  0.4387
 8184TIP3   OH248746   1.982   5.248   2.592 -0.0005  0.3916 -0.3053
 8184TIP3    H148747   1.900   5.221   2.634 -0.3840  2.6173  0.5436
 8184TIP3    H248748   2.050   5.203   2.642 -0.6601 -1.2407 -0.8173
 8185TIP3   OH248749   0.464   2.765   2.344  0.7263 -0.6380 -0.5745
 8185TIP3    H148750   0.420   2.801   2.267 -0.2632  2.3643  1.2003
 8185TIP3    H248751   0.436   2.674   2.349  1.0717 -1.0323 -3.8452
 8186TIP3   OH248752   2.339   4.254   1.228  0.0260  0.1110 -0.2295
 8186TIP3    H148753   2.411   4.251   1.166 -0.1595 -1.1018 -0.4178
 8186TIP3    H248754   2.381   4.267   1.313  0.5121 -0.8285 -0.3078
 8187TIP3   OH248755   3.395   0.407   1.603 -0.1489  0.3592  0.9594
 8187TIP3    H148756   3.464   0.424   1.539  1.5932 -1.0569  2.3719
 8187TIP3    H248757   3.338   0.343   1.560  0.5161  0.0740  0.4807
 8188TIP3   OH248758   0.345   3.214   0.953 -0.2250  0.1631  0.1193
 8188TIP3    H148759   0.351   3.125   0.987 -1.3865  0.7405  1.9552
 8188TIP3    H248760   0.427   3.227   0.905  2.0849 -0.4053  3.5458
 8189TIP3   OH248761   3.321   1.196   1.646  0.0804 -0.5437 -0.4414
 8189TIP3    H148762   3.333   1.247   1.726  1.9369 -0.9056 -0.4296
 8189TIP3    H248763   3.292   1.110   1.676 -1.7395  0.0708 -0.3669
 8190TIP3   OH248764   6.392   2.753   2.076 -0.2627 -0.3923 -0.1468
 8190TIP3    H148765   6.438   2.701   2.009 -0.2187 -0.3689 -0.1348
 8190TIP3    H248766   6.415   2.711   2.159  0.6651  0.3091 -0.0360
 8191TIP3   OH248767   2.875   6.938   3.153 -0.2040 -0.3263  0.5001
 8191TIP3    H148768   2.836   6.901   3.073  2.2171 -1.4691 -0.2640
 8191TIP3    H248769   2.889   6.862   3.209 -1.5751  0.4296  1.9457
 8192TIP3   OH248770   3.414   3.856   1.346  0.2482 -0.2947  0.3662
 8192TIP3    H148771   3.474   3.803   1.292  0.6349 -1.7891  2.1521
 8192TIP3    H248772   3.341   3.876   1.288  1.6831  0.1525 -1.3835
 8193TIP3   OH248773   0.273   6.537   2.415 -0.5639 -0.0813 -0.1697
 8193TIP3    H148774   0.317   6.456   2.440  0.9026  1.2624  1.9514
 8193TIP3    H248775   0.183   6.526   2.446 -0.7823 -1.3846 -1.1571
 8194TIP3   OH248776   0.889   7.674   1.536  0.2203 -0.2199 -0.3211
 8194TIP3    H148777   0.800   7.703   1.551  0.3779 -0.2292  0.6707
 8194TIP3    H248778   0.943   7.749   1.560  0.4323  0.5835 -2.9723
 8195TIP3   OH248779   7.179   5.802   2.021 -0.0326 -0.1840  0.3625
 8195TIP3    H148780   7.153   5.772   1.934 -1.4816 -1.4735  1.1915
 8195TIP3    H248781   7.105   5.779   2.077  0.9350  0.4909  1.9662
 8196TIP3   OH248782   5.085   4.831   0.435 -0.1840  0.3379 -0.0177
 8196TIP3    H148783   5.060   4.787   0.353 -0.2126 -0.0693  0.2089
 8196TIP3    H248784   5.019   4.804   0.498  0.1561  0.2020  0.2841
 8197TIP3   OH248785   5.914   1.040   3.242 -0.0473 -0.6635  0.1594
 8197TIP3    H148786   5.893   1.115   3.187  2.6599  0.0780 -0.0098
 8197TIP3    H248787   5.851   0.973   3.216 -2.0894  1.2789 -0.1790
 8198TIP3   OH248788   0.001   4.057   3.256 -0.0836  0.1704 -0.7123
 8198TIP3    H148789   0.019   4.147   3.283 -3.3148  0.7021  0.1175
 8198TIP3    H248790  -0.016   4.063   3.162  2.4193 -0.1351 -1.2448
 8199TIP3   OH248791   0.091   2.223   1.037  0.5505 -0.3617  0.1478
 8199TIP3    H148792   0.084   2.292   1.103 -0.3023 -0.3278  0.0271
 8199TIP3    H248793   0.013   2.169   1.050  0.3348 -0.3117 -0.8766
 8200TIP3   OH248794   4.241   4.325   1.799 -0.1311  0.3796 -0.1324
 8200TIP3    H148795   4.258   4.234   1.778  0.7890 -0.0730  2.3248
 8200TIP3    H248796   4.328   4.365   1.805 -0.4090  0.8357  1.1081
 8201TIP3   OH248797   1.176   5.277   2.340  0.1156  0.3115 -0.5004
 8201TIP3    H148798   1.153   5.184   2.348  0.9639  0.0752 -0.6985
 8201TIP3    H248799   1.100   5.323   2.375  0.1563 -0.4858  0.7156
 8202TIP3   OH248800   4.094   2.869   0.743  0.5328  0.2914  0.0122
 8202TIP3    H148801   4.066   2.879   0.652  0.0314  0.8749  0.2254
 8202TIP3    H248802   4.155   2.795   0.741 -0.2085 -0.3326 -0.6375
 8203TIP3   OH248803   5.020   3.027   2.451  0.1612  0.7077 -0.2247
 8203TIP3    H148804   5.115   3.035   2.436  0.2600 -0.3619 -0.2037
 8203TIP3    H248805   4.982   3.099   2.401  0.8303 -0.0899 -1.9598
 8204TIP3   OH248806   3.582   2.059   3.336  0.4087  0.5911 -0.0852
 8204TIP3    H148807   3.624   2.139   3.366  0.0175  1.5037 -1.8094
 8204TIP3    H248808   3.642   2.024   3.270 -0.0513  0.1830 -0.2960
 8205TIP3   OH248809   2.794   3.658   2.462  0.1016  0.0660 -0.7039
 8205TIP3    H148810   2.716   3.703   2.430 -0.6809 -0.6571  0.1403
 8205TIP3    H248811   2.864   3.722   2.451 -0.5416  0.6227 -1.7586
 8206TIP3   OH248812   1.342   7.314   1.175 -0.5435  0.1543 -0.0266
 8206TIP3    H148813   1.319   7.407   1.173 -2.4999 -0.2836 -0.1438
 8206TIP3    H248814   1.355   7.295   1.268 -0.6106  0.4396  0.0427
 8207TIP3   OH248815   2.800   6.698   1.738  0.8425  0.3251  0.0748
 8207TIP3    H148816   2.811   6.774   1.682  0.6447  0.7332  0.5784
 8207TIP3    H248817   2.888   6.662   1.747  0.9205  0.4335 -0.2459
 8208TIP3   OH248818   2.394   4.827   0.844  0.6226 -0.3052  0.4990
 8208TIP3    H148819   2.335   4.757   0.871  1.0904 -1.1701 -0.6684
 8208TIP3    H248820   2.337   4.890   0.798  0.3266 -0.2740  0.9055
 8209TIP3   OH248821   3.389   3.322   2.583  0.0176  0.3948  0.1162
 8209TIP3    H148822   3.467   3.345   2.634 -0.7659 -1.5879  2.4009
 8209TIP3    H248823   3.415   3.243   2.535 -0.7004 -0.6062  1.3281
 8210TIP3   OH248824   0.776   5.704   2.688  0.4869  0.1478 -0.3833
 8210TIP3    H148825   0.696   5.664   2.655 -2.5393  1.0994  4.6677
 8210TIP3    H248826   0.771   5.795   2.659 -0.4491  0.2555  0.0769
 8211TIP3   OH248827   7.654   1.800   1.830  0.3120  0.4039 -0.0251
 8211TIP3    H148828   7.738   1.759   1.808  0.9397  1.8516 -0.4103
 8211TIP3    H248829   7.647   1.791   1.925  1.1768  0.7811  0.0812
 8212TIP3   OH248830   5.114   3.121   2.145  0.4141  0.0883 -0.1491
 8212TIP3    H148831   5.020   3.122   2.131  0.4341 -1.0292 -0.4197
 8212TIP3    H248832   5.125   3.085   2.233  0.6325 -1.3984 -0.7544
 8213TIP3   OH248833   7.664   2.549   0.948  0.7253  0.1786 -0.3369
 8213TIP3    H148834   7.602   2.501   1.003  2.5544 -2.2589 -0.2360
 8213TIP3    H248835   7.678   2.491   0.873  3.8705 -0.0884  0.3197
 8214TIP3   OH248836   4.835   6.268   1.457 -0.2352 -0.2209  0.2526
 8214TIP3    H148837   4.784   6.343   1.426  0.0533 -0.0579  0.1672
 8214TIP3    H248838   4.777   6.223   1.518 -0.5502 -0.1436  0.0129
 8215TIP3   OH248839   2.377   3.644   1.753  0.2363 -0.0205 -0.3337
 8215TIP3    H148840   2.434   3.579   1.795  1.7629 -0.5172 -2.9553
 8215TIP3    H248841   2.424   3.726   1.762 -1.0650  0.5799  1.7904
 8216TIP3   OH248842   0.975   1.880   0.601  0.7178 -0.0957  0.2798
 8216TIP3    H148843   0.988   1.785   0.602  0.8230 -0.1851 -2.1214
 8216TIP3    H248844   0.880   1.890   0.595  0.7168 -0.0750  0.3390
 8217TIP3   OH248845   0.498   0.209   1.663  0.2008  0.6289 -0.0033
 8217TIP3    H148846   0.476   0.154   1.587  0.7445  0.0154  0.2777
 8217TIP3    H248847   0.587   0.238   1.647  1.1499 -1.2774  1.4059
 8218TIP3   OH248848   3.180   0.563   1.215  0.0136  0.0677  0.0727
 8218TIP3    H148849   3.241   0.583   1.144  0.4842  1.0635  0.7285
 8218TIP3    H248850   3.213   0.481   1.252 -1.1512 -1.3258 -1.8090
 8219TIP3   OH248851   1.069   2.171   3.286 -0.0939 -0.2894 -0.1418
 8219TIP3    H148852   0.976   2.157   3.271  0.2113 -1.5086 -1.0441
 8219TIP3    H248853   1.104   2.084   3.307  0.7215  0.2711  0.9808
 8220TIP3   OH248854   6.985   4.767   0.920  0.1511  0.2162  0.5010
 8220TIP3    H148855   6.927   4.842   0.933  1.2648  1.2468 -0.2003
 8220TIP3    H248856   6.998   4.763   0.825 -0.2148 -1.1359  0.4938
 8221TIP3   OH248857   5.533   4.634   1.443  0.3022  0.3761 -0.3330
 8221TIP3    H148858   5.607   4.670   1.393 -0.2046  0.3995 -1.0771
 8221TIP3    H248859   5.522   4.695   1.516  1.3338  0.1046  0.0790
 8222TIP3   OH248860   0.702   4.119   1.785  0.5839  0.1759 -0.0851
 8222TIP3    H148861   0.774   4.165   1.742  2.2024  0.2470  2.4971
 8222TIP3    H248862   0.730   4.028   1.789 -0.4076 -0.1787 -0.8344
 8223TIP3   OH248863   2.623   6.744   2.701 -0.6284 -0.2477  0.2971
 8223TIP3    H148864   2.649   6.660   2.663  1.5531  0.5015  0.0038
 8223TIP3    H248865   2.618   6.804   2.626  1.6276  0.7421  0.8643
 8224TIP3   OH248866   1.531   6.841   1.295  0.2922 -0.6958  0.1759
 8224TIP3    H148867   1.534   6.937   1.300  1.8242 -0.5369 -2.1298
 8224TIP3    H248868   1.613   6.812   1.335  0.7974 -0.8752 -0.9402
 8225TIP3   OH248869   0.230   4.891   0.515  0.1655 -0.6025 -0.2072
 8225TIP3    H148870   0.189   4.834   0.580 -0.5067 -0.7126 -0.7172
 8225TIP3    H248871   0.163   4.902   0.447  0.6994 -0.1331 -0.6666
 8226TIP3   OH248872   1.245   1.016   1.359  0.2550 -0.0345  0.0919
 8226TIP3    H148873   1.336   1.027   1.388 -0.1783  2.2353  0.7954
 8226TIP3    H248874   1.233   1.084   1.292 -1.3262  0.7118  1.0747
 8227TIP3   OH248875   7.281   3.791   2.930 -0.4289  0.5393  0.2069
 8227TIP3    H148876   7.335   3.745   2.865  0.7860  1.6734  0.3600
 8227TIP3    H248877   7.192   3.760   2.913  0.1602 -0.8726 -0.5207
 8228TIP3   OH248878   7.380   0.132   0.975  0.1196 -0.0899  0.5310
 8228TIP3    H148879   7.432   0.062   1.014  0.1837 -0.3792 -0.0450
 8228TIP3    H248880   7.362   0.193   1.046  1.8730  0.4075  0.5808
 8229TIP3   OH248881   5.877   7.339   3.365 -0.1037  0.4304 -0.0708
 8229TIP3    H148882   5.897   7.409   3.303 -0.3139 -0.5546 -1.2915
 8229TIP3    H248883   5.784   7.320   3.350 -0.2608  0.4281  0.8280
 8230TIP3   OH248884   6.165   1.994   3.181 -0.1528  0.9572  0.6551
 8230TIP3    H148885   6.103   2.007   3.109 -0.1868 -0.9597  0.2741
 8230TIP3    H248886   6.151   1.903   3.208  1.2502  1.0362  1.7659
 8231TIP3   OH248887   7.108   3.860   1.835 -0.6730 -0.6163  0.0003
 8231TIP3    H148888   7.102   3.895   1.746  0.1555  0.5311  0.3677
 8231TIP3    H248889   7.155   3.778   1.825 -0.4571 -0.4279 -0.6104
 8232TIP3   OH248890   5.911   0.569   2.538  0.8525 -0.0455 -0.2060
 8232TIP3    H148891   5.981   0.508   2.515 -0.3359 -0.2008 -4.1947
 8232TIP3    H248892   5.831   0.525   2.510 -0.7686  0.9012  2.5000
 8233TIP3   OH248893   2.804   5.448   3.216  0.0935  0.6304  0.8015
 8233TIP3    H148894   2.845   5.529   3.249  0.9872 -0.3995  2.3429
 8233TIP3    H248895   2.871   5.409   3.161  0.8812 -0.5529  2.5191
 8234TIP3   OH248896   7.080   0.144   3.113 -0.0867  0.4578 -0.0145
 8234TIP3    H148897   7.119   0.073   3.063 -0.3641  1.0184 -1.0402
 8234TIP3    H248898   7.150   0.174   3.171  0.0015 -0.7005  0.5036
 8235TIP3   OH248899   1.111   0.901   2.645 -0.0971  0.1781 -0.2081
 8235TIP3    H148900   1.051   0.827   2.650  0.5603 -0.3114  0.7550
 8235TIP3    H248901   1.151   0.894   2.557  0.0113 -0.6582 -0.1038
 8236TIP3   OH248902   1.328   4.494   2.765 -0.1875 -0.2004  0.2993
 8236TIP3    H148903   1.263   4.557   2.734  0.2550 -0.2353 -0.7324
 8236TIP3    H248904   1.412   4.539   2.755  0.2765 -1.4324 -1.8115
 8237TIP3   OH248905   2.794   6.050   2.111  0.0582 -0.0005  0.6071
 8237TIP3    H148906   2.847   5.971   2.097 -1.8434 -0.9678 -1.8793
 8237TIP3    H248907   2.849   6.106   2.166  3.2619 -1.2763 -0.9997
 8238TIP3   OH248908   7.565   5.121   3.254  0.3511 -0.7629  0.0443
 8238TIP3    H148909   7.489   5.120   3.311 -0.9789  1.3953 -1.5232
 8238TIP3    H248910   7.544   5.060   3.183  0.2137 -0.4547 -0.1866
 8239TIP3   OH248911   4.790   6.867   2.417 -0.4089 -0.0932  0.3217
 8239TIP3    H148912   4.824   6.840   2.502  1.1229 -0.6228 -0.4307
 8239TIP3    H248913   4.848   6.938   2.390 -0.9623  0.1520 -0.2403
 8240TIP3   OH248914   6.605   3.044   1.623  0.0007  0.0382 -0.2873
 8240TIP3    H148915   6.607   2.990   1.702  0.2363 -1.4064 -1.2346
 8240TIP3    H248916   6.617   3.133   1.655  2.3578 -0.6917  1.1613
 8241TIP3   OH248917   6.767   5.391   1.564  0.1355 -0.0869 -0.1423
 8241TIP3    H148918   6.824   5.366   1.637 -0.2405  0.5296  0.3743
 8241TIP3    H248919   6.689   5.428   1.606  0.0361  0.5402 -0.8549
 8242TIP3   OH248920   7.678   3.096   1.250 -0.6472 -0.4472 -0.5106
 8242TIP3    H148921   7.607   3.044   1.286 -1.2599 -0.3713 -1.5805
 8242TIP3    H248922   7.696   3.058   1.164 -1.0298  1.0066 -1.2697
 8243TIP3   OH248923   1.614   0.626   1.495 -0.1358 -0.2120  0.0658
 8243TIP3    H148924   1.611   0.658   1.585  1.9340  1.4628 -0.3614
 8243TIP3    H248925   1.699   0.583   1.487  0.1913  0.6150 -1.3411
 8244TIP3   OH248926   2.147   0.586   0.526 -0.1982  0.0564 -0.1915
 8244TIP3    H148927   2.052   0.590   0.514 -0.2036 -1.1871 -0.6815
 8244TIP3    H248928   2.170   0.496   0.504  1.2092  0.5570 -0.8497
 8245TIP3   OH248929   3.649   3.792   2.049 -0.8603  0.0023  0.1559
 8245TIP3    H148930   3.687   3.876   2.023  1.4819 -0.9158  0.3621
 8245TIP3    H248931   3.622   3.752   1.966 -1.0491  0.5385 -0.0463
 8246TIP3   OH248932   1.256   2.676   1.474 -0.1684  0.4606  0.3110
 8246TIP3    H148933   1.277   2.650   1.384 -1.5682  1.7446 -0.4382
 8246TIP3    H248934   1.313   2.622   1.529  0.1198 -0.9702 -1.3047
 8247TIP3   OH248935   2.520   3.339   0.932  0.6779  0.4232  0.6680
 8247TIP3    H148936   2.527   3.412   0.870 -2.9275 -0.3637 -0.9212
 8247TIP3    H248937   2.466   3.374   1.003 -0.9470 -0.5726 -0.0315
 8248TIP3   OH248938   5.029   5.693   2.890  0.0292 -0.7176 -0.1107
 8248TIP3    H148939   5.123   5.695   2.906  0.0686 -0.1239 -0.3972
 8248TIP3    H248940   5.002   5.784   2.897 -0.1733 -0.5904 -2.1211
 8249TIP3   OH248941   6.522   5.564   1.506 -0.3078  0.2925 -0.3802
 8249TIP3    H148942   6.468   5.512   1.446  0.6637 -0.6933 -0.4279
 8249TIP3    H248943   6.459   5.609   1.561 -1.2030  0.2713 -1.3532
 8250TIP3   OH248944   4.269   1.855   1.418  0.0460  0.1888 -0.4822
 8250TIP3    H148945   4.265   1.928   1.357  0.8661  0.6312 -0.0286
 8250TIP3    H248946   4.363   1.839   1.430 -0.1085 -0.1692  0.3207
 8251TIP3   OH248947   4.066   4.144   0.701 -0.3948  0.0979 -0.4812
 8251TIP3    H148948   4.028   4.154   0.788  0.8599  0.9330  0.0110
 8251TIP3    H248949   4.107   4.229   0.684 -1.1975  0.1721 -2.1914
 8252TIP3   OH248950   3.274   6.083   1.089  0.0204  0.6631 -0.0413
 8252TIP3    H148951   3.185   6.109   1.111 -0.7001 -1.1782 -0.6043
 8252TIP3    H248952   3.328   6.120   1.159 -1.3124  0.8615  0.9221
 8253TIP3   OH248953   6.265   5.659   1.658 -0.0921  0.0775  0.2057
 8253TIP3    H148954   6.285   5.706   1.739 -0.4954 -1.6824  1.3663
 8253TIP3    H248955   6.182   5.615   1.675  0.2669 -1.0564 -0.8416
 8254TIP3   OH248956   6.197   0.502   3.262 -0.2992  0.3908  0.3479
 8254TIP3    H148957   6.249   0.547   3.196 -0.8666  0.9351  0.2646
 8254TIP3    H248958   6.106   0.526   3.242 -0.6277 -0.8603  0.2498
 8255TIP3   OH248959   5.240   7.025   0.785 -0.7390 -0.3832 -0.4676
 8255TIP3    H148960   5.278   7.064   0.863 -0.6468  2.1141 -1.6655
 8255TIP3    H248961   5.226   6.933   0.808  1.5194 -0.2988  1.6402
 8256TIP3   OH248962   7.622   0.988   3.277 -0.1733 -0.0018  0.5689
 8256TIP3    H148963   7.642   0.959   3.366 -1.5998 -2.3484  0.2085
 8256TIP3    H248964   7.527   0.983   3.270 -0.1889  1.2480 -0.7667
 8257TIP3   OH248965   1.872   3.672   2.419  0.2301 -0.2024 -0.1293
 8257TIP3    H148966   1.885   3.728   2.342  1.4361  0.9373  0.8632
 8257TIP3    H248967   1.872   3.732   2.493 -0.4464 -1.3306  0.8205
 8258TIP3   OH248968   3.404   7.513   2.018  0.0325  0.0290 -0.0532
 8258TIP3    H148969   3.479   7.547   1.969 -0.1089 -1.9474 -1.7352
 8258TIP3    H248970   3.435   7.433   2.059 -0.9376 -0.3833 -0.0876
 8259TIP3   OH248971   0.395   4.109   2.893 -0.1055 -0.3202  1.1492
 8259TIP3    H148972   0.483   4.132   2.921  0.5329  0.3811 -1.2001
 8259TIP3    H248973   0.340   4.183   2.921  0.3515 -0.0039  1.2153
 8260TIP3   OH248974   0.642   6.771   1.270 -0.3773  0.2988 -0.5612
 8260TIP3    H148975   0.711   6.759   1.205 -1.2765  0.2049 -1.5287
 8260TIP3    H248976   0.580   6.701   1.253 -0.1570 -0.3396  1.0730
 8261TIP3   OH248977   1.708   1.573   1.611  0.2917 -0.4750 -0.1287
 8261TIP3    H148978   1.678   1.643   1.668 -0.3588  0.5051 -1.6109
 8261TIP3    H248979   1.647   1.501   1.627  0.9760 -0.7443  1.4212
 8262TIP3   OH248980   1.913   3.011   1.276 -0.5163 -0.7546  0.1189
 8262TIP3    H148981   1.839   2.997   1.335 -1.6614 -1.2853 -1.3662
 8262TIP3    H248982   1.872   3.028   1.191  1.0717 -0.2470 -0.5765
 8263TIP3   OH248983   1.385   3.363   2.387 -0.2897 -0.2691 -0.5204
 8263TIP3    H148984   1.308   3.409   2.418 -0.0169 -0.1944  0.0508
 8263TIP3    H248985   1.458   3.399   2.438  0.4235  0.9727 -2.2985
 8264TIP3   OH248986   3.024   2.379   1.139 -0.1847 -0.4219 -0.6275
 8264TIP3    H148987   3.113   2.378   1.105 -0.6120  0.4179 -1.8322
 8264TIP3    H248988   3.012   2.468   1.173  0.3841 -1.3361  2.2943
 8265TIP3   OH248989   5.250   1.390   0.612  0.2812  0.5138 -0.5890
 8265TIP3    H148990   5.338   1.415   0.640  0.2750 -0.2091  0.0890
 8265TIP3    H248991   5.265   1.317   0.551  0.1011 -0.6754  0.7306
 8266TIP3   OH248992   6.570   5.578   0.934 -0.2350  0.1784  0.5998
 8266TIP3    H148993   6.602   5.571   1.024  3.1060 -1.2846 -0.5236
 8266TIP3    H248994   6.618   5.652   0.897  0.1595 -0.6200 -0.5452
 8267TIP3   OH248995   6.305   0.612   2.085 -0.1116 -0.7818  0.6553
 8267TIP3    H148996   6.308   0.674   2.012 -0.4518  2.9017  3.4517
 8267TIP3    H248997   6.222   0.566   2.073 -0.1924 -0.2491 -1.1872
 8268TIP3   OH248998   4.510   1.895   0.583  1.3433 -0.1890  0.1347
 8268TIP3    H148999   4.486   1.854   0.500  1.1857 -1.5141  0.7983
 8268TIP3    H249000   4.426   1.912   0.626  1.3899  1.2641 -0.3093
 8269TIP3   OH249001   0.621   1.668   2.155 -0.7815  0.2261 -0.3060
 8269TIP3    H149002   0.591   1.753   2.124 -0.4384  0.3151 -0.4029
 8269TIP3    H249003   0.633   1.679   2.250 -0.2520  0.4379 -0.3921
 8270TIP3   OH249004   4.299   0.461   1.394  0.2743  0.0430  0.1815
 8270TIP3    H149005   4.327   0.456   1.486  2.8892  0.8877 -0.4706
 8270TIP3    H249006   4.204   0.472   1.398  0.5003  2.0993  2.8653
 8271TIP3   OH249007   6.003   1.109   3.497  0.4018 -0.2613 -0.5586
 8271TIP3    H149008   5.949   1.083   3.422 -2.5661 -0.7869  1.6100
 8271TIP3    H249009   5.992   1.204   3.502 -3.2491 -0.6265  1.7415
 8272TIP3   OH249010   4.386   6.615   2.117 -0.4995  0.2313  0.1021
 8272TIP3    H149011   4.312   6.661   2.156 -0.5688  0.6529 -0.5073
 8272TIP3    H249012   4.449   6.683   2.097 -0.1081 -0.0826  0.2592
 8273TIP3   OH249013   5.364   7.356   1.553  0.4654 -0.8030 -0.1124
 8273TIP3    H149014   5.296   7.292   1.568  1.9333 -2.0988  1.4616
 8273TIP3    H249015   5.352   7.421   1.623  0.4411 -0.6735 -0.2361
 8274TIP3   OH249016   0.790   2.556   2.051  0.5013  0.1027 -0.3130
 8274TIP3    H149017   0.852   2.529   2.119 -0.0555 -1.7346 -0.4957
 8274TIP3    H249018   0.845   2.580   1.977  1.0500  0.6115  0.2382
 8275TIP3   OH249019   4.373   3.033   2.395  0.0271 -0.0284 -0.3953
 8275TIP3    H149020   4.330   3.104   2.347 -0.2956 -0.6706 -1.0792
 8275TIP3    H249021   4.451   3.013   2.343 -0.0493 -0.3812 -0.3759
 8276TIP3   OH249022   0.745   0.049   3.107 -0.1867  0.3558 -0.3468
 8276TIP3    H149023   0.667   0.103   3.108  0.0649  0.7260  0.4517
 8276TIP3    H249024   0.774   0.047   3.198  1.7831  1.7918 -0.8565
 8277TIP3   OH249025   5.022   3.360   1.026  0.1428 -0.0738 -0.3789
 8277TIP3    H149026   4.990   3.391   1.111 -0.1280 -0.4577 -0.3355
 8277TIP3    H249027   5.083   3.428   0.997  1.5364 -0.7034  0.8922
 8278TIP3   OH249028   5.443   4.431   2.482  0.4271 -0.2694  0.5521
 8278TIP3    H149029   5.463   4.474   2.566  0.6976  1.0776 -0.1786
 8278TIP3    H249030   5.525   4.437   2.433 -0.4203  1.2206 -0.7548
 8279TIP3   OH249031   6.339   0.956   2.486 -0.5898 -0.0120  0.0671
 8279TIP3    H149032   6.409   0.897   2.456 -0.6035 -0.2870  0.5567
 8279TIP3    H249033   6.311   1.002   2.407  2.6014  2.7833  0.3011
 8280TIP3   OH249034   4.863   3.018   2.188 -0.8188  0.0491  0.1063
 8280TIP3    H149035   4.778   3.062   2.198 -1.2468 -0.9900  1.2828
 8280TIP3    H249036   4.840   2.925   2.181  0.3061 -0.4228  2.1426
 8281TIP3   OH249037   3.757   2.603   1.794 -0.3374  0.1688 -0.0199
 8281TIP3    H149038   3.677   2.555   1.773 -0.7830  0.2913  1.3497
 8281TIP3    H249039   3.809   2.542   1.845 -1.4446  1.4570  2.8369
 8282TIP3   OH249040   1.115   0.143   0.936 -0.1185 -0.4986 -0.5400
 8282TIP3    H149041   1.156   0.226   0.962  0.4649 -1.0229  0.2732
 8282TIP3    H249042   1.093   0.155   0.844  1.7765 -0.1537 -0.9960
 8283TIP3   OH249043   2.174   2.434   1.149 -0.0701 -0.2237  0.7199
 8283TIP3    H149044   2.230   2.450   1.074  0.5759 -0.2516  1.1888
 8283TIP3    H249045   2.097   2.390   1.113  0.1732 -0.1194  0.0624
 8284TIP3   OH249046   5.652   4.079   1.292 -0.7539 -0.5443 -0.1341
 8284TIP3    H149047   5.617   4.031   1.217  1.0150  0.0415 -1.4063
 8284TIP3    H249048   5.684   4.161   1.255  0.7526 -0.5066  1.1515
 8285TIP3   OH249049   2.391   7.294   1.906  0.1676  0.3498 -0.0688
 8285TIP3    H149050   2.300   7.274   1.882 -0.0397  3.2476 -2.1055
 8285TIP3    H249051   2.391   7.294   2.002 -1.5009 -1.4739 -0.0137
 8286TIP3   OH249052   5.258   6.535   0.710  0.3382  0.5460 -0.5843
 8286TIP3    H149053   5.211   6.482   0.646 -0.2748  0.6025 -0.1884
 8286TIP3    H249054   5.347   6.540   0.676  0.7775 -1.8280  0.0210
 8287TIP3   OH249055   6.333   1.955   2.962  0.1158 -0.4251  0.3385
 8287TIP3    H149056   6.291   2.004   2.892  1.3753 -0.5437 -0.5301
 8287TIP3    H249057   6.303   1.998   3.043 -1.7671 -0.6223 -0.2109
 8288TIP3   OH249058   5.409   5.707   0.828  0.7205 -0.3775  0.4430
 8288TIP3    H149059   5.376   5.622   0.799 -0.1670  0.0473  0.1579
 8288TIP3    H249060   5.354   5.729   0.903  0.8452  0.0154  0.4180
 8289TIP3   OH249061   6.432   6.827   3.436  0.2180  0.1424  0.1294
 8289TIP3    H149062   6.426   6.779   3.353  2.3112 -0.8655  0.4845
 8289TIP3    H249063   6.378   6.905   3.423 -0.7349 -0.7559 -1.6181
 8290TIP3   OH249064   2.117   7.182   1.856 -0.3868 -0.1751 -0.4397
 8290TIP3    H149065   2.057   7.126   1.806 -1.4254 -1.3032  1.9052
 8290TIP3    H249066   2.073   7.267   1.859 -1.2946 -0.6442  0.1568
 8291TIP3   OH249067   2.092   7.640   1.196 -0.1927  0.2302 -0.2572
 8291TIP3    H149068   2.084   7.735   1.197  2.0051  0.4519  0.8868
 8291TIP3    H249069   2.002   7.609   1.208 -0.6762  2.2166  2.2335
 8292TIP3   OH249070   0.936   2.236   0.481 -0.1953 -0.6536 -0.0376
 8292TIP3    H149071   1.031   2.233   0.489 -0.0594 -0.2901 -1.2873
 8292TIP3    H249072   0.905   2.159   0.528  0.7556 -1.1228 -0.1620
 8293TIP3   OH249073   1.630   2.369   2.680  0.2958 -0.1347 -0.7933
 8293TIP3    H149074   1.559   2.433   2.671  0.3042  0.0654  0.4367
 8293TIP3    H249075   1.588   2.288   2.708  0.6272  0.2723  1.0135
 8294TIP3   OH249076   7.065   4.797   0.635 -0.0668 -0.3918  0.0876
 8294TIP3    H149077   6.982   4.772   0.593  1.0594 -3.3949 -0.6121
 8294TIP3    H249078   7.103   4.863   0.577 -3.2686  3.6984  2.0862
 8295TIP3   OH249079   1.178   3.158   1.527  0.4788  0.0302 -0.9444
 8295TIP3    H149080   1.270   3.185   1.524  0.3879  0.3967 -0.5547
 8295TIP3    H249081   1.163   3.114   1.443  1.3845 -1.2831 -0.4376
 8296TIP3   OH249082   1.438   3.825   0.595 -0.1200 -0.5240 -0.3198
 8296TIP3    H149083   1.506   3.758   0.600  0.8906  0.5258  0.7818
 8296TIP3    H249084   1.362   3.785   0.639  0.1286 -1.2966 -0.5704
 8297TIP3   OH249085   6.052   0.180   0.914  0.0697 -0.1796 -0.1805
 8297TIP3    H149086   5.990   0.206   0.846  1.8855 -0.3245 -1.9914
 8297TIP3    H249087   6.074   0.261   0.960 -1.2778 -0.1000  0.3397
 8298TIP3   OH249088   0.374   5.428   0.960 -0.7478  0.7359 -0.3018
 8298TIP3    H149089   0.394   5.472   0.877 -0.5734  0.0828 -0.6097
 8298TIP3    H249090   0.313   5.488   1.004 -1.3237  0.8047 -1.1695
 8299TIP3   OH249091   0.996   2.541   1.851  0.4763 -0.1751  0.4407
 8299TIP3    H149092   1.075   2.494   1.824  0.9641  0.5538  0.5525
 8299TIP3    H249093   0.980   2.602   1.779 -0.7891 -1.2429 -0.2214
 8300TIP3   OH249094   0.660   3.780   2.508  0.1139 -0.0125  0.2326
 8300TIP3    H149095   0.677   3.820   2.423 -0.2917  0.4833  0.3810
 8300TIP3    H249096   0.641   3.688   2.488 -0.0362  0.1123 -0.2183
 8301TIP3   OH249097   4.876   5.079   0.633 -0.0791 -0.1005  0.9975
 8301TIP3    H149098   4.841   4.992   0.617 -0.3106  0.2224 -0.3708
 8301TIP3    H249099   4.804   5.126   0.676 -1.5983  0.6646 -2.1069
 8302TIP3   OH249100   3.575   5.076   0.443  0.1856 -0.3055  0.2336
 8302TIP3    H149101   3.498   5.121   0.477 -0.4806 -0.1920 -1.3389
 8302TIP3    H249102   3.545   4.986   0.427 -0.3862  0.3285 -2.6801
 8303TIP3   OH249103   5.020   7.605   0.879 -0.4098 -0.1858 -0.0896
 8303TIP3    H149104   5.097   7.554   0.906 -1.2103 -2.4790 -1.7426
 8303TIP3    H249105   5.021   7.682   0.935  1.8826 -1.1841  1.4070
 8304TIP3   OH249106   2.493   3.554   0.728 -0.3689  0.2523  0.0723
 8304TIP3    H149107   2.420   3.616   0.734  0.4435  1.1519  0.9122
 8304TIP3    H249108   2.452   3.471   0.701 -1.4822  1.1173 -0.9843
 8305TIP3   OH249109   6.851   0.780   1.564  0.1097  0.2783  0.2964
 8305TIP3    H149110   6.926   0.772   1.506 -0.5758  1.5103 -0.8097
 8305TIP3    H249111   6.874   0.851   1.624 -0.1892  0.7317 -0.1130
 8306TIP3   OH249112   2.767   6.730   2.262  0.4259 -0.1495 -0.2779
 8306TIP3    H149113   2.775   6.765   2.174  0.3489  0.8731  0.1070
 8306TIP3    H249114   2.814   6.793   2.317  0.3766 -0.7142  0.4254
 8307TIP3   OH249115   3.061   1.407   0.659 -0.3909 -0.0468 -0.1374
 8307TIP3    H149116   3.140   1.354   0.652 -0.0156  0.3831  0.6658
 8307TIP3    H249117   2.992   1.345   0.683  0.1815 -0.1075  1.5004
 8308TIP3   OH249118   4.064   0.233   1.064 -0.1274 -0.2093 -0.3417
 8308TIP3    H149119   4.119   0.310   1.075 -2.3528  1.3845  0.3258
 8308TIP3    H249120   4.068   0.214   0.970 -1.1379  2.0645 -0.9210
 8309TIP3   OH249121   4.132   1.113   2.183 -0.1668  0.3380 -0.7270
 8309TIP3    H149122   4.222   1.113   2.150 -0.3557  0.7897 -1.2573
 8309TIP3    H249123   4.129   1.040   2.244  0.5382  0.2654 -0.7695
 8310TIP3   OH249124   2.718   2.517   2.117 -0.2648 -0.1502  0.2348
 8310TIP3    H149125   2.737   2.427   2.144 -0.1168 -0.5656 -1.1657
 8310TIP3    H249126   2.792   2.542   2.062  0.7102  1.5885  2.1762
 8311TIP3   OH249127   5.945   3.586   0.575  0.0708  0.5332 -0.2582
 8311TIP3    H149128   5.999   3.520   0.532 -0.3159  0.3442 -0.4525
 8311TIP3    H249129   5.898   3.538   0.643 -0.4721  0.5372 -0.6260
 8312TIP3   OH249130   6.140   3.101   1.697 -0.1625  0.1988 -0.8064
 8312TIP3    H149131   6.167   3.060   1.780 -1.2669  0.5609 -0.2477
 8312TIP3    H249132   6.213   3.085   1.638  1.1670  0.9305  0.5666
 8313TIP3   OH249133   6.796   2.868   1.542 -0.1693  0.1849  0.4818
 8313TIP3    H149134   6.885   2.903   1.541  0.2985 -0.9744 -0.2610
 8313TIP3    H249135   6.741   2.943   1.566  0.9324  1.0719  0.3065
 8314TIP3   OH249136   4.397   4.849   3.246 -0.0177 -0.2531  0.0900
 8314TIP3    H149137   4.363   4.839   3.157 -1.5059  2.9928  0.1562
 8314TIP3    H249138   4.380   4.764   3.288 -2.8681 -0.6707 -1.6205
 8315TIP3   OH249139   6.799   2.454   0.927 -0.2514  0.3658 -0.7796
 8315TIP3    H149140   6.840   2.438   0.843 -0.4157  0.4465 -0.8757
 8315TIP3    H249141   6.747   2.533   0.913 -1.0850 -0.1954 -0.8814
 8316TIP3   OH249142   0.879   1.994   2.941  0.5073 -0.1964 -0.8211
 8316TIP3    H149143   0.802   2.021   2.990  2.5633  0.2943  2.4027
 8316TIP3    H249144   0.847   1.925   2.882 -2.5566  0.8845 -0.5930
 8317TIP3   OH249145   3.048   6.011   1.841 -0.2775  0.0583 -0.0684
 8317TIP3    H149146   3.024   5.929   1.886 -0.4931  0.8301  1.2904
 8317TIP3    H249147   3.140   6.023   1.864 -0.3945  0.4690  0.1881
 8318TIP3   OH249148   0.743   2.452   1.251  0.1861  0.0261 -0.5249
 8318TIP3    H149149   0.829   2.482   1.222  0.1568 -1.1436 -1.9212
 8318TIP3    H249150   0.717   2.387   1.186 -0.7729 -1.2849  1.0837
 8319TIP3   OH249151   7.638   1.997   3.395 -0.3372  0.2458  0.0047
 8319TIP3    H149152   7.584   2.057   3.343 -0.7941 -0.0760  0.1030
 8319TIP3    H249153   7.689   2.055   3.452  0.1944  0.6079 -0.8141
 8320TIP3   OH249154   2.323   2.063   0.843  0.4275 -0.7434  0.0305
 8320TIP3    H149155   2.247   2.031   0.891  0.1211 -0.6748 -0.4073
 8320TIP3    H249156   2.386   1.991   0.847  0.9826 -0.2266  1.7685
 8321TIP3   OH249157   5.337   5.055   1.163 -0.0953  0.3817 -0.0496
 8321TIP3    H149158   5.261   5.019   1.117 -0.7687  0.7119  0.7811
 8321TIP3    H249159   5.309   5.142   1.191 -0.5532 -0.5894  2.8994
 8322TIP3   OH249160   1.753   1.683   0.725 -0.0077  0.1211 -0.0436
 8322TIP3    H149161   1.673   1.647   0.762  0.4316 -0.6161  0.2109
 8322TIP3    H249162   1.799   1.608   0.689 -0.1775  0.7454 -1.6499
 8323TIP3   OH249163   1.186   5.582   0.863 -0.1149 -0.1928  0.5208
 8323TIP3    H149164   1.174   5.632   0.944  0.7084 -1.5041  1.5164
 8323TIP3    H249165   1.108   5.527   0.857 -0.0156 -0.3525  0.6467
 8324TIP3   OH249166   0.179   4.558   3.184  0.4089  0.1692 -0.4286
 8324TIP3    H149167   0.168   4.650   3.205 -1.1996  0.1159 -0.9272
 8324TIP3    H249168   0.207   4.557   3.092 -1.0494  0.1454 -0.8996
 8325TIP3   OH249169   4.063   3.545   1.221 -0.8495 -0.1620 -0.0104
 8325TIP3    H149170   4.012   3.624   1.204 -0.1566  0.2950  0.0070
 8325TIP3    H249171   4.049   3.527   1.314 -0.2320  0.5021  0.2164
 8326TIP3   OH249172   7.640   6.433   1.155 -0.8346  0.0656  0.3228
 8326TIP3    H149173   7.694   6.355   1.142  0.6978  0.8753  1.5046
 8326TIP3    H249174   7.579   6.408   1.225 -1.2367 -0.4698 -0.2043
 8327TIP3   OH249175   3.490   7.253   2.866 -0.1970 -0.6564 -0.3124
 8327TIP3    H149176   3.456   7.327   2.915  1.7778 -0.9030  1.5952
 8327TIP3    H249177   3.492   7.283   2.775 -1.1269  0.9378  0.1638
 8328TIP3   OH249178   6.393   1.573   2.278 -0.4287 -0.1196  0.7599
 8328TIP3    H149179   6.308   1.551   2.240 -0.6850  0.9936  0.6728
 8328TIP3    H249180   6.430   1.488   2.304 -0.1670 -0.9955 -2.1125
 8329TIP3   OH249181   6.131   6.557   1.210 -0.5561  0.3227  0.3706
 8329TIP3    H149182   6.208   6.501   1.223  0.5824  2.0293  1.3915
 8329TIP3    H249183   6.062   6.497   1.183  1.4199 -1.1251 -1.8506
 8330TIP3   OH249184   1.568   5.435   2.819  0.5767  0.4785 -0.1418
 8330TIP3    H149185   1.658   5.464   2.802  1.1368 -1.2229 -0.2473
 8330TIP3    H249186   1.575   5.380   2.897 -0.6442  1.5497  0.7624
 8331TIP3   OH249187   1.922   1.546   1.881 -0.4666  0.4342 -0.0054
 8331TIP3    H149188   1.965   1.599   1.948 -0.6327  1.3775 -0.6262
 8331TIP3    H249189   1.900   1.608   1.812 -1.1221 -0.3655 -0.5331
 8332TIP3   OH249190   0.593   1.254   1.077  0.0923 -0.0372  0.4560
 8332TIP3    H149191   0.541   1.206   1.013  1.1191  1.0640 -1.3082
 8332TIP3    H249192   0.572   1.346   1.060 -0.3311  0.2651  2.3965
 8333TIP3   OH249193   3.731   0.624   2.093  0.2352 -0.2230 -0.4904
 8333TIP3    H149194   3.657   0.647   2.036 -0.5598  2.0662  1.2945
 8333TIP3    H249195   3.701   0.646   2.181  3.0461  0.7610  0.3188
 8334TIP3   OH249196   2.236   4.369   0.960  0.2834 -0.3268 -0.2493
 8334TIP3    H149197   2.320   4.411   0.943 -0.1752 -0.1641 -2.3877
 8334TIP3    H249198   2.257   4.295   1.017  1.5093  1.0537  1.1954
 8335TIP3   OH249199   6.976   6.895   0.620 -0.1420  0.0748  0.0386
 8335TIP3    H149200   6.920   6.896   0.698  0.4913  1.3428  0.4968
 8335TIP3    H249201   6.986   6.987   0.596  0.5704 -0.2314 -0.8960
 8336TIP3   OH249202   6.344   0.659   7.179 -0.5506  0.0468 -0.0808
 8336TIP3    H149203   6.360   0.713   7.101  0.3344 -0.2505 -0.1154
 8336TIP3    H249204   6.257   0.621   7.164 -0.9466  1.0070 -0.3159
 8337TIP3   OH249205   3.366   2.418   3.052  0.3945 -0.1198  0.5105
 8337TIP3    H149206   3.461   2.420   3.036  0.3123 -0.8426 -0.1141
 8337TIP3    H249207   3.358   2.388   3.143  0.7626 -0.1785  0.5270
 8338TIP3   OH249208   2.212   5.619   0.921  0.1729  0.2545 -0.6185
 8338TIP3    H149209   2.143   5.663   0.972 -2.3275 -1.5932 -2.1810
 8338TIP3    H249210   2.207   5.658   0.834  2.8558  1.7694 -0.2049
 8339TIP3   OH249211   4.638   7.408   0.928  0.1943  0.2533 -0.4106
 8339TIP3    H149212   4.577   7.334   0.928  1.0029 -0.5207  2.4622
 8339TIP3    H249213   4.583   7.485   0.945 -0.0507 -0.4613  2.3859
 8340TIP3   OH249214   4.991   0.131   1.034 -0.1197 -0.0975 -0.5846
 8340TIP3    H149215   4.937   0.074   1.090 -0.0058  0.3307 -0.0279
 8340TIP3    H249216   5.044   0.181   1.096  1.4319 -1.0066 -1.1327
 8341TIP3   OH249217   3.983   3.199   2.746  0.6100 -0.2650 -0.1073
 8341TIP3    H149218   4.009   3.132   2.810 -0.8541 -0.6660  0.0921
 8341TIP3    H249219   3.904   3.237   2.783 -0.8751 -1.2239 -2.1582
 8342TIP3   OH249220   2.257   3.633   2.521 -0.1003  0.2016 -0.1210
 8342TIP3    H149221   2.214   3.707   2.564  0.8786 -0.9268  3.0662
 8342TIP3    H249222   2.187   3.568   2.511 -0.0208 -0.2046  1.5839
 8343TIP3   OH249223   4.001   6.285   2.120  0.0064  0.5729  0.4758
 8343TIP3    H149224   4.017   6.207   2.173  0.1571  0.7680  0.7204
 8343TIP3    H249225   4.036   6.357   2.172  0.4446  0.7357 -0.0218
 8344TIP3   OH249226   1.154   0.393   2.374 -0.5476 -0.3326  0.1772
 8344TIP3    H149227   1.103   0.329   2.324 -0.3504 -0.0520 -0.3902
 8344TIP3    H249228   1.096   0.468   2.382 -0.0353  0.2149 -0.9797
 8345TIP3   OH249229   7.553   1.215   2.550  0.2865 -0.0333  0.3500
 8345TIP3    H149230   7.566   1.307   2.573 -1.8796  0.2588  0.6764
 8345TIP3    H249231   7.477   1.188   2.602 -0.6409 -1.2760 -1.5264
 8346TIP3   OH249232   6.263   6.080   1.898  0.1433 -0.2025  0.3946
 8346TIP3    H149233   6.285   5.992   1.869 -0.0348  0.1795 -0.9759
 8346TIP3    H249234   6.278   6.135   1.821 -0.7233  0.8091  0.9165
 8347TIP3   OH249235   3.182   2.824   1.211  0.3596  0.7718  0.5467
 8347TIP3    H149236   3.197   2.892   1.276  2.0567 -0.4461  1.5142
 8347TIP3    H249237   3.227   2.747   1.246 -0.4816 -0.5249 -1.0711
 8348TIP3   OH249238   6.517   6.504   7.648  0.2516 -0.2618 -0.3479
 8348TIP3    H149239   6.509   6.500   7.553  2.2333  0.2542 -0.5793
 8348TIP3    H249240   6.505   6.597   7.669 -1.1043 -0.5031  0.0348
 8349TIP3   OH249241   0.570   5.748   1.034 -0.2382 -0.0257  0.8975
 8349TIP3    H149242   0.504   5.815   1.015 -1.0187 -0.9584  0.2307
 8349TIP3    H249243   0.565   5.736   1.128 -0.5861  0.3674  0.9326
 8350TIP3   OH249244   2.525   6.764   0.531 -0.8672 -0.3896  0.7611
 8350TIP3    H149245   2.458   6.820   0.571 -3.0410 -0.9714 -1.8077
 8350TIP3    H249246   2.599   6.823   0.517 -1.8182  0.9989  1.2686
 8351TIP3   OH249247   1.778   7.074   0.643 -0.6463 -0.4645 -0.0016
 8351TIP3    H149248   1.824   7.096   0.724 -0.9038 -2.3625  0.7159
 8351TIP3    H249249   1.695   7.120   0.650  0.2754  1.3253 -0.3457
 8352TIP3   OH249250   4.287   5.880   1.352  0.4070  0.0110 -0.0909
 8352TIP3    H149251   4.242   5.837   1.425  1.0651  1.4189  1.2054
 8352TIP3    H249252   4.227   5.950   1.326  0.2507 -0.3847 -0.8159
 8353TIP3   OH249253   5.570   3.658   2.621  0.2691 -0.0254  0.2680
 8353TIP3    H149254   5.495   3.607   2.590 -0.0304  0.0321  0.8862
 8353TIP3    H249255   5.642   3.595   2.627  0.2730 -0.0827 -0.3128
 8354TIP3   OH249256   6.744   1.522   1.447 -0.5061 -0.5351 -0.3583
 8354TIP3    H149257   6.778   1.439   1.414 -0.8477 -1.0196  0.4665
 8354TIP3    H249258   6.744   1.512   1.542 -1.6329 -0.0264 -0.2844
 8355TIP3   OH249259   5.436   3.367   2.926 -0.0842  0.0660 -0.2771
 8355TIP3    H149260   5.429   3.427   3.001  1.7266  0.1002 -0.0939
 8355TIP3    H249261   5.353   3.320   2.926 -0.0829 -0.0672  1.8910
 8356TIP3   OH249262   1.382   0.548   2.530  0.4472  0.5766 -0.5022
 8356TIP3    H149263   1.313   0.526   2.468 -0.9915  0.2641  1.1470
 8356TIP3    H249264   1.453   0.488   2.509 -0.9494 -1.2233 -0.2783
 8357TIP3   OH249265   4.097   6.905   2.614  0.7991 -0.4131  0.1378
 8357TIP3    H149266   4.081   6.844   2.687  0.5907  2.3103  2.5397
 8357TIP3    H249267   4.015   6.904   2.565 -0.1666 -0.1956  1.6637
 8358TIP3   OH249268   6.557   4.906   0.694 -0.7685 -0.0984  0.0899
 8358TIP3    H149269   6.538   4.993   0.659 -1.5567 -0.1338  0.4096
 8358TIP3    H249270   6.479   4.884   0.746  0.4633  0.0407  2.0771
 8359TIP3   OH249271   0.148   5.577   1.625 -0.8288 -0.2681  0.0714
 8359TIP3    H149272   0.095   5.657   1.630 -2.9997 -1.6551  0.6563
 8359TIP3    H249273   0.223   5.595   1.681 -1.3046  1.3104  0.2780
 8360TIP3   OH249274   5.233   0.417   0.730 -0.5633  0.0339  0.1158
 8360TIP3    H149275   5.170   0.405   0.660 -0.3991 -0.6420  0.0761
 8360TIP3    H249276   5.236   0.511   0.744 -0.4287  0.1934 -0.9387
 8361TIP3   OH249277   3.866   4.702   1.866  0.0229  0.2269 -0.1285
 8361TIP3    H149278   3.957   4.674   1.855  1.3883  3.8465  0.7112
 8361TIP3    H249279   3.823   4.672   1.786  2.8774  1.5725 -2.3715
 8362TIP3   OH249280   4.262   6.004   0.947  0.0538  0.5389 -0.1228
 8362TIP3    H149281   4.212   6.034   0.871  0.0894 -0.9347 -0.7536
 8362TIP3    H249282   4.203   5.945   0.994  0.6124  0.1065  0.0556
 8363TIP3   OH249283   2.376   1.295   0.909  0.3063 -0.4235  0.4445
 8363TIP3    H149284   2.314   1.348   0.858 -0.0456  1.9273  3.0714
 8363TIP3    H249285   2.322   1.232   0.955  0.1339  0.0045  0.8391
 8364TIP3   OH249286   3.491   7.306   1.630  0.2768  0.0947 -0.3275
 8364TIP3    H149287   3.475   7.281   1.721 -0.7011 -1.7553 -0.9708
 8364TIP3    H249288   3.514   7.399   1.635 -1.9909  0.6627  1.6069
 8365TIP3   OH249289   3.341   3.644   2.072 -0.3161  0.3825 -0.0153
 8365TIP3    H149290   3.436   3.633   2.059 -0.4238  0.5193 -0.9887
 8365TIP3    H249291   3.335   3.710   2.141  0.3131  1.2355 -0.7478
 8366TIP3   OH249292   7.625   0.862   1.908 -0.0782 -0.0140 -0.2548
 8366TIP3    H149293   7.676   0.909   1.842  0.6506 -2.1760 -1.2976
 8366TIP3    H249294   7.552   0.824   1.860 -0.5535 -0.1205  0.5324
 8367TIP3   OH249295   1.659   0.571   2.144  0.3785  0.1568  0.0786
 8367TIP3    H149296   1.590   0.507   2.128  0.0636  1.0036 -2.3186
 8367TIP3    H249297   1.715   0.565   2.067  0.4493  2.5748 -0.1149
 8368TIP3   OH249298   6.451   1.302   2.373  0.2664 -0.7754  0.3921
 8368TIP3    H149299   6.523   1.301   2.435 -0.7986 -2.7277  1.7072
 8368TIP3    H249300   6.466   1.226   2.317  0.6630  0.3828 -1.1298
 8369TIP3   OH249301   5.365   5.102   1.988 -0.0019  0.5110  1.0829
 8369TIP3    H149302   5.393   5.018   2.026  1.4595  0.9631  1.0916
 8369TIP3    H249303   5.343   5.156   2.063  1.8397  1.0468  1.2928
 8370TIP3   OH249304   3.257   3.003   1.409 -0.9922 -0.4939  0.0456
 8370TIP3    H149305   3.247   3.098   1.418 -1.4457 -0.6293  1.1759
 8370TIP3    H249306   3.308   2.977   1.487 -2.1869 -1.3713  0.5610
 8371TIP3   OH249307   7.016   7.577   2.344 -0.4153 -0.0787  0.5564
 8371TIP3    H149308   7.041   7.669   2.332  0.7251 -0.5985 -1.7538
 8371TIP3    H249309   6.999   7.568   2.438 -0.6081  2.4861  0.8231
 8372TIP3   OH249310   0.315   6.282   1.307  0.5812 -0.4963  0.6340
 8372TIP3    H149311   0.405   6.260   1.335  1.1218 -1.9768 -1.9658
 8372TIP3    H249312   0.286   6.348   1.370  3.7421  0.5299  1.1922
 8373TIP3   OH249313   6.655   0.239   1.903 -0.5995  0.3686 -0.4365
 8373TIP3    H149314   6.586   0.174   1.919 -1.3748  0.7942 -1.9381
 8373TIP3    H249315   6.631   0.314   1.957 -0.4771 -0.0267  0.1879
 8374TIP3   OH249316   7.482   5.465   2.549  0.5574  0.2981 -0.2865
 8374TIP3    H149317   7.468   5.437   2.640  1.7643  3.7848  1.1317
 8374TIP3    H249318   7.401   5.510   2.526 -0.5081 -2.1794 -1.7510
 8375TIP3   OH249319   0.313   1.337   1.773  0.3004  0.1007  0.8442
 8375TIP3    H149320   0.290   1.428   1.795  0.0745 -0.0596  1.2856
 8375TIP3    H249321   0.344   1.342   1.683 -0.2794  0.5241  0.6591
 8376TIP3   OH249322   6.592   0.678   1.509  0.0665 -0.8115  0.4486
 8376TIP3    H149323   6.609   0.585   1.527  1.0779 -0.9282 -0.9683
 8376TIP3    H249324   6.673   0.722   1.536  0.3770 -0.6100 -0.7760
 8377TIP3   OH249325   4.550   1.832   1.406 -0.5788 -0.2950  0.5583
 8377TIP3    H149326   4.548   1.742   1.438 -0.3640 -1.4123 -2.2385
 8377TIP3    H249327   4.558   1.823   1.311 -1.0651  2.6946  0.1354
 8378TIP3   OH249328   0.526   6.646   1.008  1.0783 -0.2101  0.2538
 8378TIP3    H149329   0.586   6.636   0.934  0.4372 -1.2138 -0.1517
 8378TIP3    H249330   0.487   6.559   1.020  0.1393  0.2720  0.8825
 8379TIP3   OH249331   1.533   0.061   2.062 -0.1757 -0.2831 -0.1394
 8379TIP3    H149332   1.533  -0.009   1.997  1.7982  0.2458 -0.7804
 8379TIP3    H249333   1.605   0.039   2.122 -0.4992  0.4151  0.5317
 8380TIP3   OH249334   3.163   1.657   1.752 -0.5482  0.6974 -0.4773
 8380TIP3    H149335   3.204   1.741   1.734  1.6220 -0.3472 -0.7872
 8380TIP3    H249336   3.102   1.674   1.823  0.4692  2.3555  0.0475
 8381TIP3   OH249337   3.225   4.150   1.274  0.0688  0.2448  0.3287
 8381TIP3    H149338   3.137   4.173   1.245  0.1079  2.2545  1.6414
 8381TIP3    H249339   3.238   4.061   1.241 -2.1847  0.1422 -0.4663
 8382TIP3   OH249340   1.673   2.144   0.465  0.4621  0.0021 -0.2395
 8382TIP3    H149341   1.755   2.134   0.416  0.3635  0.4379 -0.5006
 8382TIP3    H249342   1.614   2.190   0.404  0.2445  0.2927  0.1855
 8383TIP3   OH249343   5.662   7.680   0.974  0.4110  0.4071 -0.0761
 8383TIP3    H149344   5.605   7.684   1.051 -1.0500 -1.1701 -1.0308
 8383TIP3    H249345   5.615   7.626   0.911  2.6614 -0.4104 -1.1762
 8384TIP3   OH249346   3.026   6.438   1.013 -0.0562  0.0844 -0.1654
 8384TIP3    H149347   3.035   6.432   0.918 -2.0842 -0.1542 -0.3831
 8384TIP3    H249348   2.945   6.486   1.026 -0.8783 -1.6237  1.4102
 8385TIP3   OH249349   6.767   7.511   0.878  0.2814 -0.1931  0.3357
 8385TIP3    H149350   6.811   7.526   0.962 -0.6357 -3.5357  1.5936
 8385TIP3    H249351   6.825   7.450   0.831  0.8973  1.8072 -1.6587
 8386TIP3   OH249352   7.082   6.588   2.802 -0.2322 -0.3341 -0.2146
 8386TIP3    H149353   7.065   6.679   2.781 -0.0607 -0.1332  0.4937
 8386TIP3    H249354   7.098   6.587   2.896  1.9254 -0.7708 -0.5340
 8387TIP3   OH249355   4.805   2.223   0.861  0.3236 -0.4189 -0.6414
 8387TIP3    H149356   4.760   2.234   0.945  1.6560 -0.3295  0.0918
 8387TIP3    H249357   4.857   2.143   0.872  1.7396  0.4449 -0.7834
 8388TIP3   OH249358   5.053   1.581   0.783  0.2196  0.5550 -0.0083
 8388TIP3    H149359   5.129   1.532   0.751 -0.9199 -0.6447 -1.0189
 8388TIP3    H249360   5.043   1.653   0.721 -0.5301 -0.3585 -0.9944
 8389TIP3   OH249361   2.347   1.572   3.429  0.2289  0.0310  0.5357
 8389TIP3    H149362   2.350   1.666   3.410  0.0183 -0.1842 -0.6287
 8389TIP3    H249363   2.287   1.565   3.504 -1.1943  0.6782 -0.5033
 8390TIP3   OH249364   6.053   2.520   1.322 -0.0240  0.0765  0.0073
 8390TIP3    H149365   6.054   2.594   1.262  1.8128 -0.7795 -1.0923
 8390TIP3    H249366   6.053   2.560   1.409 -0.1132  1.3544 -0.5537
 8391TIP3   OH249367   6.300   5.096   2.280 -0.1839  0.1183 -0.2425
 8391TIP3    H149368   6.238   5.114   2.350 -0.9224 -1.5930 -0.4175
 8391TIP3    H249369   6.313   5.001   2.282  0.5402  0.1467 -1.7732
 8392TIP3   OH249370   3.754   6.935   1.676 -0.0568 -0.0048  0.1294
 8392TIP3    H149371   3.845   6.906   1.673  0.3323  0.8941  1.8830
 8392TIP3    H249372   3.758   7.027   1.653 -0.2167  0.5261  2.0208
 8393TIP3   OH249373   0.942   2.200   2.748 -0.3447 -0.1764  0.0262
 8393TIP3    H149374   0.848   2.188   2.736 -0.8946  2.0170  1.4825
 8393TIP3    H249375   0.955   2.191   2.842  0.8715 -0.2440 -0.1397
 8394TIP3   OH249376   4.212   4.410   0.995  0.5166 -0.1386 -0.3021
 8394TIP3    H149377   4.262   4.334   1.023  0.9113  0.1997 -0.0763
 8394TIP3    H249378   4.246   4.482   1.047 -2.2888 -0.4103  2.1985
 8395TIP3   OH249379   1.361   0.682   3.134  0.6685  0.4163 -0.1154
 8395TIP3    H149380   1.354   0.640   3.220 -0.9071 -0.4988 -0.6405
 8395TIP3    H249381   1.270   0.694   3.106  1.0917  2.8958 -0.6586
 8396TIP3   OH249382   0.297   4.957   3.032  0.1803  0.2109  0.2411
 8396TIP3    H149383   0.205   4.941   3.009 -0.0310 -0.7880  1.6720
 8396TIP3    H249384   0.292   5.016   3.107  0.6649 -0.7104  1.0060
 8397TIP3   OH249385   6.207   4.912   0.590  0.2077  0.2798 -0.5308
 8397TIP3    H149386   6.240   4.834   0.545 -0.2084  0.6063 -1.4484
 8397TIP3    H249387   6.244   4.907   0.678 -0.4654 -1.3772 -0.2971
 8398TIP3   OH249388   1.142   2.975   1.331  0.7911  0.0494  0.7260
 8398TIP3    H149389   1.123   3.007   1.243  0.1058  0.7493  1.1118
 8398TIP3    H249390   1.233   2.945   1.326  0.7913  0.1652 -0.1927
 8399TIP3   OH249391   7.606   2.350   2.351  0.5032 -0.0023 -0.2300
 8399TIP3    H149392   7.676   2.342   2.286 -0.2625  0.7095 -1.1619
 8399TIP3    H249393   7.540   2.405   2.309 -0.7708 -0.9267  0.5062
 8400TIP3   OH249394   0.354   6.139   2.277 -0.5910  0.2661  0.1215
 8400TIP3    H149395   0.435   6.090   2.290 -0.7710 -0.8625 -2.3916
 8400TIP3    H249396   0.319   6.151   2.365  1.2491 -1.0498  1.1046
 8401TIP3   OH249397   0.909   6.472   1.943 -0.3795  1.0024  0.6129
 8401TIP3    H149398   0.959   6.465   1.862 -0.8411  1.7864  0.2482
 8401TIP3    H249399   0.878   6.383   1.960 -0.6753  0.9135 -0.3306
 8402TIP3   OH249400   3.347   0.104   2.012 -0.2041 -0.1279  0.0174
 8402TIP3    H149401   3.371   0.014   2.035 -0.6128 -0.5851 -1.2426
 8402TIP3    H249402   3.273   0.094   1.953 -1.0883  1.1082  0.8881
 8403TIP3   OH249403   3.636   1.314   2.855 -0.2737  0.5214 -0.1496
 8403TIP3    H149404   3.697   1.312   2.928  1.0495 -1.2910 -1.2222
 8403TIP3    H249405   3.662   1.392   2.805  1.5045 -0.4306 -0.8027
 8404TIP3   OH249406   6.416   7.115   0.827  0.2586 -0.3608 -0.4694
 8404TIP3    H149407   6.461   7.197   0.846  0.9417 -0.6627 -0.7265
 8404TIP3    H249408   6.375   7.090   0.909 -1.1984  0.9738 -0.7521
 8405TIP3   OH249409   5.535   3.276   2.688  0.1553  0.0035  0.2688
 8405TIP3    H149410   5.616   3.319   2.660 -0.9897  2.3079  0.3564
 8405TIP3    H249411   5.530   3.293   2.782 -0.2736 -0.4654  0.3368
 8406TIP3   OH249412   5.624   2.741   1.014  0.0651 -0.3841 -0.2850
 8406TIP3    H149413   5.657   2.805   0.951 -3.0818  1.5859 -0.1440
 8406TIP3    H249414   5.688   2.743   1.085  0.4502  2.1471 -0.6150
 8407TIP3   OH249415   0.263   6.902   1.900  0.3382 -0.3332 -0.1229
 8407TIP3    H149416   0.347   6.910   1.946 -0.3564 -3.1455  1.8910
 8407TIP3    H249417   0.249   6.807   1.892 -1.8189  0.0526 -2.0889
 8408TIP3   OH249418   0.354   2.233   1.534 -0.5297  0.6327  0.3657
 8408TIP3    H149419   0.388   2.309   1.486 -0.0849 -0.0581 -0.4375
 8408TIP3    H249420   0.333   2.169   1.466  0.4870 -0.5286  1.1082
 8409TIP3   OH249421   6.857   4.266   2.937  0.0426 -0.0843  0.0389
 8409TIP3    H149422   6.933   4.230   2.891  0.9037  1.7400 -0.0594
 8409TIP3    H249423   6.842   4.206   3.010  2.6453  0.3958  1.0433
 8410TIP3   OH249424   0.594   5.229   1.454  0.2308  0.5996 -0.2758
 8410TIP3    H149425   0.559   5.266   1.373 -0.6319 -1.3757 -0.8787
 8410TIP3    H249426   0.578   5.296   1.520  0.6408  2.1119 -1.6731
 8411TIP3   OH249427   0.578   4.361   2.641  0.2084 -0.2138  0.8828
 8411TIP3    H149428   0.517   4.435   2.635  1.1997  0.4864 -2.2261
 8411TIP3    H249429   0.526   4.284   2.618  0.2302  0.2476 -0.8020
 8412TIP3   OH249430   6.879   7.020   3.507  0.3179  0.0474  0.3230
 8412TIP3    H149431   6.911   7.109   3.492 -0.0655 -0.0005 -0.9761
 8412TIP3    H249432   6.802   7.031   3.561  0.7452  0.4309  0.8652
 8413TIP3   OH249433   7.601   5.240   1.641 -0.6006 -0.4535  0.0405
 8413TIP3    H149434   7.518   5.261   1.598  0.0452  0.6580 -0.7195
 8413TIP3    H249435   7.598   5.145   1.654 -1.0050 -0.7814 -2.0864
 8414TIP3   OH249436   6.590   7.455   2.236  0.0433 -0.2783  0.3075
 8414TIP3    H149437   6.553   7.420   2.317 -0.4049 -0.9201 -0.1645
 8414TIP3    H249438   6.547   7.405   2.167  0.9330 -0.2209 -0.3001
 8415TIP3   OH249439   5.108   6.266   2.262 -0.0487 -0.2121 -0.3015
 8415TIP3    H149440   5.028   6.232   2.302 -0.7419  0.5842 -0.9865
 8415TIP3    H249441   5.094   6.360   2.256  0.4469 -0.1926 -1.5070
 8416TIP3   OH249442   7.479   1.912   3.073 -0.6808 -0.0456 -0.0160
 8416TIP3    H149443   7.565   1.948   3.052 -0.6673 -0.6325 -0.9940
 8416TIP3    H249444   7.423   1.989   3.082 -0.0809  0.3396  0.5783
 8417TIP3   OH249445   7.387   6.593   2.539  0.1182  0.0273 -0.0360
 8417TIP3    H149446   7.443   6.615   2.614 -0.4823  0.0407  0.4168
 8417TIP3    H249447   7.349   6.677   2.513  0.2936  0.0159 -0.3351
 8418TIP3   OH249448   1.160   4.347   1.067 -0.4244  0.3206  0.3369
 8418TIP3    H149449   1.132   4.317   1.153 -0.2249  0.1549  0.3460
 8418TIP3    H249450   1.227   4.284   1.040 -2.5170 -1.4007 -1.2159
 8419TIP3   OH249451   7.239   5.559   1.446 -0.3166  0.2250  0.1187
 8419TIP3    H149452   7.300   5.608   1.500 -0.2494  1.4338 -0.9953
 8419TIP3    H249453   7.159   5.553   1.498 -0.2939  1.4649  0.3112
 8420TIP3   OH249454   2.283   6.442   0.657  0.1381  0.4038  0.0088
 8420TIP3    H149455   2.253   6.475   0.741  1.5635  2.5567 -0.2381
 8420TIP3    H249456   2.327   6.517   0.616  1.6765 -1.2661 -1.5877
 8421TIP3   OH249457   4.915   0.489   1.880  0.6436 -0.0368  0.1703
 8421TIP3    H149458   4.950   0.497   1.969 -3.4330  0.6152  1.9638
 8421TIP3    H249459   4.891   0.396   1.873  2.5619 -0.4930 -1.0547
 8422TIP3   OH249460   4.604   1.681   0.896 -0.4910  0.6870 -0.2401
 8422TIP3    H149461   4.547   1.605   0.899 -0.2153  0.4921  0.9359
 8422TIP3    H249462   4.658   1.669   0.818 -0.5319 -0.2743 -0.1274
 8423TIP3   OH249463   0.524   2.074   2.407  0.5185  0.4526  0.4359
 8423TIP3    H149464   0.462   2.135   2.367  0.1970 -0.2402 -0.1481
 8423TIP3    H249465   0.490   2.061   2.496  0.7561  1.3379  0.6694
 8424TIP3   OH249466   6.727   5.900   0.568  0.3943 -0.1761  0.4520
 8424TIP3    H149467   6.640   5.906   0.607  0.6599  0.2782  0.9877
 8424TIP3    H249468   6.739   5.984   0.523  0.1987 -0.5895 -0.3941
 8425TIP3   OH249469   0.302   0.345   2.145  0.0918  0.1103 -0.7668
 8425TIP3    H149470   0.226   0.396   2.121 -0.2796 -0.3145 -0.5043
 8425TIP3    H249471   0.366   0.409   2.175 -0.9387  0.3137  1.1413
 8426TIP3   OH249472   5.461   3.920   1.403  0.3444 -0.5001  0.1988
 8426TIP3    H149473   5.493   3.845   1.454  0.7192 -0.7436 -0.3952
 8426TIP3    H249474   5.524   3.931   1.332 -0.2952 -0.3088 -0.3558
 8427TIP3   OH249475   2.129   5.079   0.581  0.2235  0.6697  0.0815
 8427TIP3    H149476   2.208   5.101   0.631  0.3017 -0.0486  0.2868
 8427TIP3    H249477   2.057   5.111   0.636  0.2465 -1.1470  1.2654
 8428TIP3   OH249478   1.910   6.763   1.850 -0.1074  0.0682 -0.6513
 8428TIP3    H149479   1.835   6.753   1.909  0.1435 -0.9238 -0.4878
 8428TIP3    H249480   1.986   6.743   1.904  0.2615  0.7608 -0.9016
 8429TIP3   OH249481   3.344   1.550   0.968 -0.2907  0.3787 -0.3064
 8429TIP3    H149482   3.281   1.618   0.946 -0.1203 -0.0062 -2.0778
 8429TIP3    H249483   3.295   1.468   0.965 -0.0853  0.2409 -0.0169
 8430TIP3   OH249484   4.799   0.000   0.498  0.2718  0.0727 -0.0071
 8430TIP3    H149485   4.789   0.010   0.593 -1.8956  0.3299 -0.2186
 8430TIP3    H249486   4.788  -0.094   0.482 -0.4952  0.1790 -0.1121
 8431TIP3   OH249487   3.084   4.352   1.568 -0.4842  0.6776 -0.1512
 8431TIP3    H149488   3.118   4.264   1.553 -2.9275 -0.2568 -0.8606
 8431TIP3    H249489   3.129   4.383   1.646  0.3491 -1.2543  0.1956
 8432TIP3   OH249490   2.153   1.684   3.051  0.0936  0.7758  0.3409
 8432TIP3    H149491   2.098   1.713   3.124  0.1143  2.4862 -0.2758
 8432TIP3    H249492   2.205   1.761   3.028  1.2104 -0.1810 -0.4854
 8433TIP3   OH249493   2.958   4.204   1.258 -0.3853 -0.1026  0.1216
 8433TIP3    H149494   2.953   4.297   1.279  2.6649  0.3530 -0.6697
 8433TIP3    H249495   2.952   4.201   1.162  1.0376 -0.4964  0.0157
 8434TIP3   OH249496   0.021   7.484   0.907  0.2572 -0.2806  0.0610
 8434TIP3    H149497   0.084   7.511   0.840  0.3209  0.1685  0.3031
 8434TIP3    H249498  -0.065   7.496   0.865  0.2026  1.7029  0.6444
 8435TIP3   OH249499   0.266   5.240   1.250 -0.3313  0.5325 -0.0293
 8435TIP3    H149500   0.256   5.185   1.172 -0.2287 -1.9258  1.6029
 8435TIP3    H249501   0.246   5.183   1.323  0.9589  2.3606  1.8697
 8436TIP3   OH249502   2.408   6.637   1.970 -0.4402 -0.3339 -0.2065
 8436TIP3    H149503   2.441   6.585   1.897  0.8604  0.6499 -0.3385
 8436TIP3    H249504   2.445   6.595   2.048 -0.0571 -0.0829 -0.2555
 8437TIP3   OH249505   1.671   4.788   3.021  0.6506 -0.0887  0.1468
 8437TIP3    H149506   1.596   4.823   3.069  2.9477  1.9363  2.6816
 8437TIP3    H249507   1.708   4.864   2.976  3.1582 -0.0653  1.9957
 8438TIP3   OH249508   1.664   1.298   2.533  0.1388 -0.1790 -0.7091
 8438TIP3    H149509   1.692   1.222   2.482  1.9306  0.4227 -0.6599
 8438TIP3    H249510   1.741   1.324   2.583 -0.2790  1.9406 -1.0635
 8439TIP3   OH249511   0.655   1.868   1.153 -0.1035 -0.4139 -0.0304
 8439TIP3    H149512   0.732   1.871   1.096 -0.5290  0.1783 -0.5847
 8439TIP3    H249513   0.691   1.876   1.241  0.5034 -0.5082 -0.2647
 8440TIP3   OH249514   7.006   2.803   2.021 -0.1002  0.4172 -0.2132
 8440TIP3    H149515   6.974   2.766   2.103  3.1119 -0.5332  0.7730
 8440TIP3    H249516   6.977   2.742   1.953 -0.2159 -0.4967  0.6352
 8441TIP3   OH249517   2.036   5.650   2.057  0.1522 -0.2590 -0.0820
 8441TIP3    H149518   1.986   5.579   2.017  0.2801  0.3509 -1.3895
 8441TIP3    H249519   2.088   5.686   1.985 -0.4395  1.6113  0.3724
 8442TIP3   OH249520   5.488   1.868   1.792 -0.0046 -0.3201  0.1297
 8442TIP3    H149521   5.508   1.779   1.763  0.3793 -0.4143  0.6772
 8442TIP3    H249522   5.573   1.907   1.809 -0.1356  0.3629 -0.7045
 8443TIP3   OH249523   4.587   5.338   1.658  0.0855  0.1524  0.3590
 8443TIP3    H149524   4.601   5.385   1.576  0.9016 -0.0873  0.3467
 8443TIP3    H249525   4.544   5.257   1.632 -1.5786  0.9887  0.4102
 8444TIP3   OH249526   0.896   4.455   3.579 -0.2513  0.6320  0.3159
 8444TIP3    H149527   0.955   4.508   3.633 -0.5294 -0.2604  1.5317
 8444TIP3    H249528   0.955   4.397   3.529 -0.0474  0.3316  0.8929
 8445TIP3   OH249529   1.323   0.686   2.195 -0.2640  0.3832 -0.0176
 8445TIP3    H149530   1.341   0.633   2.117  1.5727  2.3210 -1.0262
 8445TIP3    H249531   1.400   0.742   2.204 -0.6601  0.6241  2.9108
 8446TIP3   OH249532   1.106   1.410   1.119 -0.3985  0.0558 -1.0879
 8446TIP3    H149533   1.144   1.380   1.037  0.6716 -2.7803  0.2879
 8446TIP3    H249534   1.159   1.368   1.187 -3.3524 -0.6751  1.0125
 8447TIP3   OH249535   6.667   3.963   0.816 -0.1936  0.4861 -0.4238
 8447TIP3    H149536   6.602   3.927   0.756  1.9248 -1.0826 -1.9665
 8447TIP3    H249537   6.729   3.890   0.830  1.0111  1.7531  1.2935
 8448TIP3   OH249538   7.623   6.906   0.984  0.2897 -0.3167 -0.0518
 8448TIP3    H149539   7.691   6.857   0.937  1.2577  0.3462  0.6182
 8448TIP3    H249540   7.621   6.991   0.941  1.2543  0.3321  1.1059
 8449TIP3   OH249541   4.012   3.515   0.614  0.1844  0.3213 -0.3720
 8449TIP3    H149542   3.924   3.493   0.583  0.2144  1.0158 -1.0036
 8449TIP3    H249543   4.016   3.481   0.703 -1.1107  1.1864  0.0511
 8450TIP3   OH249544   0.055   5.282   0.526  0.0780  0.2891  0.1727
 8450TIP3    H149545  -0.030   5.275   0.570  0.1053 -1.2581  0.0551
 8450TIP3    H249546   0.033   5.284   0.433  0.1855 -1.2814  0.0906
 8451TIP3   OH249547   5.393   0.594   2.035  0.0696 -0.2443 -0.3821
 8451TIP3    H149548   5.392   0.645   2.115  1.3205  0.9137 -1.0825
 8451TIP3    H249549   5.385   0.503   2.064  0.9462  0.1265  1.0762
 8452TIP3   OH249550   1.905   0.394   2.781 -0.2646 -0.0281 -0.6659
 8452TIP3    H149551   1.878   0.484   2.797 -1.4686 -0.2633 -1.2901
 8452TIP3    H249552   1.824   0.346   2.769  0.3820 -1.0966 -0.9049
 8453TIP3   OH249553   5.995   2.031   1.902  0.2599  0.0542  0.4203
 8453TIP3    H149554   6.082   1.992   1.907 -0.2045 -1.2830 -1.1961
 8453TIP3    H249555   6.011   2.125   1.912  1.5984 -0.3101  2.5653
 8454TIP3   OH249556   1.070   5.457   1.422  0.0863  0.4407  0.7201
 8454TIP3    H149557   1.055   5.503   1.505 -1.0057  1.9041 -0.2198
 8454TIP3    H249558   0.996   5.396   1.415 -0.9480  1.7288 -0.0518
 8455TIP3   OH249559   2.302   6.403   2.845  0.0201  0.3031 -0.1831
 8455TIP3    H149560   2.358   6.480   2.857  0.1368  0.1165  0.5056
 8455TIP3    H249561   2.351   6.331   2.886 -0.9865  0.2522  0.9861
 8456TIP3   OH249562   6.784   3.101   1.345  0.0484  0.4444 -0.1460
 8456TIP3    H149563   6.780   3.117   1.251 -0.2537  1.6363  0.0590
 8456TIP3    H249564   6.757   3.183   1.385  0.8235  0.1759  0.9945
 8457TIP3   OH249565   7.602   2.627   2.627 -0.6415  0.0971  0.2256
 8457TIP3    H149566   7.675   2.580   2.668 -1.3186  0.1023  1.4953
 8457TIP3    H249567   7.580   2.574   2.550  0.0132 -0.4783  0.4248
 8458TIP3   OH249568   6.889   1.669   0.537 -0.5649 -0.3800  0.5831
 8458TIP3    H149569   6.831   1.593   0.545  0.8566 -1.4780  0.9840
 8458TIP3    H249570   6.977   1.633   0.552  0.2330  1.2013 -0.1009
 8459TIP3   OH249571   0.228   4.633   2.751  0.0811  0.2415  0.4611
 8459TIP3    H149572   0.140   4.666   2.770  0.1554  0.3804  0.5689
 8459TIP3    H249573   0.285   4.709   2.763  0.1055  0.3939 -0.5285
 8460TIP3   OH249574   2.348   0.798   1.931  0.2249  0.2613 -0.4736
 8460TIP3    H149575   2.393   0.881   1.920  1.1630 -0.5069 -2.9429
 8460TIP3    H249576   2.388   0.760   2.010  1.1211  1.2930 -0.3997
 8461TIP3   OH249577   6.571   4.624   1.328  0.4861 -0.1116 -0.0704
 8461TIP3    H149578   6.576   4.646   1.421  0.3337  0.5295 -0.2121
 8461TIP3    H249579   6.619   4.694   1.283 -0.1726  0.0525 -0.5403
 8462TIP3   OH249580   2.928   6.156   2.968  0.2259  0.3952  0.3879
 8462TIP3    H149581   3.006   6.164   2.912  0.7892  0.0495  1.1047
 8462TIP3    H249582   2.890   6.072   2.944  1.1347 -0.3059  1.3379
 8463TIP3   OH249583   4.383   2.888   1.985  0.5569 -0.1904  0.0114
 8463TIP3    H149584   4.371   2.963   1.926  1.1458 -0.9492 -1.1183
 8463TIP3    H249585   4.369   2.812   1.929  2.6991 -0.9702  0.4631
 8464TIP3   OH249586   6.578   3.145   2.825 -0.1160  0.0670  0.0816
 8464TIP3    H149587   6.501   3.091   2.842 -0.1924  0.0573 -0.2935
 8464TIP3    H249588   6.631   3.136   2.904 -0.3627 -0.1573  0.2234
 8465TIP3   OH249589   3.197   1.311   0.906 -0.0247 -0.4508  0.4339
 8465TIP3    H149590   3.125   1.249   0.916 -0.9803  0.2026 -1.8156
 8465TIP3    H249591   3.235   1.290   0.821  0.2374  1.3879  0.0454
 8466TIP3   OH249592   6.228   5.894   3.000  0.1724 -0.4571 -0.3275
 8466TIP3    H149593   6.229   5.990   2.996  0.6012 -0.3903  0.9799
 8466TIP3    H249594   6.318   5.870   3.022  0.2636 -1.2184 -1.4641
 8467TIP3   OH249595   2.136   5.953   1.979  0.3986 -0.3347 -0.7078
 8467TIP3    H149596   2.212   6.011   1.964 -1.2812  1.5775 -2.4367
 8467TIP3    H249597   2.164   5.869   1.944  2.8382 -0.6656  1.6459
 8468TIP3   OH249598   2.946   1.126   1.646  0.0879 -0.4915 -0.4227
 8468TIP3    H149599   3.030   1.109   1.689 -0.2154  2.8767  1.9211
 8468TIP3    H249600   2.968   1.135   1.554  2.2613 -0.2353  0.0531
 8469TIP3   OH249601   5.502   1.597   1.750  0.8779 -0.0497  0.0467
 8469TIP3    H149602   5.579   1.560   1.793  0.2206 -0.2659  1.0490
 8469TIP3    H249603   5.481   1.534   1.681  1.3402 -0.2063  0.0484
 8470TIP3   OH249604   5.406   0.428   1.590 -0.2486  0.5502 -0.3966
 8470TIP3    H149605   5.481   0.409   1.647  0.7925  1.2140 -1.4788
 8470TIP3    H249606   5.398   0.523   1.592 -0.7752  0.5124 -0.6488
 8471TIP3   OH249607   4.483   5.121   1.540  0.3002  0.3583  0.3136
 8471TIP3    H149608   4.454   5.174   1.467  0.3608  1.5549  1.1308
 8471TIP3    H249609   4.439   5.037   1.528 -1.4753  1.2740  0.1260
 8472TIP3   OH249610   5.895   4.619   1.671 -0.6000  0.2091 -0.0379
 8472TIP3    H149611   5.908   4.698   1.723  0.1749  0.2206 -0.2310
 8472TIP3    H249612   5.965   4.622   1.605  0.4718 -1.4089  0.9353
 8473TIP3   OH249613   7.478   6.224   2.005  0.1899 -0.1544  0.6497
 8473TIP3    H149614   7.413   6.183   1.949 -0.0024 -1.0199  1.4849
 8473TIP3    H249615   7.559   6.177   1.986  0.4128  0.4066  0.1767
 8474TIP3   OH249616   0.346   7.229   1.044 -0.0474  0.2625  0.1904
 8474TIP3    H149617   0.280   7.278   1.093 -0.1108  0.5114 -0.1388
 8474TIP3    H249618   0.429   7.269   1.070 -0.0257 -0.0233  0.5724
 8475TIP3   OH249619   5.441   6.365   2.369  0.1745  0.4895 -0.0593
 8475TIP3    H149620   5.352   6.385   2.399 -1.6247 -3.0025 -2.3455
 8475TIP3    H249621   5.451   6.417   2.289 -0.6663 -0.4677 -0.8259
 8476TIP3   OH249622   5.283   1.401   1.318 -0.3637  0.0944 -0.4004
 8476TIP3    H149623   5.305   1.379   1.409 -0.0917  0.0922 -0.4660
 8476TIP3    H249624   5.365   1.433   1.280  0.3716 -2.8021 -1.5318
 8477TIP3   OH249625   1.357   0.042   2.999 -0.5809  0.0137 -0.4114
 8477TIP3    H149626   1.419   0.048   3.071 -0.2521  0.8138 -0.7497
 8477TIP3    H249627   1.355  -0.052   2.977 -0.3603 -0.1766  0.3370
 8478TIP3   OH249628   2.042   6.062   0.663  0.5940 -0.4266 -0.3316
 8478TIP3    H149629   1.999   5.991   0.615 -0.3248 -0.8659  1.0815
 8478TIP3    H249630   1.999   6.142   0.632 -1.0732 -0.8284  0.8064
 8479TIP3   OH249631   7.318   3.375   1.047 -0.1233  0.2346 -0.1250
 8479TIP3    H149632   7.307   3.290   1.004 -0.3646  0.6130 -0.8105
 8479TIP3    H249633   7.320   3.439   0.976 -1.4100  0.9567  0.4587
 8480TIP3   OH249634   7.621   4.320   2.218  0.6443  0.2378 -0.3694
 8480TIP3    H149635   7.681   4.392   2.240 -1.6887  1.9282  0.8615
 8480TIP3    H249636   7.605   4.332   2.124 -1.4309  2.8567  0.1965
 8481TIP3   OH249637   7.558   5.331   2.300  0.0145 -0.5975  0.0514
 8481TIP3    H149638   7.613   5.255   2.279 -0.0687 -0.8332  0.6792
 8481TIP3    H249639   7.496   5.299   2.366  0.2691  0.1377  0.6586
 8482TIP3   OH249640   7.595   5.508   0.742 -0.6605  0.0385  0.0577
 8482TIP3    H149641   7.557   5.421   0.730 -0.4723 -0.1759  0.9535
 8482TIP3    H249642   7.636   5.505   0.828  1.8932  0.0723 -1.0728
 8483TIP3   OH249643   2.152   3.261   2.337  0.0122  0.5031  0.3372
 8483TIP3    H149644   2.078   3.226   2.388  1.7012 -0.9277  1.9502
 8483TIP3    H249645   2.132   3.354   2.328 -1.0955  0.5492  2.4345
 8484TIP3   OH249646   4.694   3.537   2.026  0.0537 -0.2398 -0.2333
 8484TIP3    H149647   4.775   3.499   1.992  1.2128 -0.1614  2.2455
 8484TIP3    H249648   4.627   3.470   2.008  1.2464 -1.6107  0.2989
 8485TIP3   OH249649   1.006   5.930   1.869  0.0710  0.1728  0.2427
 8485TIP3    H149650   1.056   5.959   1.793 -0.1140  1.9009  0.7252
 8485TIP3    H249651   0.925   5.894   1.832  0.8663 -0.9907 -0.4458
 8486TIP3   OH249652   6.385   4.623   2.099  0.6625 -0.6176 -0.0577
 8486TIP3    H149653   6.404   4.530   2.091  0.5123 -0.7586  1.0742
 8486TIP3    H249654   6.315   4.639   2.036  0.0453 -1.4737  0.3928
 8487TIP3   OH249655   7.398   3.005   2.744  0.4952  0.0944 -0.2086
 8487TIP3    H149656   7.378   2.956   2.664 -1.7330 -0.6246  0.7077
 8487TIP3    H249657   7.476   2.964   2.780 -0.2343 -1.5546 -0.4544
 8488TIP3   OH249658   3.749   6.845   0.654  0.0789  0.0942 -0.0298
 8488TIP3    H149659   3.797   6.790   0.716  1.2737  1.0022 -0.0904
 8488TIP3    H249660   3.800   6.838   0.573 -1.6663 -1.3718 -1.0686
 8489TIP3   OH249661   0.742   4.722   0.828 -0.5980  0.5274  0.3129
 8489TIP3    H149662   0.704   4.663   0.893  1.4450 -0.5220  0.6124
 8489TIP3    H249663   0.831   4.739   0.860  0.5718 -0.2388 -2.3132
 8490TIP3   OH249664   3.189   1.068   2.734 -0.1732 -0.1140 -0.3401
 8490TIP3    H149665   3.146   1.036   2.814 -0.9334  1.9995  0.1601
 8490TIP3    H249666   3.269   1.109   2.766  0.7090 -1.3068 -0.9543
 8491TIP3   OH249667   5.231   6.699   2.913 -0.4137  0.3660 -0.7645
 8491TIP3    H149668   5.205   6.609   2.934  0.1446  0.4783  0.4566
 8491TIP3    H249669   5.255   6.696   2.820  0.5660 -0.9675 -0.4855
 8492TIP3   OH249670   6.497   7.191   1.970  0.1581  0.2943  0.3765
 8492TIP3    H149671   6.414   7.145   1.956 -0.1642  0.9952 -0.0251
 8492TIP3    H249672   6.557   7.122   1.998 -0.4620 -0.2817  0.3272
 8493TIP3   OH249673   0.106   2.010   2.148  0.3291 -0.3753 -0.0086
 8493TIP3    H149674   0.137   1.982   2.235 -0.9251 -0.5008  0.4199
 8493TIP3    H249675   0.177   1.985   2.089  2.9379  3.0008  1.3524
 8494TIP3   OH249676   1.923   0.690   1.115  0.5568 -0.0676  0.3721
 8494TIP3    H149677   1.912   0.596   1.134  0.4748 -0.2912 -0.7439
 8494TIP3    H249678   1.995   0.716   1.172 -0.1986 -0.5145  1.5923
 8495TIP3   OH249679   5.206   4.410   1.487 -0.3112 -0.1648  0.0801
 8495TIP3    H149680   5.264   4.346   1.445  0.0062  0.3589 -0.2922
 8495TIP3    H249681   5.118   4.384   1.459 -0.2989 -1.1391  0.8849
 8496TIP3   OH249682   1.995   5.234   1.441 -0.3015 -0.2382  0.0677
 8496TIP3    H149683   2.090   5.229   1.456 -0.6825  0.1133  3.4375
 8496TIP3    H249684   1.977   5.328   1.437 -0.4120 -0.2970 -2.0753
 8497TIP3   OH249685   2.282   0.585   2.491 -0.0874 -0.3902 -0.3755
 8497TIP3    H149686   2.368   0.625   2.487 -0.5036  0.6660  0.7874
 8497TIP3    H249687   2.262   0.578   2.584 -1.3561 -0.4202 -0.6248
 8498TIP3   OH249688   4.000   2.521   1.370 -0.5192 -0.0874  0.8791
 8498TIP3    H149689   4.088   2.528   1.405 -0.6219  0.1849  1.0895
 8498TIP3    H249690   3.950   2.589   1.416  0.0340  2.4967 -2.0016
 8499TIP3   OH249691   4.124   7.673   1.226 -0.4659  0.3250 -0.1424
 8499TIP3    H149692   4.110   7.601   1.164 -0.0851 -0.0249  0.1776
 8499TIP3    H249693   4.137   7.750   1.170  0.9322 -0.1679 -0.5357
 8500TIP3   OH249694   4.881   2.868   1.537 -0.5579  0.9130  0.2586
 8500TIP3    H149695   4.932   2.919   1.600  1.0339 -0.7439  0.3849
 8500TIP3    H249696   4.898   2.777   1.560 -1.4098  0.2798 -1.4363
 8501TIP3   OH249697   3.981   7.059   1.540  0.2840 -0.1736  0.0473
 8501TIP3    H149698   4.017   6.985   1.491  1.4940  0.0976  0.5038
 8501TIP3    H249699   3.943   7.116   1.473  3.2157  0.9296 -0.8104
 8502TIP3   OH249700   5.931   6.152   2.444 -0.2597 -0.4188  0.1604
 8502TIP3    H149701   5.927   6.150   2.348 -1.3000  0.4273  0.1619
 8502TIP3    H249702   6.024   6.164   2.464  0.0721 -1.3337 -0.7055
 8503TIP3   OH249703   6.048   5.886   1.081  0.4061  0.0725 -0.4381
 8503TIP3    H149704   5.974   5.944   1.096  1.2774  0.6706  1.8848
 8503TIP3    H249705   6.113   5.942   1.036  0.6373  0.4592  0.3651
 8504TIP3   OH249706   3.369   4.118   0.998 -0.1969 -0.1385  0.7797
 8504TIP3    H149707   3.313   4.123   1.075 -0.6745 -1.1213  0.5089
 8504TIP3    H249708   3.309   4.127   0.924  0.3298  1.5072  0.4947
 8505TIP3   OH249709   3.894   2.221   0.994  0.3594  0.3230  0.2653
 8505TIP3    H149710   3.951   2.244   1.067  1.2962  0.5837 -0.5351
 8505TIP3    H249711   3.823   2.285   0.998  0.9145  0.9382  0.3672
 8506TIP3   OH249712   7.665   1.473   1.794 -0.2502 -0.1620 -0.0449
 8506TIP3    H149713   7.657   1.422   1.875  1.0567 -1.9356 -0.9541
 8506TIP3    H249714   7.732   1.538   1.814  1.0416 -1.4300 -0.0320
 8507TIP3   OH249715   1.520   2.574   3.068  0.0056 -0.4225  0.1499
 8507TIP3    H149716   1.605   2.582   3.024 -0.7322 -1.7367 -1.6322
 8507TIP3    H249717   1.520   2.644   3.133  2.0106  0.2845 -0.5335
 8508TIP3   OH249718   4.805   1.310   2.396  0.2382 -0.0547  0.4498
 8508TIP3    H149719   4.726   1.307   2.450 -0.0431  2.9261  0.3642
 8508TIP3    H249720   4.779   1.273   2.312 -0.4599 -0.9191  1.0250
 8509TIP3   OH249721   2.606   3.842   2.378  0.6402 -0.1934 -0.1184
 8509TIP3    H149722   2.539   3.790   2.334  2.1383  0.3136 -3.2475
 8509TIP3    H249723   2.564   3.926   2.396 -0.2213 -0.6746  0.1858
 8510TIP3   OH249724   1.216   3.754   0.764  0.1737 -0.0628 -0.5051
 8510TIP3    H149725   1.262   3.694   0.823  0.3799  2.5988  2.2751
 8510TIP3    H249726   1.124   3.747   0.788  0.0756  0.1003 -0.8207
 8511TIP3   OH249727   0.795   5.937   0.994  0.1156 -0.0791 -0.2363
 8511TIP3    H149728   0.852   5.960   1.067  1.3634  0.6139 -1.3791
 8511TIP3    H249729   0.746   5.861   1.025  1.6633 -0.7077  0.8071
 8512TIP3   OH249730   1.884   5.708   3.062  0.4722 -0.3497 -0.4381
 8512TIP3    H149731   1.813   5.750   3.013  0.5845 -0.2281 -0.4965
 8512TIP3    H249732   1.944   5.779   3.083  0.9224 -0.5612 -0.9850
 8513TIP3   OH249733   4.225   2.699   1.749  0.2894  0.0314  0.3942
 8513TIP3    H149734   4.220   2.774   1.689 -0.1309 -0.3018  0.0096
 8513TIP3    H249735   4.308   2.657   1.726 -0.2378 -0.5466 -0.5021
 8514TIP3   OH249736   4.410   3.076   1.017  0.1043  0.0784  0.2563
 8514TIP3    H149737   4.415   3.171   1.001 -1.7528  0.1553 -0.0323
 8514TIP3    H249738   4.439   3.066   1.107 -1.7042  1.2050  1.0137
 8515TIP3   OH249739   2.317   6.756   1.668 -0.1147  0.1782 -0.5249
 8515TIP3    H149740   2.373   6.729   1.742  0.3704  1.7032 -0.3008
 8515TIP3    H249741   2.370   6.820   1.620  0.0710 -1.6472 -2.9503
 8516TIP3   OH249742   1.708   6.212   2.416  0.6167  0.1123 -0.0360
 8516TIP3    H149743   1.773   6.202   2.486  0.6542  0.9260  0.0639
 8516TIP3    H249744   1.624   6.196   2.459  0.6515  0.4580  0.1640
 8517TIP3   OH249745   3.613   3.548   2.141 -0.7216  0.1609 -0.7195
 8517TIP3    H149746   3.686   3.522   2.197 -1.8956  0.5341  1.0630
 8517TIP3    H249747   3.638   3.635   2.110 -0.0486 -0.0496 -0.8026
 8518TIP3   OH249748   3.832   4.394   0.709  0.4347  0.3270 -0.3440
 8518TIP3    H149749   3.796   4.312   0.673  2.8866 -0.1626 -1.9488
 8518TIP3    H249750   3.878   4.366   0.788 -0.4935  0.5368  0.2850
 8519TIP3   OH249751   1.274   4.238   2.876  0.5585  0.1287 -0.0797
 8519TIP3    H149752   1.285   4.324   2.836  0.5803  0.3455  0.3907
 8519TIP3    H249753   1.240   4.183   2.805 -1.8198  1.1005  0.2202
 8520TIP3   OH249754   5.879   6.772   2.350 -0.6508  0.0821 -0.2531
 8520TIP3    H149755   5.819   6.822   2.406 -0.6290  0.9133 -0.9519
 8520TIP3    H249756   5.853   6.795   2.261 -0.3361 -0.8094 -0.5796
 8521TIP3   OH249757   2.497   5.694   0.896  0.0324  0.2624  0.4279
 8521TIP3    H149758   2.406   5.697   0.926 -0.5954  1.3955 -1.4120
 8521TIP3    H249759   2.497   5.744   0.814  2.0721 -0.7561 -0.2681
 8522TIP3   OH249760   3.838   7.052   0.954  0.2439 -0.2465 -0.0278
 8522TIP3    H149761   3.868   7.100   1.031 -0.2183 -0.9037  0.5639
 8522TIP3    H249762   3.912   6.995   0.931  0.3703 -0.0727 -0.0517
 8523TIP3   OH249763   0.784   2.660   0.707 -0.0195 -0.1015  0.2739
 8523TIP3    H149764   0.830   2.744   0.699 -0.5384  0.2976  1.3062
 8523TIP3    H249765   0.812   2.610   0.630  0.1003  1.1088 -0.4995
 8524TIP3   OH249766   4.516   6.123   1.982  0.1106  0.0009 -0.3372
 8524TIP3    H149767   4.425   6.141   1.959  0.0861 -1.2128 -1.3055
 8524TIP3    H249768   4.513   6.041   2.030  0.7492 -0.3619 -0.8999
 8525TIP3   OH249769   6.239   2.294   1.235  0.4042  0.6480  0.3107
 8525TIP3    H149770   6.171   2.343   1.189 -0.2734 -1.6177 -1.3082
 8525TIP3    H249771   6.246   2.212   1.186  1.4738 -0.8650  2.7925
 8526TIP3   OH249772   1.735   0.608   2.782 -0.0738  0.6096  0.3511
 8526TIP3    H149773   1.641   0.610   2.803 -0.2240  1.5002 -0.3703
 8526TIP3    H249774   1.757   0.698   2.759  1.4165  0.8448  2.3586
 8527TIP3   OH249775   6.790   4.545   2.979  0.3092  0.2964 -0.1814
 8527TIP3    H149776   6.831   4.459   2.970  0.7054  0.6600 -2.2676
 8527TIP3    H249777   6.839   4.587   3.050  0.2617 -1.0871  0.7103
 8528TIP3   OH249778   6.015   2.339   2.218 -0.1596  0.4370 -0.5308
 8528TIP3    H149779   6.050   2.303   2.136 -0.5413 -0.8327 -0.1537
 8528TIP3    H249780   5.922   2.354   2.200 -0.7436 -1.8785  0.2922
 8529TIP3   OH249781   1.935   3.232   3.171  0.6619  0.5835  0.1801
 8529TIP3    H149782   2.021   3.197   3.195  0.7434  0.2638 -0.5469
 8529TIP3    H249783   1.896   3.163   3.118  1.1488  1.8903 -1.9916
 8530TIP3   OH249784   4.094   7.171   0.467 -0.4990 -0.0288 -0.4995
 8530TIP3    H149785   4.140   7.103   0.418  1.3409  0.8952 -0.1830
 8530TIP3    H249786   4.143   7.178   0.549 -0.8149  1.4529 -0.4072
 8531TIP3   OH249787   5.964   7.649   2.259 -0.1688  0.4954 -0.2017
 8531TIP3    H149788   5.933   7.652   2.169 -0.2487  2.6533 -0.1415
 8531TIP3    H249789   6.053   7.613   2.253 -0.0955  0.8273 -1.1712
 8532TIP3   OH249790   6.023   0.804   2.671 -0.1364  0.3816 -0.0369
 8532TIP3    H149791   6.026   0.847   2.585 -3.1435  1.5872  0.3370
 8532TIP3    H249792   5.997   0.714   2.652 -2.3192  1.0395 -0.3698
 8533TIP3   OH249793   4.514   7.041   3.222  0.2621 -0.0305  0.3656
 8533TIP3    H149794   4.446   7.099   3.188 -0.3896 -1.2037 -0.4105
 8533TIP3    H249795   4.574   7.099   3.269  0.5603  1.5134 -1.7824
 8534TIP3   OH249796   1.331   3.557   0.927 -0.6132 -0.7453 -0.1378
 8534TIP3    H149797   1.398   3.621   0.952 -0.1515 -1.3166  0.1137
 8534TIP3    H249798   1.336   3.490   0.995 -2.7273  0.1017  0.9375
 8535TIP3   OH249799   2.531   2.372   0.559  0.3541  0.0306  0.3401
 8535TIP3    H149800   2.540   2.387   0.653 -1.0153  0.2417  0.4583
 8535TIP3    H249801   2.467   2.302   0.552  2.0654 -1.5506 -0.4062
 8536TIP3   OH249802   1.636   6.422   2.835  0.4507 -0.0047  0.2718
 8536TIP3    H149803   1.553   6.429   2.882  0.1176  2.9494 -0.5480
 8536TIP3    H249804   1.625   6.347   2.777 -0.9544 -0.7484  1.4555
 8537TIP3   OH249805   2.038   3.695   0.382 -0.1221  0.0962 -0.3977
 8537TIP3    H149806   2.006   3.630   0.444 -1.0380  0.1901 -0.7617
 8537TIP3    H249807   2.009   3.664   0.297  1.8297 -0.4680 -0.9183
 8538TIP3   OH249808   5.186   1.677   2.274 -0.1973 -0.1919 -1.2074
 8538TIP3    H149809   5.107   1.625   2.259  0.3248 -1.5627  0.4311
 8538TIP3    H249810   5.162   1.766   2.248 -2.9949 -0.1279  1.1746
 8539TIP3   OH249811   4.378   3.248   3.246  0.1414 -0.2225 -0.4004
 8539TIP3    H149812   4.380   3.341   3.270  1.9626 -0.6770  1.5206
 8539TIP3    H249813   4.296   3.216   3.282  1.3761 -0.1722  2.8459
 8540TIP3   OH249814   1.002   5.417   0.584 -0.5547 -0.0880  1.1684
 8540TIP3    H149815   1.060   5.450   0.515  1.1806 -1.4884  1.8924
 8540TIP3    H249816   0.956   5.495   0.615  1.3673  1.2230  0.9336
 8541TIP3   OH249817   3.606   3.954   2.399 -0.0464  0.5739  0.1495
 8541TIP3    H149818   3.599   3.967   2.493 -2.4405 -0.9570  0.2863
 8541TIP3    H249819   3.697   3.930   2.384  0.4127  1.0241  2.0273
 8542TIP3   OH249820   5.570   4.949   1.281 -0.3926 -0.1597  0.2526
 8542TIP3    H149821   5.488   4.940   1.234 -0.5604 -1.5076  0.7376
 8542TIP3    H249822   5.563   5.031   1.329 -0.2501  1.1899 -1.9491
 8543TIP3   OH249823   0.893   1.183   1.114  0.3039  0.6606  0.2565
 8543TIP3    H149824   0.915   1.178   1.207 -0.0480  2.3681  0.4730
 8543TIP3    H249825   0.919   1.272   1.089 -1.5519  0.9579 -0.7481
 8544TIP3   OH249826   1.568   4.777   1.833 -0.0077 -0.3007  0.6589
 8544TIP3    H149827   1.613   4.813   1.757 -0.0872 -3.6115 -1.1527
 8544TIP3    H249828   1.534   4.853   1.880  0.8858  1.9366 -2.0734
 8545TIP3   OH249829   2.639   0.647   1.915  0.1000  0.2854  0.1756
 8545TIP3    H149830   2.636   0.650   1.819 -0.9351  0.3910  0.1959
 8545TIP3    H249831   2.572   0.582   1.939 -2.3988  2.8976  0.9062
 8546TIP3   OH249832   6.307   4.862   0.841  0.0012 -0.6884 -0.0548
 8546TIP3    H149833   6.334   4.894   0.928 -1.9113  1.7878 -0.2422
 8546TIP3    H249834   6.223   4.818   0.857  0.2450 -1.3218 -0.4997
 8547TIP3   OH249835   5.340   7.181   1.927  0.3500  0.3087  0.3036
 8547TIP3    H149836   5.319   7.231   1.848 -0.1820  0.4770  0.5477
 8547TIP3    H249837   5.395   7.240   1.978 -2.5258  1.8333  1.8934
 8548TIP3   OH249838   2.863   1.486   1.299 -0.0494 -0.7487  0.4681
 8548TIP3    H149839   2.812   1.405   1.311 -0.8950 -0.2708  0.2017
 8548TIP3    H249840   2.855   1.505   1.205 -3.7026  2.0360  1.1182
 8549TIP3   OH249841   4.962   2.118   0.600  0.2809  0.2025 -0.6021
 8549TIP3    H149842   5.023   2.163   0.657  1.3890  0.0266 -1.6027
 8549TIP3    H249843   4.883   2.172   0.600  0.9711  1.2244 -0.4405
 8550TIP3   OH249844   7.548   1.972   6.934 -0.0909 -0.2694  0.0587
 8550TIP3    H149845   7.640   1.948   6.950 -0.3935 -0.7032  1.2301
 8550TIP3    H249846   7.502   1.888   6.934 -0.4120 -0.1009 -1.1231
 8551TIP3   OH249847   4.888   3.618   1.721 -0.6561  0.5724 -0.0333
 8551TIP3    H149848   4.821   3.621   1.654  1.0208 -0.0040 -1.8431
 8551TIP3    H249849   4.862   3.546   1.779 -1.6967  0.5191 -0.5548
 8552TIP3   OH249850   0.515   1.551   2.621 -0.0405 -0.3974 -0.5212
 8552TIP3    H149851   0.434   1.595   2.649  0.9349  1.1099  0.0307
 8552TIP3    H249852   0.564   1.618   2.574  2.7944  0.1439  2.7714
 8553TIP3   OH249853   2.523   3.363   3.323 -0.4729  0.3234  0.3578
 8553TIP3    H149854   2.441   3.382   3.276 -1.2910 -3.5138 -0.1072
 8553TIP3    H249855   2.495   3.336   3.410  0.2358 -1.2576  0.1241
 8554TIP3   OH249856   4.626   2.756   3.411  0.1178  0.5345 -0.2189
 8554TIP3    H149857   4.707   2.789   3.450 -1.1821  0.9869  2.3232
 8554TIP3    H249858   4.572   2.835   3.397 -0.2211  0.1626 -1.0587
 8555TIP3   OH249859   0.637   2.802   3.406 -0.5167  0.1647 -0.0134
 8555TIP3    H149860   0.551   2.772   3.377 -1.0577  1.2562  0.4115
 8555TIP3    H249861   0.668   2.733   3.465 -1.1328 -0.1932 -0.1044
 8556TIP3   OH249862   5.230   0.865   1.025  0.2026  0.2661  0.1939
 8556TIP3    H149863   5.239   0.838   1.117  0.1424 -0.3630  0.0187
 8556TIP3    H249864   5.162   0.932   1.026  0.2895  0.3505  0.6257
 8557TIP3   OH249865   0.858   5.626   0.665  0.0789  0.2389  0.4055
 8557TIP3    H149866   0.872   5.720   0.675 -2.2979  0.5343  1.7208
 8557TIP3    H249867   0.821   5.597   0.748 -1.6417 -1.3264 -0.8025
 8558TIP3   OH249868   4.628   1.397   0.996 -0.1740  0.1041 -0.0799
 8558TIP3    H149869   4.548   1.354   0.966  0.4700 -0.3837 -1.1855
 8558TIP3    H249870   4.683   1.403   0.917  0.6400  0.9649  0.5242
 8559TIP3   OH249871   2.925   6.187   0.819  0.3384  0.0060 -0.7351
 8559TIP3    H149872   2.965   6.256   0.766  0.3998 -0.2396 -1.0160
 8559TIP3    H249873   2.835   6.216   0.833  0.6505  0.6319  0.0265
 8560TIP3   OH249874   6.999   0.774   1.073 -0.7346 -0.0374  0.0998
 8560TIP3    H149875   7.076   0.721   1.054 -0.7429  0.4419 -1.3831
 8560TIP3    H249876   6.927   0.711   1.073 -0.3911 -0.4541  1.2870
 8561TIP3   OH249877   2.112   7.112   2.721 -0.2070 -0.6954  0.5078
 8561TIP3    H149878   2.067   7.028   2.719 -0.7289 -0.4045 -0.4758
 8561TIP3    H249879   2.196   7.093   2.763 -0.3771 -1.6758  0.4206
 8562TIP3   OH249880   0.458   4.139   8.701  0.0887 -0.3064  0.3283
 8562TIP3    H149881   0.549   4.137   8.674  0.0141 -0.4706  0.0815
 8562TIP3    H249882   0.414   4.077   8.641 -0.7525  2.0420 -1.6522
 8563TIP3   OH249883   4.517   4.383   0.746 -0.3038 -0.5180  0.8644
 8563TIP3    H149884   4.574   4.396   0.822 -0.0826 -0.7472  0.7405
 8563TIP3    H249885   4.487   4.292   0.753 -0.8548 -0.3257  1.0623
 8564TIP3   OH249886   1.280   4.519   0.851 -0.2645 -0.0397  0.1208
 8564TIP3    H149887   1.305   4.477   0.769 -0.6043  0.9265 -0.4939
 8564TIP3    H249888   1.236   4.450   0.901 -0.4843 -0.5114 -0.7063
 8565TIP3   OH249889   5.367   3.026   2.063 -0.2659  0.0844 -0.9434
 8565TIP3    H149890   5.406   3.068   2.140  0.8778  0.7016 -1.8266
 8565TIP3    H249891   5.291   3.080   2.042 -0.3005  0.1974 -0.5415
 8566TIP3   OH249892   7.089   1.850   3.167  0.2815  0.2001  0.5299
 8566TIP3    H149893   7.117   1.769   3.124 -0.5184 -0.3221  0.9689
 8566TIP3    H249894   7.022   1.885   3.110  1.7007  1.4127 -0.4824
 8567TIP3   OH249895   1.419   3.108   2.316 -0.4770  0.5613  0.0372
 8567TIP3    H149896   1.413   3.078   2.225 -0.4297 -1.3610  0.6251
 8567TIP3    H249897   1.397   3.201   2.312  0.7698  0.8332 -2.1149
 8568TIP3   OH249898   1.762   0.138   1.754 -0.1416 -0.2524  0.2825
 8568TIP3    H149899   1.778   0.066   1.815 -1.2508 -0.8834 -0.1293
 8568TIP3    H249900   1.721   0.096   1.678 -0.2496  0.7342 -0.2228
 8569TIP3   OH249901   6.139   5.983   1.599  0.0699 -0.6342  0.1253
 8569TIP3    H149902   6.061   5.987   1.654  0.2363  0.1288  0.3242
 8569TIP3    H249903   6.204   6.037   1.645  0.9606 -1.8302  0.3328
 8570TIP3   OH249904   0.679   3.928   2.720 -0.3714  0.1752 -0.4202
 8570TIP3    H149905   0.682   3.875   2.640  2.9476 -0.2564 -0.1351
 8570TIP3    H249906   0.728   4.007   2.698  0.4242  0.1397  1.1366
 8571TIP3   OH249907   5.177   5.493   2.662 -0.5515  0.2037 -0.1627
 8571TIP3    H149908   5.247   5.554   2.684 -1.1367  1.1019 -0.7215
 8571TIP3    H249909   5.109   5.510   2.727 -0.2690 -0.6648  0.3782
 8572TIP3   OH249910   0.632   4.170   2.997  0.1243  0.3572 -0.0022
 8572TIP3    H149911   0.653   4.173   3.090  1.1472 -0.1232 -0.2122
 8572TIP3    H249912   0.684   4.241   2.958 -0.8495  1.0303 -0.1141
 8573TIP3   OH249913   3.150   0.262   1.035  0.3556 -0.7412 -0.2675
 8573TIP3    H149914   3.107   0.208   0.969  1.8615 -1.2843 -0.8439
 8573TIP3    H249915   3.079   0.287   1.095 -1.4595  1.1706 -2.9213
 8574TIP3   OH249916   6.232   6.039   2.167  0.0737  0.5007  0.4622
 8574TIP3    H149917   6.238   6.041   2.072 -0.8305  1.0016  0.4068
 8574TIP3    H249918   6.283   6.115   2.197  1.6777 -0.5195  0.4855
 8575TIP3   OH249919   2.375   5.413   3.362 -0.8409 -0.1133 -0.1666
 8575TIP3    H149920   2.468   5.391   3.371 -0.6260  0.3937 -1.0387
 8575TIP3    H249921   2.340   5.405   3.451  0.4354  1.4678  0.5335
 8576TIP3   OH249922   2.460   3.077   0.569 -0.0506 -0.0957 -0.4329
 8576TIP3    H149923   2.536   3.035   0.527 -0.2524  0.3675 -1.2849
 8576TIP3    H249924   2.384   3.030   0.534 -0.2473  0.5955 -0.9468
 8577TIP3   OH249925   6.424   5.874   1.522 -0.0976 -0.5714  0.1071
 8577TIP3    H149926   6.350   5.829   1.563  0.6018 -0.5691  1.4350
 8577TIP3    H249927   6.424   5.842   1.431 -0.0937 -2.6802  0.7929
 8578TIP3   OH249928   5.123   4.524   0.422  0.1926  0.4274 -0.1722
 8578TIP3    H149929   5.125   4.429   0.411 -0.9017  0.2910  0.6057
 8578TIP3    H249930   5.090   4.537   0.511 -0.3131  1.5418 -0.5019
 8579TIP3   OH249931   0.742   5.786   1.739  0.5901 -0.0149 -0.1598
 8579TIP3    H149932   0.647   5.774   1.737  0.8466 -2.4710 -0.3529
 8579TIP3    H249933   0.773   5.744   1.659  1.9877 -0.9198  0.8244
 8580TIP3   OH249934   7.379   6.221   1.590  0.2047 -0.0653  0.4632
 8580TIP3    H149935   7.306   6.177   1.546  0.0825  0.6802 -0.0952
 8580TIP3    H249936   7.338   6.271   1.661  0.2129  0.0300  0.4016
 8581TIP3   OH249937   2.690   4.424   1.630  0.2474 -0.9703 -0.2835
 8581TIP3    H149938   2.701   4.349   1.688 -2.6374 -0.5448  0.9480
 8581TIP3    H249939   2.730   4.497   1.677  1.9320 -1.4337 -0.9246
 8582TIP3   OH249940   4.180   3.008   3.094 -0.0714  0.3323 -0.6979
 8582TIP3    H149941   4.125   2.935   3.063  1.4298 -0.9336 -0.4870
 8582TIP3    H249942   4.270   2.976   3.084  0.7831  3.0215 -2.7873
 8583TIP3   OH249943   4.549   1.297   2.502 -0.1900  0.0361  0.5796
 8583TIP3    H149944   4.509   1.237   2.564  2.3493 -0.6782  1.6695
 8583TIP3    H249945   4.511   1.382   2.522 -1.1109 -0.5847  1.5463
 8584TIP3   OH249946   4.010   1.652   1.205 -0.4841  0.6900 -0.0768
 8584TIP3    H149947   4.069   1.615   1.270 -2.8037 -1.9577  0.7291
 8584TIP3    H249948   4.047   1.626   1.121  0.6953  1.1032  0.3039
 8585TIP3   OH249949   4.769   7.680   1.443 -0.5732 -0.1339  0.3588
 8585TIP3    H149950   4.841   7.673   1.380 -0.3867  1.4677  0.3334
 8585TIP3    H249951   4.702   7.731   1.397 -0.5523  0.8170  1.3379
 8586TIP3   OH249952   5.521   3.118   0.705 -0.3161 -0.2494  0.6580
 8586TIP3    H149953   5.428   3.096   0.701 -0.4583 -0.2489  2.6564
 8586TIP3    H249954   5.523   3.206   0.745  0.5325 -0.1235  0.3562
 8587TIP3   OH249955   7.021   0.383   2.294  0.3151  0.2660 -0.2565
 8587TIP3    H149956   6.963   0.459   2.291 -0.5513 -0.3520  0.6136
 8587TIP3    H249957   7.107   0.420   2.317 -0.6686  0.7339  3.1458
 8588TIP3   OH249958   5.979   3.722   2.043  0.2350 -0.4859 -0.0385
 8588TIP3    H149959   6.072   3.712   2.063  0.2675  1.2288  0.8836
 8588TIP3    H249960   5.976   3.755   1.953  0.5614  0.0931  0.1611
 8589TIP3   OH249961   6.461   6.943   1.684 -0.6861 -0.4472  0.1814
 8589TIP3    H149962   6.556   6.935   1.671 -0.2906  1.2978  1.6495
 8589TIP3    H249963   6.425   6.941   1.595  0.9875  1.6557 -0.6272
 8590TIP3   OH249964   7.511   5.242   0.692  0.6408 -0.1750 -0.1950
 8590TIP3    H149965   7.547   5.166   0.738  0.3893 -0.2304 -0.0882
 8590TIP3    H249966   7.426   5.257   0.733 -0.1486 -0.9901 -1.4308
 8591TIP3   OH249967   1.383   7.048   1.967  0.4865 -0.2361  0.3922
 8591TIP3    H149968   1.399   7.140   1.990 -0.2270  0.0062 -0.0622
 8591TIP3    H249969   1.455   7.026   1.908 -0.5256  0.7167 -1.2790
 8592TIP3   OH249970   4.258   1.898   2.386  0.1266 -0.1241 -0.0606
 8592TIP3    H149971   4.210   1.962   2.438 -1.7200 -0.4018 -1.3442
 8592TIP3    H249972   4.275   1.942   2.303  0.9383 -0.5116 -0.1144
 8593TIP3   OH249973   7.196   1.498   0.833 -0.1717 -0.1511  0.6267
 8593TIP3    H149974   7.147   1.545   0.765 -0.2824  0.6729  1.2683
 8593TIP3    H249975   7.285   1.533   0.826 -0.1235 -0.2509  0.7450
 8594TIP3   OH249976   2.333   2.647   2.355  0.3813 -0.4522 -0.1669
 8594TIP3    H149977   2.311   2.555   2.372 -0.7822 -0.4469 -1.4844
 8594TIP3    H249978   2.349   2.651   2.261 -2.3216  1.1845 -0.6607
 8595TIP3   OH249979   4.970   1.301   1.021  0.0762 -0.1233 -0.2316
 8595TIP3    H149980   4.897   1.309   0.960  0.0993  0.0631 -0.2375
 8595TIP3    H249981   4.996   1.209   1.017  0.0895 -0.1074 -0.5148
 8596TIP3   OH249982   6.499   6.832   2.485  0.5139 -0.3775 -0.0599
 8596TIP3    H149983   6.496   6.887   2.407  1.8570  0.4727  0.4407
 8596TIP3    H249984   6.416   6.784   2.485 -0.7110  1.6371 -0.5322
 8597TIP3   OH249985   5.654   1.760   2.135  0.4019 -0.4152  0.3838
 8597TIP3    H149986   5.586   1.757   2.068 -0.2497 -2.1292  1.0510
 8597TIP3    H249987   5.656   1.851   2.163 -1.4932 -0.2771  0.1978
 8598TIP3   OH249988   6.761   7.480   3.110 -0.7072  0.5454  0.1325
 8598TIP3    H149989   6.774   7.566   3.149 -0.6893  0.4029  0.4513
 8598TIP3    H249990   6.785   7.419   3.180  1.1441  0.2662 -0.6816
 8599TIP3   OH249991   3.776   2.784   1.119 -0.6872 -0.0664 -0.2425
 8599TIP3    H149992   3.799   2.692   1.126 -0.0604 -0.2048 -2.9531
 8599TIP3    H249993   3.704   2.786   1.055  0.0024  1.3611 -1.0363
 8600TIP3   OH249994   2.751   2.867   1.162  0.3924 -0.4066 -0.1830
 8600TIP3    H149995   2.691   2.848   1.090 -0.3189 -0.4749  0.4152
 8600TIP3    H249996   2.762   2.962   1.159 -0.0279 -0.3498 -0.0868
 8601TIP3   OH249997   1.426   4.987   0.876 -0.2378 -0.0204 -0.7882
 8601TIP3    H149998   1.471   5.024   0.951 -3.6688  0.8039  1.0742
 8601TIP3    H249999   1.447   4.893   0.879  2.4727  0.4958 -1.0324
 8602TIP3   OH250000   3.572   3.246   1.565 -0.5570 -0.4479  0.2847
 8602TIP3    H150001   3.589   3.172   1.507 -1.8552  0.4029 -1.2752
 8602TIP3    H250002   3.503   3.214   1.624  0.7410 -1.3037  1.3993
 8603TIP3   OH250003   5.626   2.276   2.303 -0.5940 -0.0158  0.3609
 8603TIP3    H150004   5.682   2.314   2.371 -1.2591  0.6393  0.5486
 8603TIP3    H250005   5.548   2.330   2.303 -0.5983  0.0118 -0.9546
 8604TIP3   OH250006   4.558   4.784   2.211 -0.4145 -0.3363 -0.6503
 8604TIP3    H150007   4.500   4.846   2.256  0.4088  0.4081 -0.5849
 8604TIP3    H250008   4.548   4.806   2.118  0.5180  0.4910 -0.5708
 8605TIP3   OH250009   1.412   3.162   0.660 -0.1931  0.0416 -0.0680
 8605TIP3    H150010   1.468   3.215   0.717  1.9641 -1.3024 -0.8367
 8605TIP3    H250011   1.463   3.084   0.641 -1.5620 -0.3928 -2.3937
 8606TIP3   OH250012   7.644   6.515   1.778  0.0998  0.0390  0.2553
 8606TIP3    H150013   7.659   6.450   1.709 -0.5421 -1.2724  1.3321
 8606TIP3    H250014   7.550   6.528   1.780  0.1240  0.1510  0.8271
 8607TIP3   OH250015   6.232   3.872   2.279  0.0636 -0.4788 -0.0561
 8607TIP3    H150016   6.323   3.844   2.284  0.2342  0.2101  1.2565
 8607TIP3    H250017   6.236   3.968   2.280 -0.6409 -0.4240 -1.0453
 8608TIP3   OH250018   0.299   6.796   0.925  0.5221 -0.2634 -0.5241
 8608TIP3    H150019   0.378   6.743   0.938 -0.6374 -2.1285 -0.7900
 8608TIP3    H250020   0.234   6.759   0.984 -0.6142  0.2704 -1.3980
 8609TIP3   OH250021   7.563   2.166   2.065 -0.0519 -0.6672 -0.4756
 8609TIP3    H150022   7.563   2.154   1.970 -0.4693  1.1284 -0.7316
 8609TIP3    H250023   7.637   2.114   2.096  0.9355 -0.1773 -1.9298
 8610TIP3   OH250024   1.520   2.726   2.068  0.3554  0.8238  0.9966
 8610TIP3    H150025   1.486   2.776   1.994  0.8075 -0.5014 -0.1568
 8610TIP3    H250026   1.486   2.771   2.145 -0.5097  1.9805 -0.0165
 8611TIP3   OH250027   5.301   5.050   2.381 -0.2490 -0.6174  0.2773
 8611TIP3    H150028   5.220   5.046   2.329  0.3679  1.4168 -0.9425
 8611TIP3    H250029   5.288   5.124   2.440  1.2077  0.6652 -0.9164
 8612TIP3   OH250030   0.901   3.778   0.718  0.4930  0.0456  0.0706
 8612TIP3    H150031   0.898   3.708   0.784  0.1156  0.1974  0.2171
 8612TIP3    H250032   0.831   3.838   0.743 -0.5818 -0.6045 -1.2491
 8613TIP3   OH250033   3.545   2.786   0.665  0.3633  0.5772  0.0403
 8613TIP3    H150034   3.527   2.880   0.658  1.9960  1.0565  1.5739
 8613TIP3    H250035   3.617   2.771   0.603 -0.0050  0.2864 -0.3246
 8614TIP3   OH250036   6.888   4.393   1.587  0.6322  0.0961  0.7455
 8614TIP3    H150037   6.944   4.333   1.636 -0.8569 -3.4784 -1.5134
 8614TIP3    H250038   6.811   4.405   1.644  1.1881  0.4027  1.4568
 8615TIP3   OH250039   2.566   5.506   2.797 -0.0314 -0.1809 -0.1498
 8615TIP3    H150040   2.529   5.594   2.790  0.8977  0.3857  1.3480
 8615TIP3    H250041   2.551   5.481   2.888 -1.0243 -1.9521 -0.7600
 8616TIP3   OH250042   4.225   6.985   0.341 -0.2591  0.2172 -0.5183
 8616TIP3    H150043   4.256   7.039   0.267 -1.8895 -0.6209 -1.8924
 8616TIP3    H250044   4.287   6.913   0.346  0.5211  0.8928 -0.3052
 8617TIP3   OH250045   3.515   3.838   1.589 -0.8020 -0.3594 -0.1726
 8617TIP3    H150046   3.470   3.853   1.506  0.0796 -2.0398 -1.0147
 8617TIP3    H250047   3.551   3.924   1.613  1.0270 -0.2688 -2.8444
 8618TIP3   OH250048   3.443   5.683   0.765  0.0802 -0.4676 -0.7793
 8618TIP3    H150049   3.358   5.710   0.799 -0.3037 -0.5628 -1.6276
 8618TIP3    H250050   3.438   5.587   0.760  0.2761 -0.4820 -0.7241
 8619TIP3   OH250051   2.279   0.162   2.752  0.2408 -0.2886  0.1360
 8619TIP3    H150052   2.241   0.227   2.693  0.0480 -1.0772 -0.6315
 8619TIP3    H250053   2.364   0.198   2.776 -0.6468  1.1591  1.2950
 8620TIP3   OH250054   5.819   5.901   2.071 -0.0349 -0.3906 -0.1628
 8620TIP3    H150055   5.794   5.994   2.071 -1.7225 -0.6595  3.6119
 8620TIP3    H250056   5.741   5.855   2.102  0.5548 -3.2490 -2.4696
 8621TIP3   OH250057   5.910   5.373   0.997  0.0588  0.0016 -0.1134
 8621TIP3    H150058   5.829   5.403   0.955 -0.2096 -1.0695 -0.3810
 8621TIP3    H250059   5.943   5.303   0.940 -0.5391 -1.8106  1.6424
 8622TIP3   OH250060   1.333   2.038   1.113 -0.1784  0.4778 -0.4852
 8622TIP3    H150061   1.420   2.006   1.092 -0.7147 -1.9216  0.6662
 8622TIP3    H250062   1.348   2.121   1.160  1.4871 -0.0295 -0.0814
 8623TIP3   OH250063   6.548   6.254   1.867 -0.2669  0.0764 -0.7999
 8623TIP3    H150064   6.512   6.205   1.941 -0.1058  0.5960 -0.3771
 8623TIP3    H250065   6.501   6.219   1.791 -0.7288 -0.1755 -0.4063
 8624TIP3   OH250066   4.055   3.069   1.508  0.3156 -0.4018 -0.2226
 8624TIP3    H150067   3.966   3.034   1.510 -0.3695  1.0880 -1.7216
 8624TIP3    H250068   4.084   3.056   1.417  1.3494 -0.2508  0.0770
 8625TIP3   OH250069   1.583   5.843   1.262  0.0739 -0.1220  0.3893
 8625TIP3    H150070   1.580   5.777   1.332 -0.5035 -0.5438 -0.0275
 8625TIP3    H250071   1.502   5.831   1.214 -0.0759  0.9518  0.3471
 8626TIP3   OH250072   0.384   1.521   0.559  0.2326  0.3179  0.4295
 8626TIP3    H150073   0.291   1.506   0.578  0.1499 -0.8903 -0.7195
 8626TIP3    H250074   0.430   1.495   0.638 -0.3710  0.2228  0.7517
 8627TIP3   OH250075   4.258   1.004   2.705  0.7117  0.1433 -0.3097
 8627TIP3    H150076   4.215   1.061   2.769 -1.0185  1.2073 -2.3104
 8627TIP3    H250077   4.292   1.063   2.639  0.1723 -1.0561 -1.7064
 8628TIP3   OH250078   5.052   5.485   3.089  0.5360 -0.0435  0.3101
 8628TIP3    H150079   5.068   5.527   3.174  2.0742 -1.5419  0.8213
 8628TIP3    H250080   5.071   5.553   3.025 -1.9636  1.5464  1.0996
 8629TIP3   OH250081   5.083   2.120   3.089 -0.0956  0.2345  0.2414
 8629TIP3    H150082   5.065   2.056   3.158  0.9906  0.7523  1.0260
 8629TIP3    H250083   5.021   2.191   3.105 -1.0219 -0.4098 -0.3812
 8630TIP3   OH250084   4.252   3.242   2.932 -0.0625  0.0220 -0.3262
 8630TIP3    H150085   4.216   3.168   2.980 -1.7250  0.5870 -0.6578
 8630TIP3    H250086   4.302   3.202   2.861  1.5664 -0.7974  1.2001
 8631TIP3   OH250087   1.133   1.534   1.638  0.0135 -0.3402  0.1927
 8631TIP3    H150088   1.041   1.551   1.659 -0.0840 -0.3632 -0.2067
 8631TIP3    H250089   1.158   1.607   1.581  0.2965 -0.2350  0.4474
 8632TIP3   OH250090   5.745   3.042   1.419  0.1341 -0.2585 -0.2319
 8632TIP3    H150091   5.772   3.102   1.489  0.4010 -0.4357 -0.1835
 8632TIP3    H250092   5.764   2.955   1.453  0.3524 -0.3416 -0.5616
 8633TIP3   OH250093   3.958   6.316   0.645  0.3618  0.4189 -0.3659
 8633TIP3    H150094   3.867   6.305   0.617  0.3021  1.6206 -0.6714
 8633TIP3    H250095   3.989   6.394   0.598  0.7010  1.6561  1.7969
 8634TIP3   OH250096   5.790   7.561   1.937  0.4446 -0.4202 -0.1041
 8634TIP3    H150097   5.763   7.652   1.936 -1.0453 -0.7414  2.5081
 8634TIP3    H250098   5.882   7.563   1.908 -0.0786  1.6196 -1.8742
 8635TIP3   OH250099   7.080   5.195   3.171 -0.1870 -0.5334 -0.1252
 8635TIP3    H150100   7.003   5.173   3.118  0.0744 -3.3560  0.5255
 8635TIP3    H250101   7.046   5.253   3.239 -1.6342 -1.2482 -0.1974
 8636TIP3   OH250102   1.185   5.173   1.417  0.0463  0.1395  0.2604
 8636TIP3    H150103   1.141   5.151   1.499 -1.9197  1.0101 -0.4825
 8636TIP3    H250104   1.205   5.267   1.425  1.2792 -0.1146  0.3440
 8637TIP3   OH250105   6.330   0.717   1.826 -0.2345 -0.4025 -0.3315
 8637TIP3    H150106   6.296   0.754   1.745 -1.7825 -0.4377  0.2597
 8637TIP3    H250107   6.407   0.666   1.799  2.1117  3.1925 -1.1752
 8638TIP3   OH250108   6.178   5.146   2.037  0.0180 -0.0980 -0.2352
 8638TIP3    H150109   6.217   5.135   2.124  2.2610 -2.2586 -1.4026
 8638TIP3    H250110   6.090   5.179   2.055  0.6592  0.2843  2.7978
 8639TIP3   OH250111   4.481   3.502   0.620  0.5177 -0.3189 -0.2665
 8639TIP3    H150112   4.411   3.441   0.597  0.8408 -1.0428  0.5882
 8639TIP3    H250113   4.437   3.586   0.634 -0.3467 -0.9749  1.2168
 8640TIP3   OH250114   2.819   7.206   2.478  0.2393 -0.7431  0.3104
 8640TIP3    H150115   2.890   7.152   2.513  0.2235 -1.5637 -0.8878
 8640TIP3    H250116   2.745   7.146   2.469  0.3186 -0.6254 -1.3627
 8641TIP3   OH250117   0.588   0.302   0.483  0.5043 -0.4945  0.2131
 8641TIP3    H150118   0.508   0.313   0.534  0.9654 -0.8752  1.0398
 8641TIP3    H250119   0.585   0.373   0.419 -0.3098 -0.2821  0.4670
 8642TIP3   OH250120   4.545   3.260   3.016  0.3200  0.0857 -0.2123
 8642TIP3    H150121   4.493   3.229   3.090 -0.8515  1.9489 -0.1948
 8642TIP3    H250122   4.609   3.190   3.001  0.0735 -0.7012  2.0173
 8643TIP3   OH250123   4.958   5.950   2.947  0.5787 -0.6346 -0.5244
 8643TIP3    H150124   4.872   5.927   2.911  1.0280 -0.7496 -1.5564
 8643TIP3    H250125   4.962   6.045   2.939 -0.5505 -0.2823  2.0948
 8644TIP3   OH250126   2.165   3.254   2.011  0.3575 -0.7333 -0.3359
 8644TIP3    H150127   2.161   3.239   2.106  3.4644 -4.3471 -0.4978
 8644TIP3    H250128   2.245   3.305   1.998  1.7765 -2.9376 -0.9961
 8645TIP3   OH250129   7.288   7.223   0.702  0.1900  0.2659  0.4576
 8645TIP3    H150130   7.230   7.149   0.687 -1.5586  1.4308  1.1838
 8645TIP3    H250131   7.367   7.203   0.651 -0.8973 -1.2792 -0.6874
 8646TIP3   OH250132   0.931   4.574   2.064  0.3752  0.4543 -0.2799
 8646TIP3    H150133   0.995   4.620   2.118 -0.2648  0.0208  0.8904
 8646TIP3    H250134   0.983   4.530   1.997  1.2515  0.4986  0.3592
 8647TIP3   OH250135   1.623   1.707   2.989 -0.2803 -0.7229  0.5363
 8647TIP3    H150136   1.572   1.711   3.070  0.1262  1.1765  0.7442
 8647TIP3    H250137   1.698   1.651   3.010 -0.8205 -1.2438  1.0892
 8648TIP3   OH250138   7.637   3.311   1.000 -0.0688 -0.3392 -0.4275
 8648TIP3    H150139   7.672   3.222   1.002  0.9421  0.0402 -0.7315
 8648TIP3    H250140   7.544   3.299   0.978 -0.0383 -1.3335 -0.0858
 8649TIP3   OH250141   0.154   0.750   3.039  0.1114 -0.4412  0.0850
 8649TIP3    H150142   0.089   0.783   2.977  0.3432 -0.9231 -0.4323
 8649TIP3    H250143   0.139   0.656   3.041 -0.7669 -0.2950  1.7992
 8650TIP3   OH250144   4.823   2.394   0.633 -0.1695  0.3764 -0.4451
 8650TIP3    H150145   4.888   2.451   0.674 -0.8816 -0.1877  1.5950
 8650TIP3    H250146   4.785   2.345   0.705 -1.0918 -1.1489 -1.8876
 8651TIP3   OH250147   3.144   3.439   2.975 -0.1199 -0.2126 -0.3119
 8651TIP3    H150148   3.072   3.444   3.037 -0.1756  1.0243 -0.4502
 8651TIP3    H250149   3.142   3.522   2.929  0.9581 -0.4437 -0.8196
 8652TIP3   OH250150   6.441   5.160   0.634 -0.4823 -0.6020 -0.6105
 8652TIP3    H150151   6.351   5.194   0.631 -0.0645  0.5367 -0.8543
 8652TIP3    H250152   6.489   5.215   0.572  1.0395  0.8842  1.7140
 8653TIP3   OH250153   2.349   0.984   2.699 -0.4208 -0.0119 -0.1699
 8653TIP3    H150154   2.372   1.007   2.789  1.4157 -1.1641 -0.2808
 8653TIP3    H250155   2.346   0.888   2.700 -0.2034 -0.0390 -1.3687
 8654TIP3   OH250156   1.754   5.981   1.963  0.3302 -0.0069  0.0380
 8654TIP3    H150157   1.803   5.963   2.043  1.1702  0.7458 -0.2882
 8654TIP3    H250158   1.819   6.021   1.904 -0.4782  0.2327 -0.7036
 8655TIP3   OH250159   2.982   0.928   1.444  0.2971  0.3612 -0.2781
 8655TIP3    H150160   2.902   0.954   1.400  1.3561  1.9778 -1.3758
 8655TIP3    H250161   3.042   1.001   1.429  1.7577 -0.4976  1.0873
 8656TIP3   OH250162   2.198   2.664   1.708 -0.1820  0.1583 -0.3115
 8656TIP3    H150163   2.111   2.658   1.747 -0.0982  0.1295 -0.1278
 8656TIP3    H250164   2.256   2.684   1.782  0.3350 -2.2185  0.0072
 8657TIP3   OH250165   0.156   4.800   0.915 -0.6881 -0.5273 -0.1867
 8657TIP3    H150166   0.067   4.806   0.878 -0.5884  2.2406 -0.1896
 8657TIP3    H250167   0.143   4.802   1.010 -0.6478  2.1970 -0.1566
 8658TIP3   OH250168   2.259   7.358   2.642 -0.0362  0.0681 -0.6629
 8658TIP3    H150169   2.180   7.308   2.626 -0.7270  1.1109 -0.6245
 8658TIP3    H250170   2.228   7.440   2.681  1.1260  0.1157  0.2272
 8659TIP3   OH250171   7.290   0.021   2.235 -0.2524 -0.6658  0.8082
 8659TIP3    H150172   7.281   0.115   2.252 -0.1259 -0.7167  1.1639
 8659TIP3    H250173   7.383   0.008   2.222 -0.3663 -0.5951 -0.1493
 8660TIP3   OH250174   3.667   7.547   0.493 -0.3350 -0.0305 -0.2739
 8660TIP3    H150175   3.684   7.602   0.417  1.7417 -0.0636  0.1119
 8660TIP3    H250176   3.722   7.469   0.479 -1.0788 -0.7231  0.5316
 8661TIP3   OH250177   6.230   1.038   2.253  0.2815  0.0800 -0.2168
 8661TIP3    H150178   6.137   1.049   2.237  0.3641  1.3304  0.1128
 8661TIP3    H250179   6.269   1.036   2.166  0.1936  1.9836 -0.3369
 8662TIP3   OH250180   6.857   3.382   2.245  0.5596 -0.4187 -0.2700
 8662TIP3    H150181   6.892   3.397   2.157 -1.3031 -1.2745 -1.2229
 8662TIP3    H250182   6.792   3.450   2.258 -0.2364 -1.1760 -0.1814
 8663TIP3   OH250183   4.695   0.981   1.899 -0.4934 -0.1990 -0.0034
 8663TIP3    H150184   4.668   0.930   1.823 -1.2576 -1.5957  1.1584
 8663TIP3    H250185   4.782   0.946   1.922 -0.9554 -0.9185  0.7060
 8664TIP3   OH250186   2.910   7.031   2.688 -0.0813 -0.2089  0.6807
 8664TIP3    H150187   3.000   7.058   2.706 -0.3475  1.6848 -0.5384
 8664TIP3    H250188   2.881   6.989   2.769  0.2926  3.5493  2.9856
 8665TIP3   OH250189   0.959   0.673   2.671 -0.4152  0.0927 -0.1593
 8665TIP3    H150190   1.032   0.616   2.695 -0.0590  0.6302  0.0475
 8665TIP3    H250191   0.886   0.643   2.725 -0.2310 -0.1757 -0.0598
 8666TIP3   OH250192   5.191   7.492   1.343 -0.2389 -1.1305 -0.1168
 8666TIP3    H150193   5.196   7.585   1.368  0.8544 -1.1459 -0.2225
 8666TIP3    H250194   5.214   7.445   1.423  1.1631 -1.2372 -0.5539
 8667TIP3   OH250195   2.122   5.228   1.917 -0.2987  0.5673  0.0591
 8667TIP3    H150196   2.045   5.204   1.866 -1.2226  1.8192  0.7865
 8667TIP3    H250197   2.190   5.246   1.852  0.1356 -2.7439 -0.5444
 8668TIP3   OH250198   4.388   2.016   2.797 -0.4331 -0.3056  0.1303
 8668TIP3    H150199   4.455   2.017   2.728 -1.4396  0.3138 -0.8771
 8668TIP3    H250200   4.343   1.933   2.785 -0.9250  0.0131 -0.2995
 8669TIP3   OH250201   1.175   6.703   2.071  0.6597  0.1315  0.8890
 8669TIP3    H150202   1.224   6.718   1.991 -1.6322  1.0823 -0.4304
 8669TIP3    H250203   1.220   6.630   2.114  0.8307 -1.7383 -2.2256
 8670TIP3   OH250204   5.537   3.709   1.913  0.0828 -0.4778 -0.3673
 8670TIP3    H150205   5.560   3.724   2.005  0.6390 -0.7001 -0.4661
 8670TIP3    H250206   5.443   3.721   1.910  0.1736  0.4878  0.0498
 8671TIP3   OH250207   2.358   4.634   0.440  0.3043 -0.1647  0.0701
 8671TIP3    H150208   2.438   4.681   0.465  0.0728  0.2492  0.0366
 8671TIP3    H250209   2.294   4.703   0.423  0.0968 -0.4801 -0.4466
 8672TIP3   OH250210   2.163   1.873   0.971 -0.1921  0.3512  0.7376
 8672TIP3    H150211   2.106   1.796   0.966  2.2911 -1.5157 -0.6074
 8672TIP3    H250212   2.224   1.854   1.043  0.0001  1.4365  0.8851
 8673TIP3   OH250213   7.045   0.120   1.945 -0.0073  0.3988 -0.0314
 8673TIP3    H150214   7.095   0.043   1.917 -0.0141  0.3748  0.0218
 8673TIP3    H250215   6.965   0.119   1.892  0.5562  1.0639 -0.9347
 8674TIP3   OH250216   3.386   1.228   2.867 -0.2990  0.0707  0.2733
 8674TIP3    H150217   3.471   1.270   2.880 -0.8504  1.2897  0.0743
 8674TIP3    H250218   3.325   1.301   2.853 -1.2292 -0.8255 -0.4552
 8675TIP3   OH250219   4.422   1.131   2.233 -0.2594 -0.2212 -0.2538
 8675TIP3    H150220   4.465   1.182   2.301 -1.3668 -1.4325  1.4286
 8675TIP3    H250221   4.429   1.040   2.263  0.5434 -0.9956 -2.5282
 8676TIP3   OH250222   3.530   7.372   2.576  0.1470  0.3262  0.4404
 8676TIP3    H150223   3.593   7.430   2.619  1.6349 -1.6344  1.0475
 8676TIP3    H250224   3.582   7.300   2.542 -1.7412 -1.4298  1.0116
 8677TIP3   OH250225   1.518   5.716   1.486  0.0842 -0.3917 -0.2499
 8677TIP3    H150226   1.588   5.774   1.516  0.1895 -1.4460  1.7031
 8677TIP3    H250227   1.481   5.679   1.567 -1.0799 -1.7536 -1.3507
 8678TIP3   OH250228   7.408   0.667   3.098  0.3791  0.8747  0.2326
 8678TIP3    H150229   7.337   0.604   3.102 -0.3645  1.5755 -1.2540
 8678TIP3    H250230   7.411   0.695   3.007  1.6837  1.8543  0.5436
 8679TIP3   OH250231   5.622   5.202   1.443 -0.0131  0.8825 -0.2262
 8679TIP3    H150232   5.535   5.232   1.416 -0.0967  2.5307  1.6609
 8679TIP3    H250233   5.680   5.229   1.372 -1.0046 -0.4400 -1.6259
 8680TIP3   OH250234   2.128   5.555   2.301 -0.4567 -0.0621 -0.0606
 8680TIP3    H150235   2.091   5.590   2.220 -0.5798 -0.0962 -0.0191
 8680TIP3    H250236   2.182   5.482   2.273 -0.0346  0.2847 -0.1688
 8681TIP3   OH250237   3.582   6.263   1.224  0.5519 -0.9805 -0.0207
 8681TIP3    H150238   3.614   6.181   1.187  0.1326 -1.6105  0.9869
 8681TIP3    H250239   3.505   6.238   1.275  0.5602  0.0106  0.4941
 8682TIP3   OH250240   5.545   1.458   1.214  0.4644 -0.3053  0.0055
 8682TIP3    H150241   5.601   1.533   1.196  1.1734 -0.4900  1.2968
 8682TIP3    H250242   5.569   1.394   1.146  0.9946  0.0554 -0.1561
 8683TIP3   OH250243   2.398   2.186   2.678  0.0841 -0.0780  0.0086
 8683TIP3    H150244   2.430   2.105   2.637 -2.2418 -0.7112 -0.6765
 8683TIP3    H250245   2.449   2.193   2.759  0.0262 -2.5308  0.3360
 8684TIP3   OH250246   6.228   1.149   2.660 -0.5289  0.2307  0.2015
 8684TIP3    H150247   6.227   1.128   2.754  1.4663  0.5126  0.3191
 8684TIP3    H250248   6.280   1.079   2.620 -1.0257  0.3340 -0.6437
 8685TIP3   OH250249   1.046   6.093   2.341  0.0688  0.4809 -0.2821
 8685TIP3    H150250   0.960   6.091   2.382  0.5285 -1.5692  0.7105
 8685TIP3    H250251   1.077   6.183   2.355 -0.9975  0.6423  1.2996
 8686TIP3   OH250252   2.078   3.017   3.645  0.3897  0.4749  0.0302
 8686TIP3    H150253   2.166   3.011   3.607  0.2499 -2.1925 -0.0607
 8686TIP3    H250254   2.020   2.981   3.578 -0.5329  0.4403  0.8274
 8687TIP3   OH250255   3.611   3.513   0.592  0.3425 -0.4807  0.0637
 8687TIP3    H150256   3.526   3.486   0.555  0.4478  0.7692 -1.1613
 8687TIP3    H250257   3.675   3.466   0.539  0.6151  3.1752 -3.3149
 8688TIP3   OH250258   7.366   0.697   2.576 -0.2857  0.2708  0.0866
 8688TIP3    H150259   7.407   0.761   2.518  1.6252  0.1181  1.1531
 8688TIP3    H250260   7.359   0.742   2.660 -0.6196 -0.3324  0.3891
 8689TIP3   OH250261   4.033   6.578   0.618 -0.2353  0.0921  0.3470
 8689TIP3    H150262   4.094   6.574   0.692  1.6042 -2.1181 -1.1437
 8689TIP3    H250263   4.059   6.655   0.568 -0.0693  0.3684  0.8572
 8690TIP3   OH250264   3.669   0.564   1.674 -0.3117  0.0325  0.2987
 8690TIP3    H150265   3.661   0.654   1.704 -1.7980 -0.0489  0.2240
 8690TIP3    H250266   3.658   0.569   1.579 -0.6412 -0.2520  0.3198
 8691TIP3   OH250267   3.049   4.957   0.558  0.3596 -0.7624 -0.3642
 8691TIP3    H150268   3.045   5.052   0.544  2.0648 -0.3639  1.3894
 8691TIP3    H250269   3.143   4.938   0.567  0.0150 -2.5335 -0.1100
 8692TIP3   OH250270   1.679   1.489   3.323  0.2006 -0.0590 -0.5449
 8692TIP3    H150271   1.769   1.495   3.356  0.2185  1.8118 -0.8158
 8692TIP3    H250272   1.687   1.443   3.239  1.0036  0.6443 -0.8696
 8693TIP3   OH250273   0.651   1.414   2.810 -0.1160 -0.4582  0.2431
 8693TIP3    H150274   0.698   1.489   2.847  0.0991 -0.5065  0.0699
 8693TIP3    H250275   0.598   1.452   2.740  0.0099 -0.4736  0.1409
 8694TIP3   OH250276   1.549   1.705   1.388 -0.4610  0.4629 -0.3801
 8694TIP3    H150277   1.613   1.685   1.457 -1.4581 -0.6542  0.2683
 8694TIP3    H250278   1.599   1.753   1.322  0.8550  0.3278  0.4746
 8695TIP3   OH250279   3.034   6.744   2.945 -0.0178  0.1605 -0.1237
 8695TIP3    H150280   2.977   6.816   2.917  1.6411  1.5251 -0.2422
 8695TIP3    H250281   2.989   6.703   3.018 -1.2824  0.9630 -0.4285
 8696TIP3   OH250282   4.223   2.423   1.983 -0.1839 -0.3646 -0.2501
 8696TIP3    H150283   4.185   2.348   2.029 -0.4356 -0.2129 -0.2071
 8696TIP3    H250284   4.147   2.467   1.944  0.1678 -1.4302 -2.2360
 8697TIP3   OH250285   4.057   7.310   2.149 -0.1111  0.0793  0.3636
 8697TIP3    H150286   4.077   7.398   2.117 -2.2586  1.1488  1.6956
 8697TIP3    H250287   4.130   7.288   2.207  0.3516  1.0747  0.1720
 8698TIP3   OH250288   4.792   6.600   2.114  0.0213  0.2555  0.1690
 8698TIP3    H150289   4.757   6.538   2.050  1.0204  0.3870 -0.5274
 8698TIP3    H250290   4.720   6.659   2.133 -0.9084 -1.0128  0.7237
 8699TIP3   OH250291   0.044   1.826   1.505  0.6015 -0.2061  0.0209
 8699TIP3    H150292   0.106   1.755   1.525  0.2829 -0.4242  0.2424
 8699TIP3    H250293  -0.016   1.788   1.441 -0.2827 -0.5227  1.0193
 8700TIP3   OH250294   7.055   6.783   1.351 -0.8519 -0.0593 -0.3971
 8700TIP3    H150295   7.139   6.827   1.357 -0.2701 -0.9581 -1.5730
 8700TIP3    H250296   6.994   6.839   1.400 -0.1908  2.1114 -1.9675
 8701TIP3   OH250297   5.080   4.247   0.401  0.4551  0.8458 -0.0557
 8701TIP3    H150298   5.053   4.165   0.442 -0.3697  0.6448 -0.9548
 8701TIP3    H250299   5.041   4.244   0.314  0.2644  2.2710 -0.0446
 8702TIP3   OH250300   5.579   6.259   0.576 -0.1765 -0.1491 -0.2296
 8702TIP3    H150301   5.619   6.172   0.568  0.4203  0.2228 -1.4082
 8702TIP3    H250302   5.487   6.241   0.596  0.2971 -1.0300  1.3395
 8703TIP3   OH250303   7.561   3.626   1.608  0.3987  0.4298 -0.1996
 8703TIP3    H150304   7.575   3.715   1.575  0.1442  0.9496  1.0441
 8703TIP3    H250305   7.572   3.634   1.702  0.9192 -0.9839 -0.1316
 8704TIP3   OH250306   3.204   3.789   1.710 -0.5211 -0.0878 -0.4810
 8704TIP3    H150307   3.248   3.826   1.634 -1.3272  0.2639 -0.7866
 8704TIP3    H250308   3.251   3.827   1.785 -1.0665  1.2499 -0.7916
 8705TIP3   OH250309   3.972   0.419   0.673 -0.4690 -0.4418 -0.5482
 8705TIP3    H150310   3.999   0.508   0.647  0.6007 -0.8771 -0.9700
 8705TIP3    H250311   3.884   0.411   0.637 -0.6621  0.5238 -0.3353
 8706TIP3   OH250312   3.835   5.663   0.819  0.2576 -0.4696 -0.7144
 8706TIP3    H150313   3.914   5.612   0.799 -0.8889 -1.7177 -2.3770
 8706TIP3    H250314   3.780   5.603   0.868 -0.2441 -0.1000 -0.8206
 8707TIP3   OH250315   0.191   2.223   1.867 -0.1874 -0.1916  0.2971
 8707TIP3    H150316   0.123   2.257   1.808 -0.4495  1.0436  1.2627
 8707TIP3    H250317   0.180   2.128   1.864 -0.3436 -0.1604 -1.4362
 8708TIP3   OH250318   0.192   4.108   2.172  0.4357  0.4290 -0.1737
 8708TIP3    H150319   0.205   4.190   2.219  1.4646 -0.1349  0.5637
 8708TIP3    H250320   0.148   4.134   2.091 -1.8733  1.3709  1.2575
 8709TIP3   OH250321   4.499   4.015   2.116 -0.0718  0.3374  0.3057
 8709TIP3    H150322   4.540   4.086   2.067  3.0033 -1.2974  0.3055
 8709TIP3    H250323   4.481   3.947   2.051 -2.3319  0.7222  0.4295
 8710TIP3   OH250324   6.291   7.177   1.398 -0.1170 -0.2616 -0.4201
 8710TIP3    H150325   6.216   7.236   1.406  0.0446 -0.0127 -0.7340
 8710TIP3    H250326   6.367   7.234   1.399  0.0776 -0.5191 -0.0589
 8711TIP3   OH250327   2.076   0.719   2.278  0.6170 -0.4607 -0.0134
 8711TIP3    H150328   2.045   0.713   2.188 -0.4047 -0.6837  0.3351
 8711TIP3    H250329   2.154   0.773   2.273  1.4110 -1.6590 -1.2325
 8712TIP3   OH250330   0.929   5.259   1.801  0.0432  0.1761  0.0683
 8712TIP3    H150331   0.997   5.254   1.867  1.5525  1.8366 -1.2626
 8712TIP3    H250332   0.861   5.314   1.840  0.3751  0.1600  0.6708
 8713TIP3   OH250333   7.229   6.113   1.916 -0.2063  0.6105 -0.2886
 8713TIP3    H150334   7.135   6.101   1.933 -0.2873  3.0874  1.7091
 8713TIP3    H250335   7.233   6.189   1.858  0.5803 -0.3382 -1.5285
 8714TIP3   OH250336   5.486   0.699   2.651 -0.8637  0.2284 -0.6605
 8714TIP3    H150337   5.468   0.788   2.683 -1.8722 -0.0584 -0.3887
 8714TIP3    H250338   5.425   0.643   2.700  0.2578 -0.7227 -0.2914
 8715TIP3   OH250339   0.572   3.297   1.213 -0.1994 -0.4603  0.2807
 8715TIP3    H150340   0.516   3.357   1.262 -1.6695 -0.3585 -1.4205
 8715TIP3    H250341   0.586   3.223   1.272 -0.1794  0.5518  1.5916
 8716TIP3   OH250342   7.163   6.672   3.066  0.3098  0.1992 -0.2286
 8716TIP3    H150343   7.138   6.762   3.086  2.0717  1.1954 -2.1014
 8716TIP3    H250344   7.258   6.670   3.075  0.3024 -1.4968 -0.1581
 8717TIP3   OH250345   1.003   1.816   1.587  0.5261 -0.2477 -0.0910
 8717TIP3    H150346   1.014   1.818   1.492 -0.6658 -1.4329 -0.2818
 8717TIP3    H250347   1.036   1.901   1.617  1.5742 -0.1319 -1.4767
 8718TIP3   OH250348   1.618   3.762   2.071 -0.4477  0.3725  0.3403
 8718TIP3    H150349   1.559   3.837   2.074 -1.4255 -0.2936 -1.0459
 8718TIP3    H250350   1.591   3.713   1.993  0.0833 -1.4809  1.2530
 8719TIP3   OH250351   1.853   3.273   0.720 -0.2826  0.0734  0.3419
 8719TIP3    H150352   1.892   3.273   0.807  0.6272  0.9352 -0.0581
 8719TIP3    H250353   1.897   3.202   0.674  0.7202  0.9386 -0.0561
 8720TIP3   OH250354   6.076   1.252   1.738  0.1801 -0.0035 -0.0719
 8720TIP3    H150355   6.028   1.279   1.816  2.1458 -1.1307  1.6283
 8720TIP3    H250356   6.008   1.226   1.676 -1.4990  2.3592  0.6486
 8721TIP3   OH250357   1.340   2.804   2.292 -0.0453  0.1006  0.0158
 8721TIP3    H150358   1.344   2.713   2.319 -3.5202 -0.8603 -2.0703
 8721TIP3    H250359   1.394   2.851   2.356  0.3148 -3.1379  2.3009
 8722TIP3   OH250360   7.168   4.865   2.218 -0.1851  0.1959  0.7754
 8722TIP3    H150361   7.095   4.818   2.258 -0.6990 -1.1973 -1.6040
 8722TIP3    H250362   7.223   4.797   2.180 -0.2371  1.3812 -1.6268
 8723TIP3   OH250363   2.688   1.363   2.079  0.2845  0.4673  0.2082
 8723TIP3    H150364   2.619   1.409   2.030 -1.5076 -0.4991  1.6962
 8723TIP3    H250365   2.687   1.274   2.043 -1.4090 -0.3997  2.2404
 8724TIP3   OH250366   3.570   0.391   1.003 -0.0567  0.3928  0.1394
 8724TIP3    H150367   3.565   0.327   1.073  0.9088  1.3893  1.1684
 8724TIP3    H250368   3.651   0.370   0.957 -0.8494 -0.4566 -0.9051
 8725TIP3   OH250369   7.541   0.039   1.239  0.0740 -0.0914  0.0106
 8725TIP3    H150370   7.464   0.066   1.289 -0.1240 -2.0425  0.8337
 8725TIP3    H250371   7.559  -0.050   1.267  1.7366 -0.2351 -1.2932
 8726TIP3   OH250372   4.974   4.997   2.850  0.3804  0.4207  0.0397
 8726TIP3    H150373   4.907   5.066   2.846 -0.2005 -0.0118  1.5111
 8726TIP3    H250374   4.928   4.921   2.885  1.3662 -0.2654 -0.1063
 8727TIP3   OH250375   4.869   2.878   3.476  0.9346  0.2315  0.5794
 8727TIP3    H150376   4.877   2.945   3.408  1.0825  0.2530  0.6189
 8727TIP3    H250377   4.959   2.856   3.499  0.9767 -1.7768 -1.1842
 8728TIP3   OH250378   1.071   3.201   1.139  0.0063 -0.2242 -0.1148
 8728TIP3    H150379   1.154   3.250   1.142 -0.4672  0.5746  0.5578
 8728TIP3    H250380   1.006   3.267   1.113 -0.6809 -0.4324  1.0171
 8729TIP3   OH250381   6.677   3.197   1.087 -0.3547  0.6168  0.2467
 8729TIP3    H150382   6.647   3.280   1.123  0.0362  0.5357  0.7661
 8729TIP3    H250383   6.596   3.149   1.066 -0.6333  1.8500 -1.8232
 8730TIP3   OH250384   1.253   6.037   2.945 -0.1287  0.6471 -0.1678
 8730TIP3    H150385   1.201   5.989   3.010 -0.3931  0.4442 -0.5284
 8730TIP3    H250386   1.343   6.007   2.959 -0.3185 -0.1317 -0.5393
 8731TIP3   OH250387   2.743   4.672   1.726  0.4534 -0.4481 -0.1194
 8731TIP3    H150388   2.648   4.662   1.729  0.6788 -3.0299  1.0124
 8731TIP3    H250389   2.759   4.728   1.650 -2.0449  2.2270  1.1378
 8732TIP3   OH250390   1.328   4.236   2.181  0.2398 -0.1558  0.0018
 8732TIP3    H150391   1.245   4.256   2.224  0.5453  0.2921  0.3968
 8732TIP3    H250392   1.395   4.256   2.247  0.7503  0.9426 -0.8030
 8733TIP3   OH250393   3.933   0.961   1.069  0.0631 -0.2809 -0.5917
 8733TIP3    H150394   3.998   0.989   1.006 -0.0024  1.2519 -0.0236
 8733TIP3    H250395   3.854   0.944   1.017  0.5746 -1.0137 -1.1392
 8734TIP3   OH250396   0.833   3.325   1.916  1.1740 -0.7283  0.4040
 8734TIP3    H150397   0.866   3.337   1.827 -0.6366  0.5107 -0.1567
 8734TIP3    H250398   0.905   3.283   1.963  3.4591  1.6612 -0.7309
 8735TIP3   OH250399   3.771   6.533   2.831 -0.5595 -0.0220  0.2544
 8735TIP3    H150400   3.816   6.463   2.878  1.3368  0.4685 -0.7085
 8735TIP3    H250401   3.767   6.606   2.892 -0.7340 -0.3117  0.5907
 8736TIP3   OH250402   0.253   2.977   2.219  0.6240 -0.0592  0.3197
 8736TIP3    H150403   0.274   3.011   2.306 -0.6557 -0.7381  0.9251
 8736TIP3    H250404   0.243   3.056   2.165  1.1867  0.3797  0.8366
 8737TIP3   OH250405   5.192   0.113   0.622  0.3915  0.1505 -0.6122
 8737TIP3    H150406   5.156   0.025   0.628  0.3170  0.1717 -0.7238
 8737TIP3    H250407   5.156   0.159   0.698  3.2365 -0.8704  1.4922
 8738TIP3   OH250408   0.141   7.077   1.700 -0.4638 -0.3006  0.3246
 8738TIP3    H150409   0.072   7.118   1.753  0.4760  0.4739  0.9920
 8738TIP3    H250410   0.175   7.007   1.756 -1.4015 -1.4004 -0.4278
 8739TIP3   OH250411   4.294   0.699   0.877 -0.1541  0.1265  0.1718
 8739TIP3    H150412   4.305   0.788   0.845  0.8168  0.1363  0.4941
 8739TIP3    H250413   4.239   0.708   0.955  1.7436  0.7628  1.5303
 8740TIP3   OH250414   5.301   3.896   2.082 -0.0705 -0.4977  0.0067
 8740TIP3    H150415   5.259   3.979   2.106 -0.3600 -0.4205 -0.7231
 8740TIP3    H250416   5.254   3.830   2.134 -0.1911 -0.2611  0.2025
 8741TIP3   OH250417   7.195   3.058   2.933  0.1448 -0.4441  0.3192
 8741TIP3    H150418   7.259   3.023   2.870  0.2075  0.5353 -0.1686
 8741TIP3    H250419   7.235   3.041   3.019  1.5348  1.0155 -0.0006
 8742TIP3   OH250420   1.159   4.756   2.132 -0.2276 -0.1326 -0.3961
 8742TIP3    H150421   1.195   4.783   2.217 -0.5387 -1.5529  0.2127
 8742TIP3    H250422   1.091   4.821   2.113  0.9019  1.1194 -0.3405
 8743TIP3   OH250423   4.924   1.543   1.488  0.2943  0.3468 -0.5313
 8743TIP3    H150424   4.921   1.457   1.447  2.4109 -0.3883  0.6680
 8743TIP3    H250425   4.872   1.533   1.568 -1.2648  0.8708 -1.4413
 8744TIP3   OH250426   7.215   3.126   0.511 -0.1987 -0.2736 -0.1338
 8744TIP3    H150427   7.231   3.050   0.454 -1.3821  2.0754 -3.9389
 8744TIP3    H250428   7.126   3.113   0.544 -0.6125 -0.3105 -1.2256
 8745TIP3   OH250429   1.442   6.119   2.464 -0.3731  0.2767  0.5123
 8745TIP3    H150430   1.411   6.029   2.465  0.8191 -0.2112  3.3673
 8745TIP3    H250431   1.370   6.169   2.503 -0.5571  0.3507  0.0728
 8746TIP3   OH250432   7.501   2.251   2.802  0.3703  0.0508 -0.5222
 8746TIP3    H150433   7.532   2.342   2.798  2.6051 -0.6506 -0.4758
 8746TIP3    H250434   7.522   2.215   2.716 -2.2962  0.0411 -1.2565
 8747TIP3   OH250435   5.051   7.302   0.903  0.8585 -0.0629 -0.3652
 8747TIP3    H150436   4.972   7.274   0.857  1.3003 -3.2947  0.6501
 8747TIP3    H250437   5.099   7.353   0.837 -1.1131  0.2975 -1.6209
 8748TIP3   OH250438   5.810   3.344   1.842  0.9798  0.1106 -0.6840
 8748TIP3    H150439   5.886   3.377   1.890  0.7676 -0.0975 -0.2015
 8748TIP3    H250440   5.759   3.296   1.907  0.5100  0.1204 -1.0372
 8749TIP3   OH250441   4.340   2.391   2.296  0.2355 -0.0406 -0.2938
 8749TIP3    H150442   4.269   2.366   2.355  0.5866  0.0945  0.1963
 8749TIP3    H250443   4.343   2.321   2.231 -2.3144  1.3905 -2.1465
 8750TIP3   OH250444   2.416   1.570   2.715 -0.2489  0.9452 -0.3470
 8750TIP3    H150445   2.371   1.544   2.795  0.8452  0.3684  0.1086
 8750TIP3    H250446   2.400   1.498   2.654  0.3214  0.5721 -0.0687
 8751TIP3   OH250447   0.709   0.835   1.461  0.0290 -0.2058  0.4165
 8751TIP3    H150448   0.780   0.851   1.399 -0.9508 -2.6698 -1.5457
 8751TIP3    H250449   0.635   0.885   1.425 -0.0251 -0.0546  0.7398
 8752TIP3   OH250450   5.717   1.633   0.768 -0.2228  0.6731 -0.0410
 8752TIP3    H150451   5.756   1.720   0.758 -3.2610  2.2232  0.2714
 8752TIP3    H250452   5.635   1.639   0.719 -2.2640 -0.7393  2.9127
 8753TIP3   OH250453   5.271   5.678   3.078 -0.2214  0.1369  0.0497
 8753TIP3    H150454   5.241   5.762   3.113 -2.1015  0.3932 -1.9789
 8753TIP3    H250455   5.366   5.678   3.093 -0.2578  2.3505  0.6026
 8754TIP3   OH250456   3.454   7.504   3.021  0.3166 -0.1153 -0.2911
 8754TIP3    H150457   3.432   7.579   2.966  0.2791  1.1528  1.4043
 8754TIP3    H250458   3.369   7.469   3.047  0.3333 -0.8170 -1.1215
 8755TIP3   OH250459   0.909   3.185   2.926 -0.2493  0.3473  0.3917
 8755TIP3    H150460   0.826   3.179   2.879 -0.0854  1.1290 -0.0141
 8755TIP3    H250461   0.886   3.170   3.018 -1.0500  1.8018  0.4566
 8756TIP3   OH250462   7.141   1.383   2.708  0.4689  0.1018 -0.2086
 8756TIP3    H150463   7.138   1.287   2.701  1.4281  0.0201  0.2708
 8756TIP3    H250464   7.174   1.399   2.796 -1.6946  0.9307  0.4995
 8757TIP3   OH250465   3.289   1.921   2.357 -0.0304  0.0316 -0.2569
 8757TIP3    H150466   3.213   1.898   2.303  0.7605 -0.6590 -1.1063
 8757TIP3    H250467   3.357   1.860   2.330  0.4095 -0.3375  1.5290
 8758TIP3   OH250468   2.222   1.221   2.842  0.1355 -0.4321  0.6429
 8758TIP3    H150469   2.266   1.188   2.764 -0.3974  1.1798 -0.3767
 8758TIP3    H250470   2.186   1.143   2.884  0.4386 -1.3341 -0.7112
 8759TIP3   OH250471   2.250   2.475   2.913  0.1296 -0.6622  0.2827
 8759TIP3    H150472   2.170   2.450   2.959 -0.7570 -0.9647 -1.3592
 8759TIP3    H250473   2.315   2.489   2.983 -0.8369 -2.1960  1.5413
 8760TIP3   OH250474   1.004   3.907   3.077  0.0546  0.0291  0.3054
 8760TIP3    H150475   0.928   3.860   3.042 -0.2599  0.8557 -0.1415
 8760TIP3    H250476   1.071   3.896   3.009  0.3646 -0.7436  0.7226
 8761TIP3   OH250477   3.661   6.057   1.082  0.3150  0.5931 -0.0481
 8761TIP3    H150478   3.671   6.104   0.999  1.9981 -0.3695 -0.4448
 8761TIP3    H250479   3.614   5.976   1.058  1.5433 -0.0824 -0.2539
 8762TIP3   OH250480   6.965   4.308   1.328 -0.0780 -0.0139 -0.3942
 8762TIP3    H150481   6.919   4.318   1.411  0.6213  2.8847 -0.2509
 8762TIP3    H250482   7.035   4.246   1.347 -0.5930 -0.2395  0.8765
 8763TIP3   OH250483   7.084   5.287   1.626 -0.2515  0.5525 -0.1002
 8763TIP3    H150484   7.085   5.349   1.699 -0.7549  1.0740 -0.5202
 8763TIP3    H250485   7.017   5.223   1.650  0.9395 -0.4012  0.7784
 8764TIP3   OH250486   1.862   2.263   8.061 -0.0336  0.0132 -0.8853
 8764TIP3    H150487   1.880   2.349   8.097 -0.5417  0.2830 -1.2571
 8764TIP3    H250488   1.766   2.256   8.063  0.0360 -0.9162  0.0111
 8765TIP3   OH250489   0.061   5.122   2.386 -0.0546  0.1173 -0.0455
 8765TIP3    H150490   0.040   5.133   2.479  0.7457  0.3281  0.1257
 8765TIP3    H250491   0.111   5.041   2.383 -1.4668 -0.7575 -0.5445
 8766TIP3   OH250492   0.145   3.970   0.909  0.3215 -0.0678  0.2688
 8766TIP3    H150493   0.241   3.980   0.905  0.2942 -0.0005 -0.3920
 8766TIP3    H250494   0.131   3.876   0.900  0.2422  0.1210 -2.1538
 8767TIP3   OH250495   1.894   1.918   1.485 -0.4171 -0.2308  0.0940
 8767TIP3    H150496   1.956   1.989   1.471 -1.3938  0.7268  0.4925
 8767TIP3    H250497   1.861   1.897   1.398  1.3648 -1.6212 -0.2926
 8768TIP3   OH250498   1.535   1.725   1.751  0.1267 -0.8854  0.3121
 8768TIP3    H150499   1.451   1.759   1.719  1.4469  0.2646 -2.2487
 8768TIP3    H250500   1.513   1.640   1.789 -2.2472 -0.4276  0.1291
 8769TIP3   OH250501   2.444   7.214   0.730  0.0179  0.1923 -0.0055
 8769TIP3    H150502   2.386   7.139   0.721 -0.3708  0.2749  1.5964
 8769TIP3    H250503   2.394   7.287   0.694 -0.3782  0.0407  0.2394
 8770TIP3   OH250504   4.730   3.242   1.313 -0.1764  0.3552 -0.0622
 8770TIP3    H150505   4.776   3.159   1.303 -0.9565 -0.1203  0.1539
 8770TIP3    H250506   4.776   3.303   1.254  0.0327 -0.3890 -0.6830
 8771TIP3   OH250507   2.772   0.501   2.250 -0.0098 -0.2572  0.0297
 8771TIP3    H150508   2.721   0.420   2.252  0.0127 -0.3292 -1.3326
 8771TIP3    H250509   2.825   0.494   2.170  2.4407 -0.3639  1.5356
 8772TIP3   OH250510   5.049   3.208   1.390  0.3854  0.0277 -0.4156
 8772TIP3    H150511   5.068   3.252   1.473 -0.4097  1.9330 -1.1777
 8772TIP3    H250512   5.130   3.214   1.340  0.2750  0.6761 -0.5222
 8773TIP3   OH250513   7.423   1.818   1.677  0.3877 -0.1654  0.0287
 8773TIP3    H150514   7.390   1.741   1.723 -1.8663  2.0912  2.5932
 8773TIP3    H250515   7.508   1.836   1.717  1.0568 -1.3823 -0.7807
 8774TIP3   OH250516   3.848   1.885   1.239 -0.0851  0.1248  0.0152
 8774TIP3    H150517   3.931   1.837   1.233 -0.6108 -0.7724 -0.2811
 8774TIP3    H250518   3.845   1.915   1.329 -0.3399 -1.5435  0.6004
 8775TIP3   OH250519   0.727   2.247   1.997 -0.3653 -0.1280  0.0578
 8775TIP3    H150520   0.813   2.242   1.957 -0.5535  0.8322 -0.5080
 8775TIP3    H250521   0.721   2.169   2.053  0.4768 -0.7052 -0.6405
 8776TIP3   OH250522   1.079   5.985   8.479 -0.3601 -0.2930 -0.3927
 8776TIP3    H150523   1.129   5.917   8.525  1.1310  1.2571  0.4046
 8776TIP3    H250524   1.144   6.027   8.422 -0.8258  1.5196  0.3570
 8777TIP3   OH250525   1.039   0.015   2.622 -0.2675  0.3354  0.8782
 8777TIP3    H150526   1.112   0.077   2.625  0.1667 -0.1924  3.2440
 8777TIP3    H250527   0.986   0.036   2.699 -1.5599 -0.5453  0.2713
 8778TIP3   OH250528   0.639   1.936   3.684 -0.6444 -0.1622 -0.5582
 8778TIP3    H150529   0.723   1.975   3.660 -0.3266 -0.2746  0.3584
 8778TIP3    H250530   0.582   1.957   3.610 -0.3305  1.5448 -0.3752
 8779TIP3   OH250531   4.057   7.569   2.341 -0.1666  0.2912  0.3750
 8779TIP3    H150532   4.013   7.654   2.338 -0.5026  0.1860  1.8370
 8779TIP3    H250533   4.037   7.534   2.427  1.5617 -0.4285  0.5293
 8780TIP3   OH250534   0.768   7.461   3.156  0.1126 -0.4487 -0.2713
 8780TIP3    H150535   0.803   7.549   3.148  0.7108 -0.6610 -0.0544
 8780TIP3    H250536   0.818   7.421   3.227 -1.5398 -0.2959  1.0308
 8781TIP3   OH250537   5.647   0.301   2.023 -0.5111  0.3012 -0.2430
 8781TIP3    H150538   5.651   0.208   2.004 -0.1908  0.0377  1.0194
 8781TIP3    H250539   5.559   0.315   2.059  0.0156  0.1291  1.1876
 8782TIP3   OH250540   7.283   0.817   1.277  0.0320 -0.7573  0.6136
 8782TIP3    H150541   7.278   0.853   1.188  0.8273 -0.2895  0.7479
 8782TIP3    H250542   7.369   0.776   1.282  0.8371  0.9552  1.7818
 8783TIP3   OH250543   1.632   7.378   1.425 -0.3834  0.4615  0.0655
 8783TIP3    H150544   1.542   7.398   1.451 -0.7307 -1.7778  0.7032
 8783TIP3    H250545   1.669   7.329   1.498  0.3377 -1.3149 -1.4094
 8784TIP3   OH250546   2.982   0.745   1.865  0.5793  0.1980  0.2371
 8784TIP3    H150547   2.939   0.811   1.811 -0.1611 -1.0681 -0.7848
 8784TIP3    H250548   3.021   0.684   1.803 -0.2458 -1.2788  1.1054
 8785TIP3   OH250549   5.807   6.754   2.644  0.1705  0.1034  0.4265
 8785TIP3    H150550   5.828   6.678   2.589 -1.1994  0.1523 -0.1993
 8785TIP3    H250551   5.838   6.729   2.731 -0.3113 -1.2189  0.2553
 8786TIP3   OH250552   3.816   1.315   0.840 -0.4631  0.0344 -0.5060
 8786TIP3    H150553   3.743   1.342   0.896  0.4823  1.2237  0.1961
 8786TIP3    H250554   3.842   1.396   0.795  0.4586 -0.3509 -0.6825
 8787TIP3   OH250555   1.582   1.668   0.967 -0.2958 -0.0697  0.3065
 8787TIP3    H150556   1.643   1.626   1.029  0.9822  0.5984 -0.4706
 8787TIP3    H250557   1.496   1.633   0.992  0.5139 -1.8975  0.7335
 8788TIP3   OH250558   5.134   0.001   1.710 -0.0455  0.8134  0.3766
 8788TIP3    H150559   5.045   0.017   1.741 -0.9600  1.3016 -2.1863
 8788TIP3    H250560   5.145  -0.094   1.713 -1.4428  0.5641 -1.0717
 8789TIP3   OH250561   6.059   5.507   1.224  0.0050 -0.1474  0.4691
 8789TIP3    H150562   6.048   5.460   1.142  0.7975  1.0676 -0.3717
 8789TIP3    H250563   6.147   5.545   1.218 -0.1265  0.3825  1.6558
 8790TIP3   OH250564   2.545   4.686   2.463 -0.1296 -0.4117 -0.2641
 8790TIP3    H150565   2.536   4.781   2.463 -0.9386 -0.4785  0.1434
 8790TIP3    H250566   2.470   4.655   2.513  1.2772 -1.1748  1.4581
 8791TIP3   OH250567   6.818   5.726   1.757  0.2529 -0.6179 -0.1614
 8791TIP3    H150568   6.804   5.736   1.663  0.6254 -1.5251 -0.3271
 8791TIP3    H250569   6.913   5.735   1.769  0.1873 -0.3076  0.1580
 8792TIP3   OH250570   1.608   0.041   0.773  0.1851 -0.1033  0.0688
 8792TIP3    H150571   1.677   0.080   0.826 -0.4352  1.8698 -0.4903
 8792TIP3    H250572   1.645  -0.042   0.741  1.6517  0.1292  1.1157
 8793TIP3   OH250573   7.150   6.608   1.566  0.0066 -0.0959  0.2023
 8793TIP3    H150574   7.122   6.637   1.479  0.8774  0.0688 -0.0297
 8793TIP3    H250575   7.215   6.673   1.593 -1.2117  0.6216  1.5542
 8794TIP3   OH250576   4.944   1.259   1.464 -0.5134  0.1601  0.5271
 8794TIP3    H150577   4.877   1.226   1.404  0.0638 -1.2656  0.6343
 8794TIP3    H250578   4.942   1.198   1.538  1.1888 -0.1849  0.3376
 8795TIP3   OH250579   1.825   2.432   1.508 -0.1837  0.0195 -0.2941
 8795TIP3    H150580   1.910   2.395   1.531 -0.4408 -0.5547 -0.2754
 8795TIP3    H250581   1.829   2.522   1.540 -0.0751 -0.3954  0.8968
 8796TIP3   OH250582   4.412   6.347   2.198  0.0532 -0.1776  0.3588
 8796TIP3    H150583   4.405   6.438   2.171 -0.7077 -0.5385 -0.7614
 8796TIP3    H250584   4.418   6.298   2.115  1.3258 -1.0877  0.9449
 8797TIP3   OH250585   2.867   5.902   2.905  0.4781 -0.9558  0.9049
 8797TIP3    H150586   2.786   5.950   2.891  0.6925 -0.5825  0.9159
 8797TIP3    H250587   2.849   5.813   2.873  0.4631 -0.5438 -0.2551
 8798TIP3   OH250588   1.828   5.510   0.678 -0.6845 -0.0240  0.2914
 8798TIP3    H150589   1.844   5.426   0.721 -0.1179 -0.3916 -0.6052
 8798TIP3    H250590   1.749   5.544   0.720 -0.6408 -0.7737  0.9999
 8799TIP3   OH250591   5.140   3.816   0.630 -0.1202  1.0128 -0.3192
 8799TIP3    H150592   5.094   3.765   0.696  0.3768  0.3976 -0.4361
 8799TIP3    H250593   5.232   3.796   0.643  0.0331  1.3513 -0.8112
 8800TIP3   OH250594   6.968   6.012   1.975  0.7353  0.7146 -0.1991
 8800TIP3    H150595   6.946   5.931   2.021 -1.4333  2.0115  1.1949
 8800TIP3    H250596   6.951   5.993   1.883  3.2679 -1.3223 -0.3416
 8801TIP3   OH250597   6.854   6.184   1.443  0.3378 -0.5470  0.4194
 8801TIP3    H150598   6.779   6.124   1.440 -1.2375  1.3521 -0.9358
 8801TIP3    H250599   6.832   6.246   1.513  0.3177  0.3754 -0.3817
 8802TIP3   OH250600   1.805   3.568   1.344  0.4364  0.4038  0.1202
 8802TIP3    H150601   1.786   3.475   1.358 -1.0391  0.4673 -1.2410
 8802TIP3    H250602   1.773   3.610   1.424  1.1168 -0.2299  0.7500
 8803TIP3   OH250603   0.987   1.941   3.706  0.0756  0.1623  0.3178
 8803TIP3    H150604   0.944   2.012   3.658 -1.1796 -1.3512 -0.8642
 8803TIP3    H250605   1.071   1.929   3.660  0.8383  1.5903  1.2369
 8804TIP3   OH250606   6.078   2.842   3.159  0.0488  0.0914 -0.0366
 8804TIP3    H150607   6.167   2.864   3.133  0.2245  0.4325  0.8481
 8804TIP3    H250608   6.057   2.902   3.230  0.1249 -1.7853  1.6644
 8805TIP3   OH250609   4.522   4.242   1.353  0.3281  0.1860  0.2126
 8805TIP3    H150610   4.543   4.263   1.262  1.6769  0.0380  0.4652
 8805TIP3    H250611   4.557   4.316   1.403 -0.0705  0.0882  0.6353
 8806TIP3   OH250612   5.322   5.765   2.716 -0.1922  0.3043  0.1099
 8806TIP3    H150613   5.359   5.820   2.785 -1.1075  2.8169 -1.2544
 8806TIP3    H250614   5.394   5.750   2.656 -0.0361  0.4297  0.2630
 8807TIP3   OH250615   3.004   2.730   2.663 -0.2065  0.0524  0.6420
 8807TIP3    H150616   3.022   2.774   2.746 -0.6660 -0.8253  1.2193
 8807TIP3    H250617   2.909   2.720   2.661 -0.0871 -1.2249  0.6966
 8808TIP3   OH250618   3.825   0.148   1.173  0.2886  0.0706  0.4096
 8808TIP3    H150619   3.918   0.146   1.151 -0.4309  2.0226 -3.8830
 8808TIP3    H250620   3.784   0.088   1.111 -1.4375 -0.2263  1.7565
 8809TIP3   OH250621   4.684   4.730   1.202  0.1703 -0.2837  0.3754
 8809TIP3    H150622   4.751   4.722   1.270  0.7315 -1.1327 -0.2586
 8809TIP3    H250623   4.661   4.823   1.202  2.2467  0.2979 -0.2288
 8810TIP3   OH250624   3.224   2.297   2.405  0.4716 -0.1887  0.1717
 8810TIP3    H150625   3.171   2.239   2.461  2.3271 -1.9658  0.1792
 8810TIP3    H250626   3.159   2.348   2.357 -1.2620  1.4282  3.8311
 8811TIP3   OH250627   6.539   6.054   2.064 -0.3882 -0.5867 -0.2981
 8811TIP3    H150628   6.478   5.979   2.064 -0.8139 -0.2427 -0.7552
 8811TIP3    H250629   6.605   6.031   1.999  0.4100 -1.3001  0.7245
 8812TIP3   OH250630   1.348   5.670   1.748 -0.0676  0.0675 -0.0742
 8812TIP3    H150631   1.328   5.634   1.834  0.1340 -0.1241 -0.1066
 8812TIP3    H250632   1.397   5.750   1.766 -1.3363  0.8497  0.0185
 8813TIP3   OH250633   4.827   0.958   2.227 -0.2137  0.1513  0.0869
 8813TIP3    H150634   4.873   0.888   2.274 -0.1440  1.3850  1.9806
 8813TIP3    H250635   4.887   0.983   2.157  1.6276  1.0003  1.8512
 8814TIP3   OH250636   4.776   0.432   0.689 -0.1149  0.4942  0.0803
 8814TIP3    H150637   4.793   0.376   0.614  0.3190 -1.0481  1.2565
 8814TIP3    H250638   4.748   0.515   0.652  1.0932  0.1273 -1.7813
 8815TIP3   OH250639   5.400   4.370   0.993  0.0765  0.7449 -0.2145
 8815TIP3    H150640   5.389   4.437   1.061 -2.6293  0.5009 -0.2855
 8815TIP3    H250641   5.397   4.287   1.040  0.9577  0.6112 -0.3784
 8816TIP3   OH250642   4.005   6.868   0.820  0.4041  0.1431  0.6226
 8816TIP3    H150643   4.011   6.805   0.892  1.1139 -0.9971 -0.3933
 8816TIP3    H250644   4.095   6.900   0.809  0.5146 -0.5009 -0.4374
 8817TIP3   OH250645   4.734   5.168   0.865 -0.0872 -0.0987  0.3475
 8817TIP3    H150646   4.787   5.235   0.909 -0.0884 -0.0938  0.3416
 8817TIP3    H250647   4.649   5.209   0.852 -0.2928 -0.3322  0.9404
 8818TIP3   OH250648   0.762   7.234   2.037  0.1978 -0.1451  0.2174
 8818TIP3    H150649   0.739   7.196   2.121 -2.8903 -0.9824 -0.8822
 8818TIP3    H250650   0.787   7.158   1.983 -1.6114 -0.1322 -0.6888
 8819TIP3   OH250651   6.745   0.906   2.939 -0.5647  0.1348 -0.0060
 8819TIP3    H150652   6.786   0.946   3.016  0.5212 -2.0563  0.6742
 8819TIP3    H250653   6.670   0.859   2.974  1.0959 -2.5974  0.1972
 8820TIP3   OH250654   5.231   0.165   2.661 -0.0834  0.3888  0.2495
 8820TIP3    H150655   5.176   0.235   2.696 -1.2102 -0.4742  0.2467
 8820TIP3    H250656   5.198   0.085   2.702 -0.9136 -0.5566 -2.1212
 8821TIP3   OH250657   0.612   5.365   0.759 -0.2832  0.1632 -0.6702
 8821TIP3    H150658   0.637   5.321   0.839  0.7749  0.5310 -0.7902
 8821TIP3    H250659   0.637   5.305   0.689  0.7549  0.7333 -0.8115
 8822TIP3   OH250660   3.476   2.191   1.775  0.1643  0.5858 -0.4232
 8822TIP3    H150661   3.436   2.136   1.708  1.8333 -0.0535 -0.9407
 8822TIP3    H250662   3.494   2.132   1.848 -0.6650  1.0610  0.1807
 8823TIP3   OH250663   5.101   1.311   1.895 -0.2924 -0.0531  0.3841
 8823TIP3    H150664   5.110   1.244   1.827  1.3200  0.9612 -0.4672
 8823TIP3    H250665   5.188   1.316   1.936 -1.0963 -0.2956  2.2256
 8824TIP3   OH250666   6.477   5.160   2.783 -0.0903  0.2627 -0.0949
 8824TIP3    H150667   6.548   5.198   2.834 -1.0348 -0.3215  1.7626
 8824TIP3    H250668   6.427   5.236   2.751 -0.5915  0.6733  1.5483
 8825TIP3   OH250669   3.313   0.486   0.971  0.0696  0.5135 -0.2676
 8825TIP3    H150670   3.390   0.433   0.990 -0.9790 -0.6047  1.0600
 8825TIP3    H250671   3.240   0.425   0.974 -0.8975  1.5396 -1.5037
 8826TIP3   OH250672   5.729   4.765   2.208  0.0460  0.3876 -0.0936
 8826TIP3    H150673   5.809   4.789   2.161 -0.2277  0.9548 -0.2809
 8826TIP3    H250674   5.737   4.671   2.223  1.4172  0.6608  1.1252
 8827TIP3   OH250675   3.100   7.050   2.482 -0.0611  0.3882 -0.0847
 8827TIP3    H150676   3.124   7.141   2.502  0.4833  0.1113  0.5423
 8827TIP3    H250677   3.182   7.010   2.453  0.1451 -0.4351  1.5706
 8828TIP3   OH250678   5.903   6.276   2.797  0.0218  1.0063  0.2396
 8828TIP3    H150679   5.950   6.347   2.753 -0.4488  0.8414 -0.5514
 8828TIP3    H250680   5.948   6.266   2.880 -0.4656  2.8779  0.7889
 8829TIP3   OH250681   7.153   2.515   1.164  0.0991  0.0476  0.7623
 8829TIP3    H150682   7.116   2.602   1.173 -1.9624 -0.8035  1.0707
 8829TIP3    H250683   7.122   2.484   1.079  1.2234 -0.2334  0.4286
 8830TIP3   OH250684   1.082   3.167   2.313  0.0820  0.4508  0.0681
 8830TIP3    H150685   1.041   3.209   2.389 -0.3774 -0.2821  0.2375
 8830TIP3    H250686   1.145   3.106   2.350  0.3286  0.5659 -0.1610
 8831TIP3   OH250687   3.800   7.312   2.317  0.4787 -0.0322  0.1709
 8831TIP3    H150688   3.877   7.270   2.278  0.7484  0.7030 -0.1029
 8831TIP3    H250689   3.800   7.281   2.408  1.0534 -0.1005  0.1515
 8832TIP3   OH250690   2.020   5.110   2.360  0.0402 -0.2084 -0.4361
 8832TIP3    H150691   2.029   5.157   2.442 -0.1033 -0.4715 -0.2673
 8832TIP3    H250692   1.966   5.166   2.305  1.5309  0.7736 -0.9829
 8833TIP3   OH250693   3.835   6.705   1.887 -0.4223 -0.0518  0.1476
 8833TIP3    H150694   3.867   6.647   1.817 -0.9627 -0.7182  0.4487
 8833TIP3    H250695   3.747   6.730   1.858 -1.2769 -1.5539  1.2844
 8834TIP3   OH250696   4.741   4.547   0.883 -0.0063  0.3603  0.3401
 8834TIP3    H150697   4.819   4.594   0.912  1.6318 -0.2544 -2.6848
 8834TIP3    H250698   4.764   4.455   0.888 -0.3280  0.1810 -0.9696
 8835TIP3   OH250699   6.222   0.039   2.016  0.5144  0.2380 -0.5661
 8835TIP3    H150700   6.312   0.008   2.004  0.4017  0.3224 -1.7740
 8835TIP3    H250701   6.225   0.131   1.991 -0.0185  0.0982 -1.1745
 8836TIP3   OH250702   3.494   4.209   1.298 -0.3750 -0.6937  0.5472
 8836TIP3    H150703   3.407   4.183   1.267  0.1407 -0.2317 -1.3660
 8836TIP3    H250704   3.481   4.298   1.332 -0.5704 -0.4672 -0.1126
 8837TIP3   OH250705   5.721   2.618   0.678 -0.3882 -0.4866 -0.4773
 8837TIP3    H150706   5.695   2.673   0.604  2.3360 -0.0629 -1.2459
 8837TIP3    H250707   5.759   2.679   0.742 -0.2807 -1.1256  0.0895
 8838TIP3   OH250708   4.848   4.743   0.577  0.3876  0.1433  0.3738
 8838TIP3    H150709   4.825   4.650   0.579 -0.6015  0.3720  0.1447
 8838TIP3    H250710   4.765   4.788   0.560  0.8738  1.0627  0.3717
 8839TIP3   OH250711   5.381   3.544   2.477  0.2348 -0.8544  0.5146
 8839TIP3    H150712   5.300   3.573   2.519 -0.4853 -0.9833 -0.7630
 8839TIP3    H250713   5.357   3.530   2.386  1.9804  0.2734 -0.1593
 8840TIP3   OH250714   6.913   6.959   2.125  0.4579 -0.0890 -0.2803
 8840TIP3    H150715   6.991   7.004   2.157  0.1504  0.6205 -0.5261
 8840TIP3    H250716   6.920   6.871   2.163  1.4973 -0.1207 -0.4989
 8841TIP3   OH250717   4.723   2.179   2.389  0.5212  0.0952 -0.5872
 8841TIP3    H150718   4.680   2.264   2.380  0.9072  0.5858  1.5525
 8841TIP3    H250719   4.716   2.139   2.303 -1.9816  1.2064 -0.9779
 8842TIP3   OH250720   1.687   2.961   1.048 -0.3449  0.3936 -0.1020
 8842TIP3    H150721   1.717   3.048   1.074  1.1506 -0.3470  0.8390
 8842TIP3    H250722   1.592   2.969   1.043 -0.2173  2.1734 -0.4469
 8843TIP3   OH250723   5.667   2.009   2.208 -0.0386 -0.4629  0.1234
 8843TIP3    H150724   5.755   2.012   2.245  0.4733  1.0139 -1.0817
 8843TIP3    H250725   5.624   2.087   2.242  0.4133  0.8717 -2.1523
 8844TIP3   OH250726   2.703   3.154   2.070  0.3833  0.4318  0.0734
 8844TIP3    H150727   2.757   3.181   1.996 -0.1738  0.0236 -0.4984
 8844TIP3    H250728   2.653   3.232   2.093  1.2190  0.8172  0.6197
 8845TIP3   OH250729   7.221   4.864   1.587  0.0535  0.4925  0.1180
 8845TIP3    H150730   7.175   4.786   1.616 -0.4696  1.0453  0.8272
 8845TIP3    H250731   7.153   4.924   1.558  0.4767  0.5434 -0.8134
 8846TIP3   OH250732   2.967   5.397   1.024 -0.8785  0.4786 -0.4780
 8846TIP3    H150733   2.958   5.360   0.936 -1.4347  1.4655 -0.8509
 8846TIP3    H250734   2.884   5.377   1.067 -1.5395  1.9665 -0.9698
 8847TIP3   OH250735   5.422   3.508   3.200  0.0908 -0.0842 -0.5850
 8847TIP3    H150736   5.342   3.466   3.231 -1.4982  1.2106 -2.6789
 8847TIP3    H250737   5.492   3.465   3.249 -1.7964 -1.8104  0.7623
 8848TIP3   OH250738   6.315   5.596   0.490 -0.7053 -0.3779  0.1311
 8848TIP3    H150739   6.251   5.576   0.558 -1.8887  3.3054  0.3456
 8848TIP3    H250740   6.264   5.636   0.420  1.0998  1.0564 -0.4456
 8849TIP3   OH250741   2.458   0.324   2.877 -0.3598  0.2044  0.2088
 8849TIP3    H150742   2.463   0.406   2.829  0.4105 -0.0562 -0.1674
 8849TIP3    H250743   2.469   0.348   2.968  1.3080  0.3880 -0.0104
 8850TIP3   OH250744   1.897   5.854   0.528 -0.3038  0.3466  0.2776
 8850TIP3    H150745   1.817   5.839   0.579 -0.2486  0.9067  0.5370
 8850TIP3    H250746   1.866   5.867   0.438 -0.4868  0.3403  0.3398
 8851TIP3   OH250747   0.372   0.730   1.008 -0.4228  0.5437  0.1183
 8851TIP3    H150748   0.424   0.668   0.957 -0.3063  1.4756 -0.9446
 8851TIP3    H250749   0.284   0.694   1.006 -1.2401  2.2036 -3.8075
 8852TIP3   OH250750   6.862   5.161   1.724 -0.2927  0.1686  0.6304
 8852TIP3    H150751   6.901   5.107   1.793  0.0070  0.1958  0.4871
 8852TIP3    H250752   6.770   5.170   1.749 -0.4860 -0.9059  0.3437
 8853TIP3   OH250753   3.456   0.818   2.537 -0.2268 -0.8464 -0.2420
 8853TIP3    H150754   3.360   0.821   2.539 -0.3248 -2.8858 -0.0783
 8853TIP3    H250755   3.482   0.836   2.628 -0.3110  1.7180 -0.6592
 8854TIP3   OH250756   4.283   4.965   1.821 -0.2044  0.3846 -1.0549
 8854TIP3    H150757   4.305   5.046   1.774 -0.0766  1.0658  0.1509
 8854TIP3    H250758   4.247   4.908   1.753  3.5417 -0.1581 -2.8394
 8855TIP3   OH250759   3.474   6.249   1.692 -0.3023 -0.1533  0.0848
 8855TIP3    H150760   3.396   6.303   1.685 -0.3483  0.0166  1.5400
 8855TIP3    H250761   3.546   6.312   1.692 -0.3174 -0.1192  1.0967
 8856TIP3   OH250762   4.513   7.481   3.300 -0.3621 -0.0445  0.4088
 8856TIP3    H150763   4.533   7.506   3.209 -2.1822  0.4695  0.0953
 8856TIP3    H250764   4.471   7.559   3.337 -2.4476 -1.2420  0.6992
 8857TIP3   OH250765   4.634   3.471   2.886 -0.1992  0.4381 -0.2996
 8857TIP3    H150766   4.580   3.541   2.923 -0.3294  0.1930 -0.0213
 8857TIP3    H250767   4.601   3.391   2.926 -0.6725  0.1013 -1.3256
 8858TIP3   OH250768   2.915   5.671   3.331 -0.0526  0.5708  0.6538
 8858TIP3    H150769   3.005   5.642   3.349  0.4933 -0.1010 -2.5024
 8858TIP3    H250770   2.925   5.761   3.300 -0.4152  0.4144  0.0633
 8859TIP3   OH250771   2.891   3.748   3.230  0.2905 -0.0977 -0.0549
 8859TIP3    H150772   2.814   3.709   3.271  0.7584 -1.5829 -0.5368
 8859TIP3    H250773   2.872   3.842   3.228 -0.9151 -0.2840  1.0511
 8860TIP3   OH250774   0.217   2.502   0.602  0.0487  0.2963  0.4610
 8860TIP3    H150775   0.281   2.440   0.568  0.5293  1.7449 -1.4698
 8860TIP3    H250776   0.270   2.567   0.649 -0.3019  0.0067  1.2634
 8861TIP3   OH250777   4.641   6.650   0.760  0.0335 -0.4328 -0.5566
 8861TIP3    H150778   4.612   6.559   0.760 -1.5621  0.0463 -0.5089
 8861TIP3    H250779   4.726   6.648   0.717  0.4654 -2.0679  0.2881
 8862TIP3   OH250780   6.898   6.609   1.749 -0.2920 -0.6752 -0.5910
 8862TIP3    H150781   6.972   6.548   1.744 -0.0530 -0.3216 -1.5864
 8862TIP3    H250782   6.937   6.690   1.783 -0.7501 -1.2501  1.4840
 8863TIP3   OH250783   1.448   3.002   2.869 -0.2715  0.1385  0.2558
 8863TIP3    H150784   1.433   3.059   2.793 -1.6145  1.0277  1.1429
 8863TIP3    H250785   1.444   3.060   2.944 -2.3639 -1.1617  1.2537
 8864TIP3   OH250786   1.645   7.472   2.928  0.2153 -0.0532 -0.5491
 8864TIP3    H150787   1.655   7.566   2.918 -1.5661  0.1140 -1.1422
 8864TIP3    H250788   1.639   7.438   2.839 -0.3014 -0.5603 -0.3334
 8865TIP3   OH250789   6.419   3.134   2.463 -0.4711  0.6830 -0.1869
 8865TIP3    H150790   6.388   3.185   2.537  0.6953  0.2820  0.6045
 8865TIP3    H250791   6.339   3.099   2.422 -1.1915  1.9068  0.1332
 8866TIP3   OH250792   3.097   6.520   2.784 -0.0223 -0.2751  0.1862
 8866TIP3    H150793   3.072   6.580   2.855  0.6831 -0.5525  0.6708
 8866TIP3    H250794   3.073   6.567   2.704  0.6778  0.7434  0.5514
 8867TIP3   OH250795   7.386   0.263   2.940 -0.0590  0.2722 -0.0757
 8867TIP3    H150796   7.446   0.191   2.921  0.8929  1.4500 -1.7805
 8867TIP3    H250797   7.325   0.264   2.866 -0.0756  1.1949 -0.0617
 8868TIP3   OH250798   7.384   1.173   2.307 -0.0041 -0.2453 -0.0278
 8868TIP3    H150799   7.293   1.185   2.333 -0.8336 -0.5012 -2.5026
 8868TIP3    H250800   7.435   1.219   2.373 -1.8567 -0.7939  1.8725
 8869TIP3   OH250801   4.091   0.163   2.018 -0.3515  0.0303 -0.3930
 8869TIP3    H150802   4.073   0.253   2.045 -0.8993 -0.0851 -0.3700
 8869TIP3    H250803   4.175   0.143   2.059 -0.1771  0.5630 -0.4748
 8870TIP3   OH250804   2.019   1.081   1.770 -0.6920 -0.1301 -0.0394
 8870TIP3    H150805   2.012   1.042   1.858 -0.3663  0.1128  0.0971
 8870TIP3    H250806   2.018   1.006   1.711  1.4621 -0.4772  0.2920
 8871TIP3   OH250807   4.353   0.757   2.753  0.1884 -0.0650 -0.0609
 8871TIP3    H150808   4.447   0.766   2.741  0.1396  1.1092  0.2642
 8871TIP3    H250809   4.318   0.843   2.727 -0.7529 -0.3843  0.1269
 8872TIP3   OH250810   4.201   1.267   0.588 -0.0571 -0.9237  0.3012
 8872TIP3    H150811   4.260   1.203   0.548 -0.1200 -0.7914 -0.0055
 8872TIP3    H250812   4.118   1.254   0.542  0.1135 -0.1615 -0.2241
 8873TIP3   OH250813   6.317   2.431   2.327 -0.2789 -0.0464 -0.2069
 8873TIP3    H150814   6.235   2.468   2.360 -0.9595 -1.2220 -0.5185
 8873TIP3    H250815   6.380   2.503   2.333 -0.7589  0.2487  2.1499
 8874TIP3   OH250816   1.336   0.246   1.656 -0.0691 -0.4589 -0.0104
 8874TIP3    H150817   1.380   0.326   1.629 -0.9227  0.1018  0.2245
 8874TIP3    H250818   1.335   0.251   1.752  0.6890 -1.2007  0.0436
 8875TIP3   OH250819   4.363   6.488   2.749 -0.2669 -0.0281  0.5912
 8875TIP3    H150820   4.358   6.563   2.808 -0.5723  1.1485 -0.8594
 8875TIP3    H250821   4.449   6.497   2.707  0.1438 -1.1164  1.1668
 8876TIP3   OH250822   2.797   4.908   2.412  0.3565 -0.1150  0.0230
 8876TIP3    H150823   2.757   4.928   2.327  1.0052  0.5065 -0.1446
 8876TIP3    H250824   2.722   4.890   2.469 -0.2540  1.8897 -0.0608
 8877TIP3   OH250825   3.208   3.143   1.103  0.1613 -0.0661 -0.2680
 8877TIP3    H150826   3.182   3.143   1.195 -1.4313 -0.1059 -0.6771
 8877TIP3    H250827   3.224   3.236   1.083 -0.6763  0.1017 -0.2293
 8878TIP3   OH250828   3.199   2.467   0.443 -0.6281  0.1610  0.5395
 8878TIP3    H150829   3.117   2.516   0.454 -0.5599  0.6791 -1.0732
 8878TIP3    H250830   3.211   2.461   0.348  0.6707 -0.8257  0.7424
 8879TIP3   OH250831   1.947   0.717   2.999  0.5132  0.0106 -0.2817
 8879TIP3    H150832   1.894   0.773   3.056  0.7446  0.0744 -0.1257
 8879TIP3    H250833   1.946   0.761   2.914  0.9800  0.4363 -0.0698
 8880TIP3   OH250834   3.970   1.519   2.504  0.3261 -0.7698  0.1011
 8880TIP3    H150835   4.001   1.575   2.433 -1.2516  0.0193 -0.0155
 8880TIP3    H250836   4.017   1.437   2.493  1.6503  0.0525 -0.5838
 8881TIP3   OH250837   2.743   3.536   0.637  0.0955 -0.1020 -0.1705
 8881TIP3    H150838   2.752   3.599   0.565  0.0952  0.2407  0.1307
 8881TIP3    H250839   2.656   3.554   0.674 -1.5052 -2.6197 -2.3200
 8882TIP3   OH250840   1.392   7.056   1.615 -0.4141  0.7407 -0.7789
 8882TIP3    H150841   1.484   7.045   1.640 -0.8478  1.2150  1.2096
 8882TIP3    H250842   1.365   7.135   1.662 -1.9143  0.4315 -1.0898
 8883TIP3   OH250843   3.874   1.960   0.972 -0.1426 -0.1855 -0.1110
 8883TIP3    H150844   3.842   1.942   1.060 -0.2632  1.6071  0.2441
 8883TIP3    H250845   3.888   2.055   0.970  1.6099 -0.4199 -1.4346
 8884TIP3   OH250846   0.019   0.093   1.907  0.0302  0.2826  0.4090
 8884TIP3    H150847   0.093   0.059   1.856 -0.5441 -1.4077  0.6674
 8884TIP3    H250848   0.035   0.188   1.911  1.2487  0.1775 -1.0207
 8885TIP3   OH250849   5.552   2.814   1.475 -0.0518  0.7504  0.7025
 8885TIP3    H150850   5.540   2.797   1.381  0.2711  1.3524  0.5442
 8885TIP3    H250851   5.471   2.782   1.515  0.6157 -1.3312  0.4738
 8886TIP3   OH250852   1.535   0.748   3.483 -0.0918 -1.0478 -0.1120
 8886TIP3    H150853   1.508   0.656   3.486  0.7761 -1.3679 -1.3717
 8886TIP3    H250854   1.630   0.746   3.496 -0.0759 -0.3322 -0.0871
 8887TIP3   OH250855   4.036   0.790   2.545 -0.2075 -0.0245  0.4820
 8887TIP3    H150856   4.089   0.716   2.575 -0.3485  0.1899  1.2861
 8887TIP3    H250857   3.948   0.772   2.578  0.0442  1.1782  1.9275
 8888TIP3   OH250858   1.609   7.122   2.645 -0.1330 -0.7324 -0.0803
 8888TIP3    H150859   1.680   7.120   2.580  0.3400  1.1737  0.2928
 8888TIP3    H250860   1.655   7.122   2.730 -0.6740 -1.5637  0.2153
 8889TIP3   OH250861   1.612   0.317   1.935  0.7287  0.7222  0.1065
 8889TIP3    H150862   1.696   0.300   1.977  0.0810 -0.3261  1.0264
 8889TIP3    H250863   1.567   0.232   1.936 -0.1778  1.1658 -0.7577
 8890TIP3   OH250864   1.475   7.173   2.968 -0.1719  0.5090  0.1422
 8890TIP3    H150865   1.551   7.185   2.911  0.4170  2.2494  1.2344
 8890TIP3    H250866   1.487   7.237   3.038 -1.3352 -0.9380  1.7434
 8891TIP3   OH250867   2.715   6.777   3.345  0.0022 -0.0838  0.1210
 8891TIP3    H150868   2.636   6.747   3.301 -0.8301  1.3032  0.6194
 8891TIP3    H250869   2.684   6.844   3.406  1.5776  0.5375  0.2675
 8892TIP3   OH250870   2.541   1.276   1.190  0.2543  0.3996 -0.3203
 8892TIP3    H150871   2.496   1.346   1.143 -1.6128 -0.8594 -0.5122
 8892TIP3    H250872   2.546   1.204   1.127  0.1180 -0.3946  0.5556
 8893TIP3   OH250873   4.236   4.072   1.470  0.2879  0.7592 -0.3570
 8893TIP3    H150874   4.293   4.083   1.547  0.9855 -0.5639 -0.6651
 8893TIP3    H250875   4.269   3.993   1.427 -1.7627 -0.0140 -0.5806
 8894TIP3   OH250876   6.904   6.582   0.923 -0.0098 -0.4543 -0.3249
 8894TIP3    H150877   6.920   6.663   0.973 -0.7473 -0.1391 -0.5935
 8894TIP3    H250878   6.991   6.555   0.894  0.2783  0.0847  0.0117
 8895TIP3   OH250879   5.983   0.472   1.559  0.4540 -0.2059 -0.9856
 8895TIP3    H150880   5.955   0.438   1.473 -2.9694 -0.9665  0.2505
 8895TIP3    H250881   5.996   0.566   1.544 -2.5088  0.1668 -1.9600
 8896TIP3   OH250882   0.430   3.985   0.933  0.5285  0.0358  0.3629
 8896TIP3    H150883   0.432   4.078   0.955 -0.9680 -0.1444  1.3746
 8896TIP3    H250884   0.489   3.977   0.858 -0.6532  2.1102 -0.8824
 8897TIP3   OH250885   6.055   4.590   1.443 -0.6031  0.1305  0.2486
 8897TIP3    H150886   6.015   4.525   1.385 -1.3418 -0.5098  1.4417
 8897TIP3    H250887   6.125   4.629   1.390 -2.0065  0.4338 -1.4748
 8898TIP3   OH250888   1.650   5.655   2.496 -0.1269 -0.1645  0.1701
 8898TIP3    H150889   1.743   5.635   2.501 -0.4064 -1.5722  0.3697
 8898TIP3    H250890   1.645   5.750   2.500  1.3260 -0.0421 -0.3922
 8899TIP3   OH250891   6.470   7.384   1.372 -0.0135  0.0316  0.0081
 8899TIP3    H150892   6.414   7.402   1.296  0.1379  1.6940  0.2671
 8899TIP3    H250893   6.537   7.452   1.369  0.5205 -0.4230  1.1352
 8900TIP3   OH250894   1.370   2.153   2.742  0.3833  0.0973 -0.2998
 8900TIP3    H150895   1.312   2.194   2.678  1.4067 -0.8274 -1.8936
 8900TIP3    H250896   1.437   2.109   2.689 -0.8212 -3.9633  1.1330
 8901TIP3   OH250897   4.929   2.228   2.017 -0.6418  0.0730  0.1939
 8901TIP3    H150898   4.859   2.164   2.032 -0.6739 -0.1651 -0.8928
 8901TIP3    H250899   5.000   2.200   2.075 -1.6347  0.6618  1.7581
 8902TIP3   OH250900   0.442   5.093   1.785 -0.2333  0.5018  0.1138
 8902TIP3    H150901   0.453   5.187   1.766 -1.8903  0.8502  0.7530
 8902TIP3    H250902   0.429   5.089   1.880  1.4496 -0.5696  0.3444
 8903TIP3   OH250903   1.319   4.636   1.945 -0.4317 -0.3424 -0.1053
 8903TIP3    H150904   1.296   4.693   2.019 -0.3082  0.3325 -0.5724
 8903TIP3    H250905   1.369   4.693   1.886 -3.9589  0.3973 -2.7160
 8904TIP3   OH250906   3.395   1.808   0.706 -0.3514 -0.2087  0.1175
 8904TIP3    H150907   3.476   1.838   0.663 -1.6090  1.1087 -1.4518
 8904TIP3    H250908   3.344   1.887   0.720 -1.7561 -1.0991  0.2685
 8905TIP3   OH250909   2.667   1.915   2.526  0.3542  0.0602  0.4380
 8905TIP3    H150910   2.667   1.879   2.615 -1.1525  0.7133  0.7260
 8905TIP3    H250911   2.742   1.976   2.525 -0.1165  0.6864  1.5418
 8906TIP3   OH250912   4.416   2.248   1.685  0.0095  0.1730  0.0956
 8906TIP3    H150913   4.499   2.215   1.651 -0.4358 -0.3541 -0.4980
 8906TIP3    H250914   4.441   2.303   1.759  0.9008  0.1892 -0.2064
 8907TIP3   OH250915   0.374   6.107   1.893  0.2514  0.1941  0.3155
 8907TIP3    H150916   0.381   6.090   1.799 -1.3782  0.6035  0.0842
 8907TIP3    H250917   0.359   6.021   1.932 -2.3065  0.2976 -0.2149
 8908TIP3   OH250918   5.437   3.342   1.606  0.1832  0.2024 -0.4906
 8908TIP3    H150919   5.437   3.400   1.683  1.2862 -1.3756  0.7677
 8908TIP3    H250920   5.363   3.283   1.620 -1.7807  1.9744 -2.4294
 8909TIP3   OH250921   2.189   5.797   2.485  0.0499 -0.0716 -0.4707
 8909TIP3    H150922   2.213   5.776   2.575  1.2447  0.9906 -0.5125
 8909TIP3    H250923   2.150   5.716   2.451  1.7860 -1.2576  0.2484
 8910TIP3   OH250924   1.565   5.036   2.639  0.1914  0.1916 -0.4991
 8910TIP3    H150925   1.529   5.053   2.551  0.4412 -1.7379 -1.0233
 8910TIP3    H250926   1.494   5.059   2.699 -0.4581  0.2821 -1.2840
 8911TIP3   OH250927   2.297   1.726   0.734  0.5101  0.1287  0.2508
 8911TIP3    H150928   2.276   1.739   0.827  0.9804 -0.5663  0.4660
 8911TIP3    H250929   2.393   1.717   0.733  0.4804 -0.1423 -0.2641
 8912TIP3   OH250930   2.202   5.304   0.900  0.1298  0.4767  0.1568
 8912TIP3    H150931   2.200   5.224   0.953  0.6570 -0.2437 -0.8628
 8912TIP3    H250932   2.125   5.354   0.928  0.0216 -0.1869  1.1060
 8913TIP3   OH250933   7.452   0.742   1.731 -0.5308  0.0182 -0.2152
 8913TIP3    H150934   7.437   0.651   1.706  0.5493 -0.4538  0.7791
 8913TIP3    H250935   7.529   0.769   1.682 -0.2606  0.0707  0.2281
 8914TIP3   OH250936   3.650   2.525   3.067  0.1687  0.0143 -0.0719
 8914TIP3    H150937   3.739   2.505   3.039  0.5963  0.4962  0.8841
 8914TIP3    H250938   3.658   2.609   3.112 -0.5479 -0.4964  1.0560
 8915TIP3   OH250939   4.243   3.206   1.937  0.6440 -0.5499  0.1973
 8915TIP3    H150940   4.306   3.188   1.867  0.2940 -1.8668  0.1931
 8915TIP3    H250941   4.161   3.166   1.907 -0.3204  1.3710  0.0699
 8916TIP3   OH250942   1.323   2.421   2.934 -0.3612  0.3207  0.1202
 8916TIP3    H150943   1.343   2.456   2.847 -0.8586  1.4556  0.4457
 8916TIP3    H250944   1.396   2.450   2.989 -0.6518  0.6507  0.3375
 8917TIP3   OH250945   6.347   5.355   1.409  0.2189 -0.3102  0.3826
 8917TIP3    H150946   6.311   5.293   1.346 -0.0884  0.6956 -0.4471
 8917TIP3    H250947   6.308   5.328   1.493 -2.6665  0.8197 -0.4790
 8918TIP3   OH250948   3.805   2.970   3.472  0.0530 -0.2697  0.3642
 8918TIP3    H150949   3.829   3.019   3.394 -0.2840  0.7018  0.8592
 8918TIP3    H250950   3.885   2.964   3.523  0.0954 -0.2467  0.3001
 8919TIP3   OH250951   4.327   2.116   2.175 -0.8912 -0.1856 -0.0232
 8919TIP3    H150952   4.378   2.038   2.152 -0.7229 -0.1939  0.3821
 8919TIP3    H250953   4.243   2.103   2.130 -1.8861 -1.8830  2.1460
 8920TIP3   OH250954   6.112   2.280   1.949 -0.0588  0.5536 -0.6438
 8920TIP3    H150955   6.063   2.347   1.901  1.4735  0.5535 -2.2909
 8920TIP3    H250956   6.187   2.260   1.893  0.3755 -1.4061  0.5419
 8921TIP3   OH250957   4.567   1.060   0.901  0.5583 -0.5495  0.2721
 8921TIP3    H150958   4.644   1.007   0.922  2.1480  0.9539 -1.3963
 8921TIP3    H250959   4.558   1.119   0.976  1.1812 -0.5983  0.3947
 8922TIP3   OH250960   0.667   2.478   3.263 -0.0967 -0.0508 -0.4601
 8922TIP3    H150961   0.717   2.515   3.336  0.9234 -0.8699 -0.7262
 8922TIP3    H250962   0.592   2.536   3.254 -1.2148 -0.8864  2.3795
 8923TIP3   OH250963   3.352   6.744   1.369  0.7027  0.5008 -0.2232
 8923TIP3    H150964   3.428   6.798   1.391 -0.5655  2.1682  0.2925
 8923TIP3    H250965   3.282   6.807   1.353 -0.9067 -1.0048  0.5446
 8924TIP3   OH250966   0.650   1.805   1.514  0.2114  0.2815 -0.4733
 8924TIP3    H150967   0.723   1.854   1.476 -1.2791  2.7524 -0.4082
 8924TIP3    H250968   0.690   1.727   1.551  2.7488  1.3006 -0.8535
 8925TIP3   OH250969   1.172   5.085   3.013  0.0911 -0.4281  0.1042
 8925TIP3    H150970   1.132   4.998   3.009 -0.8575 -0.0686  1.2784
 8925TIP3    H250971   1.155   5.116   3.102 -0.6132  1.4337 -0.6235
 8926TIP3   OH250972   6.654   6.986   2.010 -0.4457 -0.5965  0.3762
 8926TIP3    H150973   6.731   6.991   2.067  1.2500  2.4118 -1.9172
 8926TIP3    H250974   6.663   6.902   1.965  0.6973 -0.9080  1.1383
 8927TIP3   OH250975   4.902   0.748   3.072 -0.0256  0.3473  0.4300
 8927TIP3    H150976   4.814   0.782   3.057  0.0288  1.3908  2.2039
 8927TIP3    H250977   4.960   0.808   3.025 -0.2533 -0.5989 -1.1131
 8928TIP3   OH250978   2.387   2.475   1.854  0.6460 -0.7316  0.0295
 8928TIP3    H150979   2.308   2.437   1.816  1.8103 -2.7097 -0.5556
 8928TIP3    H250980   2.459   2.433   1.807  2.1020 -0.9022  2.2612
 8929TIP3   OH250981   4.990   3.541   1.250  0.1156  0.3883  0.0061
 8929TIP3    H150982   4.983   3.633   1.226  1.0019 -0.1809 -2.7042
 8929TIP3    H250983   5.040   3.541   1.332 -2.8301  2.4263  1.9968
 8930TIP3   OH250984   2.449   0.920   0.813 -0.8707  0.0139  0.0429
 8930TIP3    H150985   2.354   0.933   0.810 -1.0159 -1.0581 -3.2974
 8930TIP3    H250986   2.469   0.867   0.736  2.4918  0.3490  0.5392
 8931TIP3   OH250987   1.764   5.810   1.596  0.1258 -0.2118  0.1065
 8931TIP3    H150988   1.755   5.903   1.576  0.8399 -0.0004  0.7254
 8931TIP3    H250989   1.851   5.802   1.636 -1.0314 -0.6366  2.7868
 8932TIP3   OH250990   0.565   4.011   1.368  0.3091 -0.2198 -0.1172
 8932TIP3    H150991   0.541   4.037   1.457 -1.7905  1.7794 -1.1570
 8932TIP3    H250992   0.601   3.923   1.378  1.2747  0.3836  2.8190
 8933TIP3   OH250993   0.895   1.464   2.284 -0.7245 -0.2060 -0.2419
 8933TIP3    H150994   0.874   1.536   2.344  1.8425  1.2399 -0.8943
 8933TIP3    H250995   0.873   1.499   2.197  0.8755 -0.0013 -0.5962
 8934TIP3   OH250996   6.565   6.100   3.383  0.2550 -0.4302 -0.4820
 8934TIP3    H150997   6.609   6.059   3.309  1.4838  0.5097 -0.3061
 8934TIP3    H250998   6.632   6.154   3.424 -0.4804 -0.6447  1.1176
 8935TIP3   OH250999   2.505   4.695   2.172  0.2391 -0.0690  0.0284
 8935TIP3    H151000   2.520   4.746   2.093 -1.4184  0.9494  0.3192
 8935TIP3    H251001   2.555   4.741   2.240 -3.0443  2.7586  0.8051
 8936TIP3   OH251002   3.156   6.434   1.545 -0.0993 -0.2687 -0.2682
 8936TIP3    H151003   3.076   6.438   1.598  0.8966 -2.4642  1.5763
 8936TIP3    H251004   3.128   6.395   1.462 -1.3500  1.3570 -0.6452
 8937TIP3   OH251005   5.650   0.603   1.435  0.0182 -0.1732 -0.3553
 8937TIP3    H151006   5.674   0.513   1.456  0.4589 -0.0061 -0.1406
 8937TIP3    H251007   5.657   0.607   1.339  0.1485 -0.3228 -0.3535
 8938TIP3   OH251008   2.855   1.007   2.277 -0.3012 -0.0872 -0.3111
 8938TIP3    H151009   2.866   1.090   2.230 -1.2871 -0.3827 -1.0712
 8938TIP3    H251010   2.888   1.026   2.365  1.4146  0.5205 -1.0308
 8939TIP3   OH251011   4.616   2.528   3.250 -0.8418  0.0785  0.0379
 8939TIP3    H151012   4.609   2.601   3.312  0.9525  1.0679 -0.8327
 8939TIP3    H251013   4.698   2.484   3.274 -0.2952  0.2679 -1.3632
 8940TIP3   OH251014   5.787   4.444   2.329 -0.5922 -0.3658  0.2303
 8940TIP3    H151015   5.844   4.368   2.335 -0.6645 -0.3831  0.8095
 8940TIP3    H251016   5.710   4.413   2.281  1.2267  0.4948 -3.6638
 8941TIP3   OH251017   7.354   6.167   3.009 -1.1109  0.1368 -0.2536
 8941TIP3    H151018   7.259   6.161   3.022 -1.0603  0.0880  0.1061
 8941TIP3    H251019   7.384   6.229   3.075 -0.7655 -0.5795  0.2708
 8942TIP3   OH251020   6.517   6.097   1.161 -0.2181  0.2923 -0.4135
 8942TIP3    H151021   6.587   6.152   1.125  1.0906 -0.1191  1.3293
 8942TIP3    H251022   6.501   6.031   1.094  2.6230 -0.8918 -0.0932
 8943TIP3   OH251023   7.344   6.723   2.139 -0.0692  0.1237  0.4555
 8943TIP3    H151024   7.295   6.716   2.222 -0.8026 -1.5384 -0.0826
 8943TIP3    H251025   7.289   6.779   2.084 -1.1434 -1.2787  0.0517
 8944TIP3   OH251026   2.736   4.276   0.750  0.0363 -0.1379  0.3259
 8944TIP3    H151027   2.650   4.244   0.722 -1.4042  2.4823  1.4513
 8944TIP3    H251028   2.761   4.338   0.682  0.2781  0.2992  0.8133
 8945TIP3   OH251029   0.806   2.113   3.547  0.7356 -0.1905  0.6049
 8945TIP3    H151030   0.800   2.146   3.458 -2.1871 -0.5773  0.5673
 8945TIP3    H251031   0.834   2.188   3.599 -0.5160  0.8737 -0.2226
 8946TIP3   OH251032   5.323   1.684   1.951  0.3172 -0.3228 -0.5317
 8946TIP3    H151033   5.396   1.689   1.889  0.3150 -2.5998 -0.8185
 8946TIP3    H251034   5.284   1.771   1.949  3.6756  1.3695  0.5258
 8947TIP3   OH251035   2.283   0.049   1.583 -0.5335 -0.3920  0.1705
 8947TIP3    H151036   2.320  -0.028   1.539  0.7166 -1.0735  2.2572
 8947TIP3    H251037   2.188   0.038   1.573 -0.3628 -1.9161 -0.0715
 8948TIP3   OH251038   6.212   5.202   2.955  0.3973  0.0766 -0.3791
 8948TIP3    H151039   6.116   5.209   2.958  0.3706 -0.4510  0.0109
 8948TIP3    H251040   6.237   5.252   2.878 -0.4027 -1.9909 -2.0666
 8949TIP3   OH251041   1.012   2.868   1.964  0.3006 -0.3657 -0.0372
 8949TIP3    H151042   1.101   2.868   1.929  0.4683  0.1035  0.3807
 8949TIP3    H251043   1.017   2.811   2.041  0.0965 -0.8209 -0.3541
 8950TIP3   OH251044   6.984   1.945   0.643  0.3672  0.4706  0.2601
 8950TIP3    H151045   6.925   1.871   0.631 -1.6324  1.8102  1.3631
 8950TIP3    H251046   6.990   1.985   0.556  0.4446 -0.2153 -0.0601
 8951TIP3   OH251047   0.170   6.562   0.680  0.4054  1.0565 -0.1748
 8951TIP3    H151048   0.080   6.538   0.701  0.4287 -0.6230 -1.7092
 8951TIP3    H251049   0.222   6.486   0.706  1.3394  1.8419  0.3157
 8952TIP3   OH251050   6.750   2.078   0.704 -0.1910 -0.0179  0.5836
 8952TIP3    H151051   6.843   2.058   0.701  0.2341  1.6421  1.4017
 8952TIP3    H251052   6.711   2.023   0.636  1.4443 -0.3589 -0.1227
 8953TIP3   OH251053   7.161   7.347   1.670  0.9691 -0.3669 -0.0257
 8953TIP3    H151054   7.231   7.323   1.731 -0.2090 -0.2905  1.4217
 8953TIP3    H251055   7.106   7.408   1.720  0.1284 -0.0579 -1.2844
 8954TIP3   OH251056   1.732   1.067   1.821 -0.0774  0.3559  0.6265
 8954TIP3    H151057   1.804   1.018   1.780 -1.0408  1.3299 -2.5376
 8954TIP3    H251058   1.771   1.150   1.847  0.1162  0.6444 -0.5238
 8955TIP3   OH251059   1.668   4.166   2.603  0.1562  0.0585 -0.1799
 8955TIP3    H151060   1.759   4.145   2.624  0.1931 -0.8373 -1.1767
 8955TIP3    H251061   1.639   4.223   2.675  1.0300 -0.8922  0.9526
 8956TIP3   OH251062   1.862   1.919   0.629 -0.1079  0.2232  0.1550
 8956TIP3    H151063   1.836   1.833   0.663 -0.8610  0.9687  1.5301
 8956TIP3    H251064   1.782   1.957   0.594  0.0197  0.7392  0.4114
 8957TIP3   OH251065   4.962   4.175   1.037 -0.4804 -0.1695 -0.4193
 8957TIP3    H151066   4.951   4.155   1.130 -0.4711  0.1938 -0.3400
 8957TIP3    H251067   4.970   4.089   0.995  1.9691 -0.3159  0.2021
 8958TIP3   OH251068   5.647   6.295   1.107  0.5523 -0.3352  0.3471
 8958TIP3    H151069   5.664   6.260   1.020 -0.4944 -1.7080  0.6526
 8958TIP3    H251070   5.677   6.386   1.104  1.3824 -0.6386 -1.1480
 8959TIP3   OH251071   6.731   6.268   1.680  0.2762 -0.4475  0.0270
 8959TIP3    H151072   6.693   6.332   1.621 -0.3726 -0.7750  0.0814
 8959TIP3    H251073   6.682   6.279   1.762 -0.3065 -1.4609 -0.1689
 8960TIP3   OH251074   1.402   3.963   1.172 -0.2132 -0.7665  0.5006
 8960TIP3    H151075   1.323   3.979   1.223  0.1550 -1.9109  1.4667
 8960TIP3    H251076   1.427   3.873   1.193  0.9331 -0.6731 -0.3555
 8961TIP3   OH251077   1.809   2.463   2.275 -0.2857 -0.1842 -0.4049
 8961TIP3    H151078   1.730   2.461   2.222  0.1870  0.6194 -1.1601
 8961TIP3    H251079   1.788   2.521   2.348 -1.0237 -1.4929  0.4568
 8962TIP3   OH251080   6.309   4.073   1.507  0.8570 -0.2461 -0.1331
 8962TIP3    H151081   6.302   4.030   1.421  0.4475 -0.3592 -0.0458
 8962TIP3    H251082   6.219   4.087   1.534  0.9898  0.4622 -0.0500
 8963TIP3   OH251083   3.587   6.620   2.600  0.3835  0.6309  0.1312
 8963TIP3    H151084   3.619   6.570   2.675  0.9514 -1.5118 -1.4493
 8963TIP3    H251085   3.665   6.663   2.565 -0.0554  2.4993  1.3139
 8964TIP3   OH251086   2.229   6.630   3.409  0.1166 -0.2251 -0.3551
 8964TIP3    H151087   2.272   6.556   3.365  1.4967  0.7371 -0.6928
 8964TIP3    H251088   2.300   6.690   3.430 -0.9721  1.0278 -0.0966
 8965TIP3   OH251089   1.109   3.929   0.580  0.1313  0.1858  1.0693
 8965TIP3    H151090   1.182   3.867   0.587 -0.0393 -0.1940 -0.2469
 8965TIP3    H251091   1.035   3.882   0.618  0.6400  0.7861  2.9495
 8966TIP3   OH251092   1.811   6.594   2.757 -0.4647 -0.3332  0.0290
 8966TIP3    H151093   1.740   6.533   2.776 -0.2857 -0.3450  0.6565
 8966TIP3    H251094   1.888   6.556   2.799 -0.0371 -0.4149 -0.7972
 8967TIP3   OH251095   0.444   3.740   1.090 -0.1072 -0.0012  0.2478
 8967TIP3    H151096   0.363   3.728   1.139 -0.1579  2.3104  0.8652
 8967TIP3    H251097   0.422   3.807   1.024  1.4301  1.1561  0.8450
 8968TIP3   OH251098   1.742   7.141   2.877  0.4580 -0.4539  0.4040
 8968TIP3    H151099   1.742   7.091   2.958 -0.3681  0.2704  0.8699
 8968TIP3    H251100   1.810   7.207   2.890  0.2704 -0.2872  0.5416
 8969TIP3   OH251101   3.091   0.267   1.757  0.4651 -0.6204  0.2546
 8969TIP3    H151102   3.155   0.233   1.694 -0.0196  0.2263 -0.7359
 8969TIP3    H251103   3.078   0.196   1.819  2.0228 -0.9680  0.2166
 8970TIP3   OH251104   2.845   3.712   1.001 -0.2782 -0.3680  0.0560
 8970TIP3    H151105   2.850   3.785   1.063  1.9581  1.3657 -1.9485
 8970TIP3    H251106   2.773   3.737   0.943 -0.7282 -0.7137  0.4621
 8971TIP3   OH251107   5.158   3.332   1.976  0.4075  0.7280  0.4369
 8971TIP3    H151108   5.164   3.274   2.052 -0.2655  1.4720  1.0744
 8971TIP3    H251109   5.216   3.405   1.997  1.6400  0.0804 -0.5801
 8972TIP3   OH251110   0.771   3.050   0.824 -0.0819 -0.2085 -0.5020
 8972TIP3    H151111   0.687   3.090   0.803 -0.5503 -0.8021  0.2091
 8972TIP3    H251112   0.751   2.984   0.889  0.9442 -0.3476 -0.3062
 8973TIP3   OH251113   3.464   6.718   0.838 -0.0083  0.0988 -0.1741
 8973TIP3    H151114   3.530   6.703   0.771  1.3655 -2.1313  1.5568
 8973TIP3    H251115   3.505   6.779   0.900 -1.5885  2.8528 -1.6521
 8974TIP3   OH251116   5.150   3.595   0.838  0.5935  0.2761 -0.2608
 8974TIP3    H151117   5.184   3.581   0.926 -0.5607 -1.3436 -0.0322
 8974TIP3    H251118   5.220   3.566   0.780  0.9005  0.2113  0.1405
 8975TIP3   OH251119   1.630   3.542   2.745  0.2006 -0.3331  0.2359
 8975TIP3    H151120   1.557   3.504   2.795 -1.1391  1.1122 -0.5498
 8975TIP3    H251121   1.610   3.635   2.740  2.2129  0.1344  0.1191
 8976TIP3   OH251122   2.100   2.421   0.599  0.1577  0.1539 -0.2482
 8976TIP3    H151123   2.178   2.376   0.567  0.5897  1.1161 -0.6211
 8976TIP3    H251124   2.055   2.358   0.654  0.7425 -0.7082 -0.7444
 8977TIP3   OH251125   4.690   5.007   1.668 -0.0626  0.5522 -0.3427
 8977TIP3    H151126   4.662   4.916   1.677  0.3013  0.5594  1.0053
 8977TIP3    H251127   4.611   5.053   1.639 -0.9463  0.2298  1.4574
 8978TIP3   OH251128   4.181   7.337   1.774 -0.2207 -0.3588 -0.4394
 8978TIP3    H151129   4.162   7.416   1.723 -1.2015 -0.5786 -0.4482
 8978TIP3    H251130   4.172   7.364   1.865  1.7677  0.0918 -0.3386
 8979TIP3   OH251131   4.964   4.389   1.867 -0.1041  0.0583 -0.1767
 8979TIP3    H151132   5.053   4.378   1.834 -0.9243 -0.2342 -2.4528
 8979TIP3    H251133   4.917   4.310   1.840 -1.2069  0.4515  0.4838
 8980TIP3   OH251134   4.776   7.357   0.475 -0.4702  0.4511 -0.5543
 8980TIP3    H151135   4.804   7.286   0.533  0.6211  1.3965  0.1054
 8980TIP3    H251136   4.847   7.364   0.411 -0.9282  0.4625 -1.0631
 8981TIP3   OH251137   0.542   2.341   2.282 -0.1540 -0.5921 -0.0101
 8981TIP3    H151138   0.455   2.302   2.280  0.0251 -1.1847  1.7238
 8981TIP3    H251139   0.534   2.414   2.343  0.0639  0.7423 -1.5083
 8982TIP3   OH251140   5.303   6.988   2.304  0.1565  0.5418  0.1561
 8982TIP3    H151141   5.287   6.983   2.210 -1.4869 -0.6554  0.4510
 8982TIP3    H251142   5.368   6.920   2.321  0.2236  0.5495 -0.0766
 8983TIP3   OH251143   0.906   2.696   2.624  0.1578  0.6068  0.5355
 8983TIP3    H151144   0.996   2.723   2.639 -0.4510  2.7234  0.7575
 8983TIP3    H251145   0.855   2.776   2.637 -1.7970 -0.6335  0.8505
 8984TIP3   OH251146   6.332   6.394   1.232 -0.3565  0.7648 -0.5345
 8984TIP3    H151147   6.330   6.315   1.177 -1.1899  1.4278 -1.4962
 8984TIP3    H251148   6.379   6.367   1.311  1.2850 -0.0824 -1.7563
 8985TIP3   OH251149   2.591   0.153   2.737  0.1046 -0.2300  0.4539
 8985TIP3    H151150   2.684   0.164   2.758  0.4964  0.0812 -1.3365
 8985TIP3    H251151   2.547   0.219   2.791  0.9400 -0.2211  1.1518
 8986TIP3   OH251152   3.707   7.328   1.010  0.1788 -0.3772  0.2075
 8986TIP3    H151153   3.711   7.340   1.105  0.9199 -0.0723  0.1394
 8986TIP3    H251154   3.621   7.288   0.995  0.1137 -0.5568  1.0165
 8987TIP3   OH251155   1.497   5.658   0.481 -0.1590  0.8584  0.2782
 8987TIP3    H151156   1.469   5.587   0.539  0.0133  1.3405  0.9666
 8987TIP3    H251157   1.427   5.664   0.416 -1.8273  2.1347  2.0436
 8988TIP3   OH251158   5.926   0.558   1.240  0.2628  0.2194 -0.0307
 8988TIP3    H151159   5.927   0.653   1.241  1.4931  0.2369 -0.9586
 8988TIP3    H251160   5.845   0.535   1.193 -0.6369  0.7588  1.2016
 8989TIP3   OH251161   3.841   3.905   1.807  0.6068 -0.3736 -0.0778
 8989TIP3    H151162   3.881   3.969   1.867  3.7925 -1.7575 -0.5673
 8989TIP3    H251163   3.882   3.822   1.830 -1.0693 -1.6909 -1.5999
 8990TIP3   OH251164   3.089   4.315   0.978 -0.0840 -0.3996 -0.3291
 8990TIP3    H151165   3.109   4.227   0.945 -1.5987 -0.8989  0.0073
 8990TIP3    H251166   3.010   4.341   0.931 -2.2398 -1.0571  2.6094
 8991TIP3   OH251167   0.650   3.992   0.715  0.1749 -0.3566 -0.0690
 8991TIP3    H151168   0.637   4.061   0.651 -2.3684 -1.2203 -0.5836
 8991TIP3    H251169   0.625   3.912   0.670 -0.0731 -1.2052  1.4944
 8992TIP3   OH251170   6.657   3.317   1.758  0.2111 -0.6917  0.0399
 8992TIP3    H151171   6.715   3.256   1.802  3.2446  1.7152 -0.2900
 8992TIP3    H251172   6.650   3.392   1.818 -1.9703 -0.5485 -0.2997
 8993TIP3   OH251173   6.411   0.433   3.405  0.1842  0.0612  0.0691
 8993TIP3    H151174   6.325   0.452   3.369  0.3968  0.4855 -0.2260
 8993TIP3    H251175   6.461   0.514   3.391  0.1393  0.4174  1.7161
 8994TIP3   OH251176   5.088   4.470   2.224  0.2196 -0.1974  0.4314
 8994TIP3    H151177   5.007   4.438   2.185  0.2636  0.5437 -0.2914
 8994TIP3    H251178   5.080   4.449   2.317 -1.0651  0.3584  0.4636
 8995TIP3   OH251179   4.828   4.637   1.943  0.6638 -0.1571  0.0253
 8995TIP3    H151180   4.793   4.654   1.855 -0.1494 -1.4745  0.0563
 8995TIP3    H251181   4.873   4.554   1.935 -1.2458 -1.4081  1.2809
 8996TIP3   OH251182   6.747   2.632   0.641  0.1096  0.1762  0.3235
 8996TIP3    H151183   6.715   2.547   0.610  0.8500 -0.0063  0.0336
 8996TIP3    H251184   6.677   2.693   0.617  1.0274  0.2294 -2.7101
 8997TIP3   OH251185   1.112   5.113   1.655  0.1344  0.0712 -0.1343
 8997TIP3    H151186   1.125   5.032   1.705  0.2451  0.3972  0.3641
 8997TIP3    H251187   1.039   5.156   1.698  0.2687  0.3842 -0.2210
 8998TIP3   OH251188   7.286   7.213   2.506  0.5562 -0.3026  0.6146
 8998TIP3    H151189   7.275   7.229   2.413  1.0812  1.7331  0.8535
 8998TIP3    H251190   7.196   7.206   2.540  0.2996  0.8563  0.2218
 8999TIP3   OH251191   1.845   4.582   1.177 -0.1723  0.1905  0.1218
 8999TIP3    H151192   1.873   4.513   1.117 -0.3763 -0.9461  1.2816
 8999TIP3    H251193   1.925   4.629   1.198 -0.2910  1.5359 -2.0878
 9000TIP3   OH251194   1.427   0.355   2.250  1.0980 -0.0388 -0.0057
 9000TIP3    H151195   1.347   0.383   2.295  1.7699 -0.8804  1.8055
 9000TIP3    H251196   1.414   0.383   2.159 -1.3158 -0.2860  0.1844
 9001TIP3   OH251197   0.665   2.316   0.444 -0.5596 -0.0656  0.1864
 9001TIP3    H151198   0.701   2.403   0.459 -0.6750  0.2359 -1.1984
 9001TIP3    H251199   0.741   2.262   0.423 -0.5712 -0.1574  0.3717
 9002TIP3   OH251200   1.420   1.905   2.338 -0.5834 -0.0604 -0.6747
 9002TIP3    H151201   1.378   1.871   2.417  0.7274  0.7183  0.4018
 9002TIP3    H251202   1.436   1.829   2.283  1.2970 -1.0933  1.1849
 9003TIP3   OH251203   1.273   2.506   1.014  0.2734  0.0814  0.3405
 9003TIP3    H151204   1.192   2.487   0.967 -0.3680  0.3813  1.2811
 9003TIP3    H251205   1.338   2.446   0.977 -0.2692  0.1405 -0.7196
 9004TIP3   OH251206   7.444   1.693   2.323  0.2783  0.6167 -0.3549
 9004TIP3    H151207   7.517   1.639   2.294  1.3930  0.0280  3.0882
 9004TIP3    H251208   7.370   1.633   2.327  0.0313  0.7620 -1.9641
 9005TIP3   OH251209   6.462   0.894   2.822 -0.1047 -0.6494 -0.2223
 9005TIP3    H151210   6.490   0.850   2.903 -1.4159  1.2299  1.3644
 9005TIP3    H251211   6.385   0.845   2.794  0.6990 -1.6717 -0.7141
 9006TIP3   OH251212   0.757   2.432   1.545  0.0099  0.0027 -0.0197
 9006TIP3    H151213   0.731   2.440   1.453  0.4391 -4.7191 -0.7846
 9006TIP3    H251214   0.849   2.457   1.547 -0.1483  0.6868 -0.6842
 9007TIP3   OH251215   4.154   6.070   0.719 -0.2729 -0.0965  0.5499
 9007TIP3    H151216   4.121   6.001   0.662 -0.1693 -0.8520  1.3826
 9007TIP3    H251217   4.110   6.149   0.689 -0.8922 -0.6388  0.0042
 9008TIP3   OH251218   3.412   3.360   2.045  0.1239  0.2265  0.4206
 9008TIP3    H151219   3.476   3.290   2.028 -0.5523 -0.5902  1.2079
 9008TIP3    H251220   3.465   3.433   2.078  0.8947  0.2869 -0.8590
 9009TIP3   OH251221   4.881   2.582   2.653 -0.3049  0.3062  1.2270
 9009TIP3    H151222   4.838   2.536   2.726  0.0909  0.6164  1.6611
 9009TIP3    H251223   4.809   2.614   2.599 -0.5959 -1.7206  0.3357
 9010TIP3   OH251224   1.253   1.379   2.680  0.3136 -0.0206 -0.0777
 9010TIP3    H151225   1.174   1.360   2.629  0.1603 -1.1716  0.5368
 9010TIP3    H251226   1.324   1.341   2.629  0.4660  0.9480 -0.5935
 9011TIP3   OH251227   0.974   4.005   1.521 -0.2114 -0.0854 -0.9132
 9011TIP3    H151228   0.915   3.936   1.490 -1.2268 -0.1549  1.0583
 9011TIP3    H251229   0.926   4.087   1.505 -1.9785 -0.2367  2.6838
 9012TIP3   OH251230   3.902   2.401   2.931  0.2166 -0.3080  0.2497
 9012TIP3    H151231   3.904   2.307   2.949 -0.4382  0.1061  3.0254
 9012TIP3    H251232   3.973   2.437   2.985 -1.1874  1.0045  1.3267
 9013TIP3   OH251233   7.054   5.764   2.644 -0.4739  0.4664  0.1701
 9013TIP3    H151234   7.089   5.822   2.576 -0.5672  0.1359 -0.1645
 9013TIP3    H251235   6.972   5.731   2.607 -0.2105 -0.2109  0.1765
 9014TIP3   OH251236   4.569   6.240   1.231 -0.1014  0.3018 -0.5345
 9014TIP3    H151237   4.488   6.289   1.220 -0.5731 -0.3055  0.1221
 9014TIP3    H251238   4.638   6.306   1.226 -0.4225  0.5394 -3.6212
 9015TIP3   OH251239   4.023   6.329   1.400 -0.1725 -0.2424 -0.1616
 9015TIP3    H151240   4.055   6.414   1.429 -3.0252  0.1585  2.3442
 9015TIP3    H251241   4.028   6.274   1.478 -2.7197 -0.9325 -0.4089
 9016TIP3   OH251242   3.842   2.908   1.355  0.0332 -0.2791  0.2270
 9016TIP3    H151243   3.810   2.876   1.271 -0.8106 -0.0851  0.4604
 9016TIP3    H251244   3.843   2.831   1.412  0.9468 -0.4822 -0.0486
 9017TIP3   OH251245   2.494   1.025   1.929  0.3168  0.2066  0.6806
 9017TIP3    H151246   2.583   1.023   1.893  0.6579  0.3504  1.4785
 9017TIP3    H251247   2.506   1.050   2.021 -0.5847  0.5730  0.7098
 9018TIP3   OH251248   4.072   5.621   1.456 -0.6303  0.3296  0.5145
 9018TIP3    H151249   4.042   5.712   1.452 -1.4907  0.0722  1.0269
 9018TIP3    H251250   4.050   5.592   1.544  1.9434  0.3802  1.2665
 9019TIP3   OH251251   1.595   0.397   2.560  0.1153 -0.4372 -0.0192
 9019TIP3    H151252   1.592   0.434   2.648 -0.0494 -0.0837 -0.1701
 9019TIP3    H251253   1.616   0.305   2.573 -2.1696 -0.9490  0.5471
 9020TIP3   OH251254   5.780   6.364   2.541  0.4262  0.0931 -0.4375
 9020TIP3    H151255   5.745   6.347   2.628 -0.5608 -0.7204 -0.9682
 9020TIP3    H251256   5.830   6.285   2.519  0.2979  0.1061 -0.7850
 9021TIP3   OH251257   7.464   1.837   2.726 -0.8053 -0.1360 -0.0965
 9021TIP3    H151258   7.537   1.822   2.787  1.5341  2.6653 -1.8997
 9021TIP3    H251259   7.386   1.832   2.780  0.9554 -0.0566  2.6628
 9022TIP3   OH251260   0.443   4.551   2.995  0.2728  0.4173 -0.0870
 9022TIP3    H151261   0.449   4.615   2.924  0.0507  1.0237  0.4303
 9022TIP3    H251262   0.401   4.475   2.955  1.4229  0.2161 -0.9601
 9023TIP3   OH251263   2.654   0.143   3.067 -0.1798 -0.3083 -0.0066
 9023TIP3    H151264   2.623   0.175   2.983 -0.8335  2.3617  1.1724
 9023TIP3    H251265   2.749   0.136   3.056 -0.1874  0.6299 -0.7669
 9024TIP3   OH251266   3.662   7.031   2.831  0.3847  0.2957  0.2424
 9024TIP3    H151267   3.606   7.102   2.864 -0.5947  0.2414 -1.2117
 9024TIP3    H251268   3.601   6.971   2.787  1.5329  0.0451 -1.0659
 9025TIP3   OH251269   0.906   6.791   2.089  0.0839  0.0189  0.1423
 9025TIP3    H151270   0.997   6.766   2.103  0.1788 -0.0915 -0.6226
 9025TIP3    H251271   0.910   6.866   2.030 -0.3665 -1.0831 -1.3635
 9026TIP3   OH251272   4.293   6.235   2.748  0.5146 -0.1801 -0.3080
 9026TIP3    H151273   4.358   6.190   2.694 -1.1644  0.0076 -2.6413
 9026TIP3    H251274   4.325   6.325   2.752  1.5601 -0.5707  0.5393
 9027TIP3   OH251275   4.504   3.834   1.661  0.2137 -0.1045  0.1943
 9027TIP3    H151276   4.443   3.798   1.597 -2.1860  2.3451  0.9135
 9027TIP3    H251277   4.554   3.900   1.613  1.5781 -1.3165 -0.1183
 9028TIP3   OH251278   6.473   1.312   0.818  0.1997  0.4204  0.8573
 9028TIP3    H151279   6.551   1.366   0.834  1.4969 -0.5721 -1.4882
 9028TIP3    H251280   6.508   1.223   0.812 -0.7123  0.1670 -2.3112
 9029TIP3   OH251281   0.982   7.420   2.557  0.1557  0.0002 -0.1424
 9029TIP3    H151282   0.982   7.515   2.566  0.9291  0.0849 -0.8888
 9029TIP3    H251283   1.075   7.396   2.560 -0.0974 -0.9275  1.8647
 9030TIP3   OH251284   1.346   6.251   0.805 -0.2531  0.5116  0.2089
 9030TIP3    H151285   1.372   6.341   0.785  1.0714  0.4747  1.5536
 9030TIP3    H251286   1.280   6.259   0.874 -1.4993  0.4929 -0.9555
 9031TIP3   OH251287   0.209   6.256   2.488  0.0268 -0.1153 -0.1579
 9031TIP3    H151288   0.202   6.193   2.560  2.5281 -1.2248 -0.7839
 9031TIP3    H251289   0.125   6.248   2.442 -1.4296  0.2268  2.2414
 9032TIP3   OH251290   4.361   0.303   1.175  0.9230 -0.2709 -0.0287
 9032TIP3    H151291   4.440   0.350   1.148  0.9051 -0.5142 -0.5180
 9032TIP3    H251292   4.328   0.352   1.250  1.5436 -0.1654  0.1843
 9033TIP3   OH251293   5.920   1.351   2.986  0.1301 -0.1162 -0.0140
 9033TIP3    H151294   6.009   1.383   2.999 -0.2225  0.6315  0.6577
 9033TIP3    H251295   5.885   1.407   2.917  0.4980 -1.0861 -1.0249
 9034TIP3   OH251296   0.596   6.853   3.234  0.2489 -0.1139  0.1234
 9034TIP3    H151297   0.620   6.822   3.321 -1.4306 -1.0881  0.2615
 9034TIP3    H251298   0.597   6.775   3.179 -0.5279  0.1802 -0.3238
 9035TIP3   OH251299   6.670   2.886   1.906  0.5324  0.0036 -0.3545
 9035TIP3    H151300   6.649   2.795   1.884 -1.9672  0.4341 -0.0419
 9035TIP3    H251301   6.681   2.885   2.001 -0.1620  0.1349 -0.2705
 9036TIP3   OH251302   2.424   1.784   1.900  0.2234 -0.0224  0.5119
 9036TIP3    H151303   2.463   1.772   1.813 -0.5346 -1.0769  0.2913
 9036TIP3    H251304   2.360   1.713   1.907  0.1788  0.1300  1.8843
 9037TIP3   OH251305   7.630   6.834   3.019  0.1215 -0.6112  0.5088
 9037TIP3    H151306   7.704   6.862   3.072 -1.5880 -0.0394  2.7309
 9037TIP3    H251307   7.630   6.894   2.944  2.3103 -1.1304  0.0254
 9038TIP3   OH251308   6.147   6.971   2.448  0.2433 -0.4367  0.0887
 9038TIP3    H151309   6.073   6.986   2.506 -1.9440  1.0970 -2.8748
 9038TIP3    H251310   6.146   6.876   2.431 -1.5813 -0.3323 -0.5191
 9039TIP3   OH251311   2.620   7.527   2.003 -0.7340  0.4865 -0.1115
 9039TIP3    H151312   2.571   7.495   2.079 -1.1309  3.3139  0.9589
 9039TIP3    H251313   2.710   7.498   2.019 -0.8636  0.8023  1.3356
 9040TIP3   OH251314   7.373   6.841   2.799  0.3324  0.8790 -0.5471
 9040TIP3    H151315   7.317   6.897   2.852  0.2955 -0.0262  0.4029
 9040TIP3    H251316   7.460   6.881   2.804  1.0234 -0.6822  2.6417
 9041TIP3   OH251317   3.435   4.141   1.761 -0.1703  0.6392 -0.3382
 9041TIP3    H151318   3.531   4.146   1.756 -0.0421 -1.7978 -2.7823
 9041TIP3    H251319   3.415   4.155   1.854  2.3072  3.3499 -0.0669
 9042TIP3   OH251320   2.882   5.536   1.493  0.9839 -0.8659  0.4264
 9042TIP3    H151321   2.839   5.602   1.548  0.9876 -0.7195  0.2535
 9042TIP3    H251322   2.846   5.551   1.405  0.0554 -1.8784  0.6099
 9043TIP3   OH251323   1.240   4.068   2.657  0.3449  0.3100 -0.0796
 9043TIP3    H151324   1.270   3.990   2.611  0.0557  0.7122 -0.9808
 9043TIP3    H251325   1.279   4.141   2.607 -0.0821  0.7583  0.2289
 9044TIP3   OH251326   7.023   3.369   0.736 -0.6197 -0.3793 -0.5151
 9044TIP3    H151327   6.982   3.309   0.674 -0.2980 -0.5058 -0.6049
 9044TIP3    H251328   7.057   3.312   0.806 -2.9534 -0.1111  0.9682
 9045TIP3   OH251329   6.622   6.106   2.423 -0.0758 -0.3508 -0.3558
 9045TIP3    H151330   6.546   6.088   2.480  1.0112 -1.1926  0.8937
 9045TIP3    H251331   6.602   6.059   2.342 -0.8471 -0.6539 -0.0103
 9046TIP3   OH251332   5.413   4.936   0.888  0.2300 -0.5560  0.2592
 9046TIP3    H151333   5.410   5.010   0.827  1.0996 -0.2347  0.5927
 9046TIP3    H251334   5.411   4.976   0.975  1.9416 -0.8380  0.4524
 9047TIP3   OH251335   0.121   4.801   1.559 -0.2507  0.0991  0.0877
 9047TIP3    H151336   0.076   4.722   1.587 -0.5585  0.4129  0.5047
 9047TIP3    H251337   0.124   4.796   1.464  0.2108 -0.6717  0.1390
 9048TIP3   OH251338   6.298   5.351   1.879 -0.2541 -0.3960 -0.0056
 9048TIP3    H151339   6.264   5.423   1.931  1.6990 -0.2703  1.2303
 9048TIP3    H251340   6.278   5.272   1.930 -0.9966 -0.5974 -0.5837
 9049TIP3   OH251341   1.967   5.530   1.359 -0.6158 -0.0656 -0.3194
 9049TIP3    H151342   2.023   5.547   1.434 -2.3734  0.3290  0.9748
 9049TIP3    H251343   1.919   5.612   1.346 -0.6321 -0.2547 -1.6395
 9050TIP3   OH251344   4.467   7.156   0.935  0.1475 -0.1922 -0.3813
 9050TIP3    H151345   4.496   7.145   1.025 -0.1184 -1.6402 -0.4427
 9050TIP3    H251346   4.374   7.135   0.937  0.0132  0.3163 -0.9028
 9051TIP3   OH251347   6.968   6.902   1.844 -0.0075 -0.5309  0.1531
 9051TIP3    H151348   6.943   6.902   1.936  1.4641  0.1329  0.5669
 9051TIP3    H251349   6.926   6.980   1.807 -1.9407 -1.6503 -0.1603
 9052TIP3   OH251350   6.918   4.026   1.131  0.2518 -0.2215  0.8305
 9052TIP3    H151351   6.900   3.999   1.221 -0.9671 -1.5408  0.2256
 9052TIP3    H251352   6.863   4.103   1.117  2.1247  1.3883  1.8816
 9053TIP3   OH251353   6.796   6.471   3.564  0.4330 -0.1166  0.3590
 9053TIP3    H151354   6.877   6.505   3.524  0.8103 -0.3325  0.9234
 9053TIP3    H251355   6.749   6.549   3.592  1.0975 -0.0307  1.2684
 9054TIP3   OH251356   0.433   7.488   1.741 -0.1086  0.3290 -0.1891
 9054TIP3    H151357   0.393   7.414   1.695  1.2556  1.3068 -3.1745
 9054TIP3    H251358   0.360   7.533   1.782 -1.2925 -1.1597 -0.5662
 9055TIP3   OH251359   6.697   4.849   1.226 -0.2114 -0.2046  0.1007
 9055TIP3    H151360   6.781   4.892   1.211 -0.4945  0.1206 -0.5377
 9055TIP3    H251361   6.667   4.884   1.310 -0.4611  0.8793 -0.4293
 9056TIP3   OH251362   7.634   6.224   2.372 -0.2125 -0.2825 -0.1508
 9056TIP3    H151363   7.574   6.149   2.370  0.2101 -0.6016 -1.6887
 9056TIP3    H251364   7.676   6.224   2.286  2.0697 -0.1194  0.8883
 9057TIP3   OH251365   0.685   6.643   1.627 -0.6108  0.0345  0.2319
 9057TIP3    H151366   0.614   6.698   1.595  0.3713  0.2340 -1.7701
 9057TIP3    H251367   0.681   6.651   1.722 -1.1072  2.8207  0.0576
 9058TIP3   OH251368   5.095   2.271   1.123 -0.5846  0.2914 -0.1980
 9058TIP3    H151369   5.047   2.353   1.125 -0.2595  0.4745  0.4472
 9058TIP3    H251370   5.106   2.247   1.215  1.1894  0.6461 -0.2752
 9059TIP3   OH251371   7.048   2.162   1.147  0.2338  0.1450 -0.2093
 9059TIP3    H151372   7.007   2.239   1.186 -2.4482 -1.3928  0.2671
 9059TIP3    H251373   7.041   2.177   1.052  3.1770  2.0817 -0.2530
 9060TIP3   OH251374   7.453   5.514   2.077 -0.2997 -0.2485 -0.4852
 9060TIP3    H151375   7.456   5.444   2.141  1.4199 -0.3925 -0.6995
 9060TIP3    H251376   7.523   5.494   2.015  0.2673  1.6634 -0.5218
 9061TIP3   OH251377   3.635   2.451   2.085  0.4059  0.1054 -0.6899
 9061TIP3    H151378   3.648   2.493   2.170 -2.6528 -0.9664  0.4523
 9061TIP3    H251379   3.600   2.520   2.030 -0.2532  0.1682 -0.2067
 9062TIP3   OH251380   2.748   6.408   0.822  0.0550 -0.3122 -0.1954
 9062TIP3    H151381   2.794   6.429   0.741 -0.8868  1.0629 -0.3971
 9062TIP3    H251382   2.762   6.484   0.879  0.8518 -1.3271  1.0400
 9063TIP3   OH251383   6.998   1.828   1.137 -0.2438  0.3749 -0.5332
 9063TIP3    H151384   6.946   1.794   1.210  0.4492  0.4903  0.0233
 9063TIP3    H251385   7.085   1.842   1.174  0.3471 -0.3482 -1.5772
 9064TIP3   OH251386   7.281   1.590   1.785  0.2989  0.5779  0.1513
 9064TIP3    H151387   7.198   1.543   1.789 -0.9065  2.6457  1.6738
 9064TIP3    H251388   7.327   1.565   1.865  0.4916  0.5608  0.0364
 9065TIP3   OH251389   3.909   0.745   0.502  0.3904 -0.1938 -0.1922
 9065TIP3    H151390   3.974   0.681   0.474  1.1240  0.0867  0.8028
 9065TIP3    H251391   3.954   0.829   0.495 -0.3772  0.1664 -0.9388
 9066TIP3   OH251392   4.022   5.201   2.324  0.6558  0.2504  0.5769
 9066TIP3    H151393   4.044   5.243   2.241 -0.0591 -0.5522 -0.0327
 9066TIP3    H251394   4.037   5.269   2.389  1.5460  0.7887 -0.1693
 9067TIP3   OH251395   5.094   6.774   2.460 -0.2248 -0.2774  0.5273
 9067TIP3    H151396   5.086   6.747   2.369  0.2393 -0.1614  0.4508
 9067TIP3    H251397   5.098   6.870   2.456  3.0785 -0.2925  0.3610
 9068TIP3   OH251398   7.504   2.763   2.074  0.3603 -0.1099  0.2428
 9068TIP3    H151399   7.514   2.826   2.003  0.8147 -0.6924 -0.2243
 9068TIP3    H251400   7.590   2.762   2.117  0.2271 -0.1019  0.5086
 9069TIP3   OH251401   1.684   6.259   0.995  0.2851 -0.1249  0.0350
 9069TIP3    H151402   1.615   6.211   0.950 -2.2188  1.1611  2.2127
 9069TIP3    H251403   1.679   6.229   1.085  1.2048  1.4519  0.6536
 9070TIP3   OH251404   0.940   0.537   2.382  0.3879 -0.0058  0.4114
 9070TIP3    H151405   0.931   0.627   2.411 -0.3279  0.8271 -2.1028
 9070TIP3    H251406   0.897   0.485   2.450  0.0668  1.6184  1.4884
 9071TIP3   OH251407   3.753   4.256   1.844  0.8247 -0.3200 -0.1974
 9071TIP3    H151408   3.830   4.206   1.820  0.6359  0.0285 -1.5835
 9071TIP3    H251409   3.777   4.347   1.829  1.1344  0.0662  2.2164
 9072TIP3   OH251410   6.298   2.131   1.011 -0.8294 -0.2628  0.2842
 9072TIP3    H151411   6.390   2.115   0.990 -0.6133 -1.3581  1.8759
 9072TIP3    H251412   6.251   2.059   0.968 -0.7286 -0.6919  0.8689
 9073TIP3   OH251413   6.791   0.880   0.480  0.2091 -0.0811 -0.1094
 9073TIP3    H151414   6.813   0.816   0.413 -0.2791 -0.1466 -0.2100
 9073TIP3    H251415   6.870   0.887   0.534 -0.0558 -1.5110  0.5150
 9074TIP3   OH251416   4.478   2.227   2.984 -0.0976 -0.2250  0.4198
 9074TIP3    H151417   4.452   2.153   2.929  1.1669 -0.3247 -0.0677
 9074TIP3    H251418   4.561   2.200   3.023  0.7220  1.1781 -0.2866
 9075TIP3   OH251419   2.260   5.579   3.177 -0.2330  0.2129 -0.2508
 9075TIP3    H151420   2.337   5.581   3.120 -1.2570 -0.0890 -1.6882
 9075TIP3    H251421   2.290   5.534   3.256  1.7606  2.3567  0.3385
 9076TIP3   OH251422   1.321   5.505   2.382  0.1742 -0.2622  0.1486
 9076TIP3    H151423   1.410   5.468   2.377  0.4675  0.0081  2.4111
 9076TIP3    H251424   1.264   5.429   2.395 -0.1140 -0.5385 -2.2096
 9077TIP3   OH251425   0.215   1.075   2.729 -0.0383 -0.6554 -0.1543
 9077TIP3    H151426   0.190   1.144   2.791 -1.3896 -0.5966 -0.7273
 9077TIP3    H251427   0.283   1.115   2.675  1.9056 -1.0347  1.8754
 9078TIP3   OH251428   1.418   4.349   1.719 -0.4291 -0.4094  1.1280
 9078TIP3    H151429   1.466   4.421   1.679 -0.9273 -0.7429 -0.1307
 9078TIP3    H251430   1.440   4.354   1.812 -0.0637  1.0467  0.9879
 9079TIP3   OH251431   4.189   0.434   2.361  0.2423 -1.1228 -0.3707
 9079TIP3    H151432   4.138   0.500   2.407  0.7177 -1.1790  0.2608
 9079TIP3    H251433   4.268   0.424   2.414  0.1849 -2.1789 -0.4622
 9080TIP3   OH251434   5.684   5.872   2.855 -0.0552 -0.0174 -0.2619
 9080TIP3    H151435   5.667   5.779   2.839 -1.1240 -0.9030  4.3509
 9080TIP3    H251436   5.599   5.907   2.883  1.0863  1.2185  1.9505
 9081TIP3   OH251437   3.873   0.587   1.868  0.8848 -0.1571 -0.2960
 9081TIP3    H151438   3.820   0.592   1.948 -0.9507  1.9243 -1.5180
 9081TIP3    H251439   3.809   0.579   1.797  2.2694  0.8256 -1.7289
 9082TIP3   OH251440   3.306   0.691   1.455 -0.3730  0.5128  0.1587
 9082TIP3    H151441   3.237   0.633   1.422 -0.0620 -0.1761  0.6848
 9082TIP3    H251442   3.315   0.757   1.387 -1.1757  0.3082 -0.1716
 9083TIP3   OH251443   4.941   6.634   1.533  0.0332 -0.1788  0.3094
 9083TIP3    H151444   4.927   6.726   1.557  2.3876 -0.1660  2.0200
 9083TIP3    H251445   4.905   6.626   1.445 -1.5358  1.9919  0.6695
 9084TIP3   OH251446   5.170   5.262   1.179 -0.6029  0.2325 -0.2458
 9084TIP3    H151447   5.075   5.255   1.184 -0.5957 -0.4487 -0.8166
 9084TIP3    H251448   5.187   5.309   1.097 -0.4441  0.0503 -0.3203
 9085TIP3   OH251449   4.777   4.277   0.873  0.5787 -0.5329  0.5313
 9085TIP3    H151450   4.852   4.249   0.926  0.4312 -0.9649  0.5214
 9085TIP3    H251451   4.712   4.208   0.887  0.5679 -0.6996 -0.2795
 9086TIP3   OH251452   4.453   1.147   2.902  0.0365  0.2648  0.2202
 9086TIP3    H151453   4.474   1.115   2.814 -0.5149  1.8165 -0.5286
 9086TIP3    H251454   4.518   1.215   2.918 -2.1125  2.7087 -0.6846
 9087TIP3   OH251455   3.570   1.333   1.516 -0.1630 -0.1932 -0.1050
 9087TIP3    H151456   3.616   1.348   1.433 -2.0942 -0.3007 -1.2558
 9087TIP3    H251457   3.517   1.412   1.528 -0.6124 -0.5858  0.5350
 9088TIP3   OH251458   1.959   6.460   2.476  0.3267 -0.1637  0.3912
 9088TIP3    H151459   2.015   6.386   2.501  3.1189  1.0749 -1.7202
 9088TIP3    H251460   1.990   6.533   2.529 -1.2974 -0.0409  1.2494
 9089TIP3   OH251461   3.953   2.719   2.613 -0.9083 -0.0564  0.1802
 9089TIP3    H151462   3.924   2.629   2.598 -1.8043  0.4578 -1.3843
 9089TIP3    H251463   3.921   2.740   2.701 -1.4938 -0.9579  0.1969
 9090TIP3   OH251464   6.437   4.936   1.840  0.1438 -0.0890 -0.1098
 9090TIP3    H151465   6.344   4.961   1.846  0.4735  2.1053 -2.4466
 9090TIP3    H251466   6.439   4.867   1.775  0.2972  1.3466 -1.6947
 9091TIP3   OH251467   3.304   0.126   0.797 -0.1949 -0.4233 -0.3007
 9091TIP3    H151468   3.361   0.200   0.775 -0.9566  0.2800  0.0358
 9091TIP3    H251469   3.291   0.134   0.892 -1.8746  0.1916 -0.5530
 9092TIP3   OH251470   7.191   3.914   1.561 -0.0219  0.3392  0.3047
 9092TIP3    H151471   7.230   3.949   1.481  0.3030  0.0835  0.3497
 9092TIP3    H251472   7.099   3.939   1.556  0.2850  1.6032  0.5523
 9093TIP3   OH251473   2.456   0.901   2.942 -0.1085  0.0827  0.2492
 9093TIP3    H151474   2.390   0.852   2.990  1.9802 -1.4221  1.7517
 9093TIP3    H251475   2.528   0.913   3.004  1.4746  0.7344 -1.6016
 9094TIP3   OH251476   4.683   4.671   2.592  0.0863  0.3353 -0.3851
 9094TIP3    H151477   4.613   4.621   2.633 -0.4728 -2.1921 -3.9670
 9094TIP3    H251478   4.761   4.618   2.605  0.5281  1.0513 -0.0155
 9095TIP3   OH251479   4.080   5.023   2.936 -0.3044  0.0407  0.0475
 9095TIP3    H151480   4.043   4.941   2.904  0.4291 -0.1000 -0.4588
 9095TIP3    H251481   4.105   5.004   3.027  0.2167 -0.4283 -0.1842
 9096TIP3   OH251482   7.464   0.416   1.729 -0.1591  0.7137  0.1889
 9096TIP3    H151483   7.432   0.345   1.784  1.9241  1.0917  2.0504
 9096TIP3    H251484   7.492   0.373   1.648 -0.6030 -0.3152  0.5679
 9097TIP3   OH251485   1.867   6.259   0.613  0.0730 -0.2888  0.5184
 9097TIP3    H151486   1.820   6.305   0.682  0.4799  1.3301 -0.2283
 9097TIP3    H251487   1.834   6.297   0.532  0.2974 -1.4693 -0.1438
 9098TIP3   OH251488   7.640   7.164   1.311 -0.0764 -0.1046 -0.3259
 9098TIP3    H151489   7.734   7.153   1.300  0.0441  1.0412 -0.5287
 9098TIP3    H251490   7.603   7.140   1.226  0.0292 -0.5003 -0.2624
 9099TIP3   OH251491   2.130   3.576   1.921  0.2661 -0.4883  0.5687
 9099TIP3    H151492   2.154   3.606   1.833  1.3409 -2.5338  0.1024
 9099TIP3    H251493   2.036   3.589   1.926  0.4522  1.5005 -0.1030
 9100TIP3   OH251494   1.284   1.635   1.427 -0.2269 -0.0836 -0.1334
 9100TIP3    H151495   1.287   1.539   1.417  0.0643 -0.0845 -0.0380
 9100TIP3    H251496   1.374   1.663   1.414 -0.6993  0.4581 -2.7700
 9101TIP3   OH251497   3.600   3.293   1.121  0.1235  0.6610 -0.5222
 9101TIP3    H151498   3.611   3.336   1.037  1.3080  0.3979 -0.5211
 9101TIP3    H251499   3.595   3.365   1.184 -0.2932  0.8444 -0.7572
 9102TIP3   OH251500   5.752   7.010   3.156  0.1185  0.2214  0.5163
 9102TIP3    H151501   5.692   6.951   3.203  0.0072 -0.4660 -0.4515
 9102TIP3    H251502   5.839   6.975   3.177  0.1041  0.3057  0.7214
 9103TIP3   OH251503   1.069   4.164   0.717 -0.1836 -0.1599 -0.3409
 9103TIP3    H151504   1.101   4.080   0.684  2.3594  0.1575  1.0439
 9103TIP3    H251505   1.020   4.143   0.796  4.6993 -0.3223  3.0926
 9104TIP3   OH251506   6.266   3.818   1.616 -0.1773  0.5387 -0.2767
 9104TIP3    H151507   6.182   3.794   1.578 -0.5095 -0.1279  0.8214
 9104TIP3    H251508   6.275   3.912   1.600 -2.6810  1.3606  2.3923
 9105TIP3   OH251509   4.476   7.411   2.033  0.1076 -0.5236  0.2104
 9105TIP3    H151510   4.499   7.377   2.119  1.6551  1.3235  0.5903
 9105TIP3    H251511   4.398   7.464   2.048 -0.0691 -0.8181  0.3327
 9106TIP3   OH251512   1.143   5.135   3.287  0.2135 -0.3460  0.1964
 9106TIP3    H151513   1.126   5.047   3.318  1.1289 -0.1533  1.3230
 9106TIP3    H251514   1.058   5.178   3.286  0.0063 -0.6870  1.4598
 9107TIP3   OH251515   0.725   1.272   2.430 -0.3642 -0.0469 -0.1659
 9107TIP3    H151516   0.800   1.329   2.410  0.4581 -1.0203  0.0576
 9107TIP3    H251517   0.683   1.257   2.345  0.4244 -0.4890 -0.4824
 9108TIP3   OH251518   6.554   1.779   2.383 -0.0032  0.4928 -0.3469
 9108TIP3    H151519   6.512   1.720   2.320  0.7143 -0.1996 -0.2099
 9108TIP3    H251520   6.611   1.721   2.434  0.6833  1.3030 -0.1702
 9109TIP3   OH251521   4.218   5.105   2.069  0.2565 -0.3979 -0.5656
 9109TIP3    H151522   4.231   5.087   1.976  0.2036 -2.6288 -0.1879
 9109TIP3    H251523   4.159   5.180   2.071 -2.5873 -2.4180 -2.3914
 9110TIP3   OH251524   3.088   3.684   1.990 -0.7616  0.1009  0.1190
 9110TIP3    H151525   3.183   3.683   2.003 -0.6891 -0.6963 -0.4314
 9110TIP3    H251526   3.058   3.757   2.044 -0.2422 -1.6532  2.9816
 9111TIP3   OH251527   6.084   4.235   1.640  0.0453 -0.4248 -0.0227
 9111TIP3    H151528   5.999   4.276   1.658 -0.1995 -1.4532  1.3769
 9111TIP3    H251529   6.140   4.307   1.610 -1.0496  0.4473 -0.0196
 9112TIP3   OH251530   6.764   5.771   0.855  0.1068 -0.2388  0.1290
 9112TIP3    H151531   6.812   5.851   0.876  0.3735 -0.7817  1.7690
 9112TIP3    H251532   6.831   5.702   0.855 -0.2439 -0.5888 -0.4169
 9113TIP3   OH251533   6.106   3.328   2.304  0.2446 -0.3080  0.4310
 9113TIP3    H151534   6.069   3.308   2.390  1.6589 -1.2745  0.8653
 9113TIP3    H251535   6.173   3.260   2.291  0.2519 -0.0128 -1.3105
 9114TIP3   OH251536   4.980   0.995   0.763 -0.6956 -0.1951  0.3493
 9114TIP3    H151537   5.011   1.085   0.748 -0.7519 -0.2154  0.1057
 9114TIP3    H251538   4.965   0.990   0.857 -0.9656  0.1376  0.3257
 9115TIP3   OH251539   1.194   0.516   1.710 -0.0972  0.0519  0.5387
 9115TIP3    H151540   1.252   0.492   1.639  0.7211 -0.9050  1.4938
 9115TIP3    H251541   1.241   0.584   1.758 -0.1832 -0.0372  0.7537
 9116TIP3   OH251542   3.711   0.735   1.214  0.8651  0.1980 -0.1667
 9116TIP3    H151543   3.717   0.811   1.271  1.1856  0.3887 -0.4522
 9116TIP3    H251544   3.687   0.771   1.128  0.4321 -0.0811 -0.1657
 9117TIP3   OH251545   2.041   2.685   2.433 -0.3678 -0.1865  0.1955
 9117TIP3    H151546   2.102   2.627   2.479 -0.1204 -0.8527 -0.9453
 9117TIP3    H251547   2.087   2.769   2.429  1.0723 -0.9922 -1.7567
 9118TIP3   OH251548   5.316   4.718   0.506  0.2295  0.5094 -0.5635
 9118TIP3    H151549   5.263   4.644   0.476 -1.4875  1.1381  0.7499
 9118TIP3    H251550   5.262   4.795   0.490  1.0396  1.2541  0.1535
 9119TIP3   OH251551   7.053   5.078   0.691  0.7901 -0.1510  0.0578
 9119TIP3    H151552   7.024   5.141   0.625  0.4275 -1.7867 -1.3991
 9119TIP3    H251553   6.991   5.006   0.684  1.7929 -1.1308  0.9762
 9120TIP3   OH251554   6.200   1.552   1.142 -0.4335  0.2597  0.1081
 9120TIP3    H151555   6.260   1.507   1.202 -1.0613 -0.0710  0.5087
 9120TIP3    H251556   6.143   1.482   1.109 -0.6884  0.5887 -0.1514
 9121TIP3   OH251557   4.995   3.136   0.693 -0.5027 -0.1326  0.7780
 9121TIP3    H151558   4.947   3.198   0.638  0.1110  0.5293  0.9728
 9121TIP3    H251559   4.936   3.119   0.766 -0.3832  0.8308  1.1210
 9122TIP3   OH251560   3.972   5.975   2.653 -0.2120  0.1173  0.0913
 9122TIP3    H151561   3.904   5.918   2.617  1.1025 -1.9521  0.6521
 9122TIP3    H251562   3.925   6.044   2.699 -1.9030 -0.4569 -0.7060
 9123TIP3   OH251563   0.759   0.192   0.681  0.2192 -0.5057  0.2954
 9123TIP3    H151564   0.703   0.235   0.618  1.0370  1.0614  0.5915
 9123TIP3    H251565   0.707   0.118   0.714 -0.5654 -0.7829 -1.4700
 9124TIP3   OH251566   7.518   2.454   1.912  0.7287  0.5061 -0.3830
 9124TIP3    H151567   7.524   2.413   1.826 -0.5489  0.1148 -0.3003
 9124TIP3    H251568   7.592   2.515   1.915  0.4866  0.9103 -1.9601
 9125TIP3   OH251569   6.601   3.591   1.948 -0.5656 -0.3186 -0.2194
 9125TIP3    H151570   6.571   3.611   2.037  0.7857 -1.5308  0.5526
 9125TIP3    H251571   6.538   3.636   1.891 -1.1389  0.9701  1.3366
 9126TIP3   OH251572   5.439   5.997   2.919 -0.5465 -0.6638 -0.5749
 9126TIP3    H151573   5.373   6.066   2.922 -2.0371 -1.9390 -1.9815
 9126TIP3    H251574   5.435   5.957   3.006 -0.3885  0.3419 -0.0907
 9127TIP3   OH251575   6.628   4.288   1.872  0.0813  0.0684  0.3119
 9127TIP3    H151576   6.553   4.268   1.816 -0.3454 -1.2307  1.2889
 9127TIP3    H251577   6.657   4.375   1.844 -1.3673  0.3100 -0.5283
 9128TIP3   OH251578   1.333   5.883   1.117 -0.1742 -0.5702  0.1302
 9128TIP3    H151579   1.349   5.953   1.180 -0.6492  0.7135 -1.1284
 9128TIP3    H251580   1.246   5.849   1.141  1.1991 -2.7245  2.5082
 9129TIP3   OH251581   3.824   5.893   1.226 -0.3093  0.0243 -0.3772
 9129TIP3    H151582   3.888   5.875   1.157 -1.1915 -2.0896 -0.7418
 9129TIP3    H251583   3.777   5.971   1.195  2.2940  1.9133  0.1338
 9130TIP3   OH251584   2.272   3.713   0.799  0.0924  0.2337  0.2514
 9130TIP3    H151585   2.180   3.705   0.772 -0.8899 -1.6634  3.5755
 9130TIP3    H251586   2.267   3.739   0.890  2.9550  1.0072  0.2558
 9131TIP3   OH251587   5.382   2.236   1.690 -0.1082 -0.4763 -0.7161
 9131TIP3    H151588   5.456   2.296   1.683  0.1668 -0.8738 -1.3318
 9131TIP3    H251589   5.379   2.192   1.605 -0.4451 -1.1662 -0.3579
 9132TIP3   OH251590   1.290   4.172   0.501  0.3486 -0.5709 -0.7938
 9132TIP3    H151591   1.205   4.131   0.517  0.9262 -1.2921  0.6482
 9132TIP3    H251592   1.336   4.111   0.443  0.5643 -1.1473 -0.0387
 9133TIP3   OH251593   0.451   2.644   3.289  0.1246 -0.2613  0.0587
 9133TIP3    H151594   0.444   2.696   3.209  0.6875 -0.7174 -0.2912
 9133TIP3    H251595   0.361   2.638   3.321 -0.0184  0.4955 -0.1667
 9134TIP3   OH251596   2.850   1.793   2.299 -0.1044 -0.2819  0.3297
 9134TIP3    H151597   2.774   1.835   2.339 -0.0641 -0.3882  0.5220
 9134TIP3    H251598   2.913   1.784   2.371  0.1535 -0.0444  0.1343
 9135TIP3   OH251599   5.577   6.784   1.995 -0.2746 -0.2616 -0.1893
 9135TIP3    H151600   5.521   6.727   2.048  0.1563 -0.2055  0.3320
 9135TIP3    H251601   5.517   6.825   1.933 -0.6468 -1.0078 -0.3360
 9136TIP3   OH251602   7.225   4.453   1.225 -0.1631  0.2697 -0.2524
 9136TIP3    H151603   7.132   4.462   1.206  0.1311  0.7436 -1.5008
 9136TIP3    H251604   7.270   4.502   1.156  1.0476 -0.7468 -0.2340
 9137TIP3   OH251605   1.485   5.370   1.794 -0.5246 -0.1567 -0.0896
 9137TIP3    H151606   1.532   5.453   1.803 -1.1077  0.3376 -1.3062
 9137TIP3    H251607   1.448   5.353   1.881 -0.5257  0.9336  0.1346
 9138TIP3   OH251608   3.430   0.095   2.930 -0.0908  0.2933 -0.6164
 9138TIP3    H151609   3.345   0.137   2.946 -0.0080 -0.1604  1.2208
 9138TIP3    H251610   3.492   0.145   2.982  0.0604 -1.7494  1.3585
 9139TIP3   OH251611   1.330   1.565   2.400 -0.8189 -0.2126  0.7861
 9139TIP3    H151612   1.266   1.500   2.428  1.3546 -2.1603  1.5131
 9139TIP3    H251613   1.372   1.595   2.481 -0.7392  0.9908  0.3258
 9140TIP3   OH251614   5.107   6.449   1.928 -0.0308  0.5411  0.1620
 9140TIP3    H151615   5.167   6.510   1.972  3.3588 -1.5406 -1.1377
 9140TIP3    H251616   5.085   6.492   1.846 -1.2200  1.7527  1.0715
 9141TIP3   OH251617   3.017   6.516   1.819 -0.8645 -0.2038  0.1709
 9141TIP3    H151618   2.947   6.472   1.868  0.4231  0.1176  2.4361
 9141TIP3    H251619   3.097   6.471   1.847  0.2109  1.8567  0.5436
 9142TIP3   OH251620   3.257   4.591   2.515 -0.5315 -0.1554 -0.0606
 9142TIP3    H151621   3.329   4.654   2.513 -1.1172  0.7714  2.8716
 9142TIP3    H251622   3.190   4.628   2.457 -0.3138  1.2212  0.5414
 9143TIP3   OH251623   7.586   3.036   0.990 -0.0912 -0.4226 -0.4034
 9143TIP3    H151624   7.530   3.023   0.913  1.0566  0.0115 -1.3382
 9143TIP3    H251625   7.579   2.954   1.038 -0.0262 -1.1039 -1.5148
 9144TIP3   OH251626   3.459   3.045   0.986 -0.1262  0.6209  0.0829
 9144TIP3    H151627   3.516   3.110   1.026 -0.3119  0.6293  0.3334
 9144TIP3    H251628   3.373   3.060   1.024 -0.2275  0.3962 -0.0492
 9145TIP3   OH251629   2.730   7.063   1.003  0.1949  0.3235  0.6245
 9145TIP3    H151630   2.649   7.012   1.005  0.1182  0.4514  2.3722
 9145TIP3    H251631   2.789   7.013   0.947 -1.2046  0.4391 -1.0315
 9146TIP3   OH251632   1.454   2.502   1.562 -0.2384 -0.0756  0.0120
 9146TIP3    H151633   1.502   2.428   1.526  0.3106  1.2127 -2.0345
 9146TIP3    H251634   1.521   2.556   1.604 -0.1629  0.7117 -1.0866
 9147TIP3   OH251635   1.647   5.070   0.678  0.0430 -0.2090  0.2182
 9147TIP3    H151636   1.617   5.004   0.741  0.7582  1.1441  2.0849
 9147TIP3    H251637   1.742   5.071   0.688  0.0238  1.2586  0.4112
 9148TIP3   OH251638   6.876   6.904   0.877 -0.2965 -0.1868  0.3853
 9148TIP3    H151639   6.855   6.982   0.929  1.5073  0.9805 -0.5194
 9148TIP3    H251640   6.927   6.849   0.937  1.2901  0.8972  0.1062
 9149TIP3   OH251641   2.623   6.987   2.507 -0.5667  0.0286 -0.3749
 9149TIP3    H151642   2.551   7.036   2.547 -0.1933  0.4703 -0.2256
 9149TIP3    H251643   2.584   6.944   2.431 -1.0842 -0.0978 -0.0418
 9150TIP3   OH251644   7.459   1.126   2.827  0.2805 -0.1219  0.2949
 9150TIP3    H151645   7.417   1.154   2.908  1.4497  2.8792  0.0110
 9150TIP3    H251646   7.548   1.101   2.852 -0.2491 -2.1794  0.2912
 9151TIP3   OH251647   0.799   0.628   1.096  0.2549 -0.3972 -0.1762
 9151TIP3    H151648   0.857   0.575   1.151  0.9298 -1.6889 -2.0515
 9151TIP3    H251649   0.711   0.596   1.117  0.6870 -2.8811 -1.7703
 9152TIP3   OH251650   1.878   4.740   0.651  0.0762 -0.2049  0.3104
 9152TIP3    H151651   1.900   4.798   0.577 -1.9465  0.8980  0.5110
 9152TIP3    H251652   1.782   4.741   0.654  0.0998 -0.8649  2.4695
 9153TIP3   OH251653   0.331   4.476   1.813  0.2023 -0.7325  0.2491
 9153TIP3    H151654   0.289   4.453   1.730  0.4908  0.6520 -0.2990
 9153TIP3    H251655   0.422   4.449   1.802  0.1488 -0.9283  0.2787
 9154TIP3   OH251656   4.739   6.465   0.531  0.1512 -0.1357  0.0660
 9154TIP3    H151657   4.789   6.412   0.594 -0.4609 -0.8504 -0.0343
 9154TIP3    H251658   4.649   6.461   0.562 -0.3883 -1.5448 -1.5175
 9155TIP3   OH251659   2.698   3.157   2.594  0.6239 -0.4098  0.3846
 9155TIP3    H151660   2.758   3.173   2.667 -0.7858  0.8949  1.3236
 9155TIP3    H251661   2.636   3.091   2.627  0.6899 -0.6999 -0.0632
 9156TIP3   OH251662   6.866   6.128   0.495 -0.2846  0.0192  0.2758
 9156TIP3    H151663   6.956   6.118   0.525 -0.3613  0.2112  0.5723
 9156TIP3    H251664   6.873   6.152   0.403 -0.0361 -0.0873  0.2677
 9157TIP3   OH251665   6.299   7.430   3.073 -0.1730 -0.3325 -0.5730
 9157TIP3    H151666   6.358   7.354   3.067 -0.2029 -0.3379 -0.7881
 9157TIP3    H251667   6.335   7.481   3.146 -0.2572 -0.6431 -0.3088
 9158TIP3   OH251668   6.450   3.304   2.176 -0.1500  0.1500  0.2017
 9158TIP3    H151669   6.476   3.317   2.268  1.8204 -0.3857 -0.2267
 9158TIP3    H251670   6.439   3.209   2.167  1.5320 -0.0131 -0.5248
 9159TIP3   OH251671   1.559   2.910   2.439  0.1598  0.0092 -0.1347
 9159TIP3    H151672   1.516   2.979   2.388  1.5536 -1.2198 -3.2628
 9159TIP3    H251673   1.652   2.924   2.423  0.6275 -0.8113  1.7090
 9160TIP3   OH251674   0.728   0.766   1.722  0.0258  0.4749  0.3127
 9160TIP3    H151675   0.756   0.675   1.719  0.9210  0.7501  0.0982
 9160TIP3    H251676   0.731   0.795   1.631 -1.4433  0.3849  0.2005
 9161TIP3   OH251677   6.843   7.208   3.249  0.2609  0.0379  0.2734
 9161TIP3    H151678   6.911   7.194   3.183 -1.6286 -0.1945 -1.7412
 9161TIP3    H251679   6.778   7.140   3.231  0.8769 -1.9211  4.2600
 9162TIP3   OH251680   2.027   2.169   1.352  0.2431 -0.1048  0.4328
 9162TIP3    H151681   2.003   2.182   1.260 -0.7802 -1.1606  0.5280
 9162TIP3    H251682   2.029   2.258   1.389  1.9295  0.4649 -0.8668
 9163TIP3   OH251683   1.284   6.560   1.300  0.4163 -0.0546  0.0773
 9163TIP3    H151684   1.357   6.576   1.360  0.4537 -1.0791  0.3250
 9163TIP3    H251685   1.324   6.524   1.221  0.2670  0.3104 -0.1691
 9164TIP3   OH251686   5.489   0.374   1.027 -0.1038 -0.3635  0.0516
 9164TIP3    H151687   5.517   0.356   0.937  0.7625 -1.3666  0.4992
 9164TIP3    H251688   5.552   0.326   1.082  0.4398  1.6277  1.2532
 9165TIP3   OH251689   0.660   0.865   2.114  0.1018  0.3138  0.1734
 9165TIP3    H151690   0.732   0.922   2.142  2.6150 -2.2000 -0.6563
 9165TIP3    H251691   0.667   0.862   2.019 -0.7850 -0.3839  0.1143
 9166TIP3   OH251692   0.505   5.533   1.410  0.0102 -0.0633 -0.5040
 9166TIP3    H151693   0.487   5.573   1.496  1.0499  0.4595 -0.5032
 9166TIP3    H251694   0.420   5.525   1.369 -0.9258 -3.0541  1.7062
 9167TIP3   OH251695   3.781   3.629   1.660  0.2234 -0.2629  0.1667
 9167TIP3    H151696   3.730   3.614   1.581 -2.7603 -2.6880  2.3157
 9167TIP3    H251697   3.726   3.685   1.714  2.3400  1.6354  0.5222
 9168TIP3   OH251698   2.384   2.530   1.567 -0.4425 -0.4394 -0.5012
 9168TIP3    H151699   2.306   2.560   1.612 -0.3497 -1.0717  0.0963
 9168TIP3    H251700   2.388   2.583   1.487  1.0917  2.9441  1.6241
 9169TIP3   OH251701   1.950   6.883   3.182 -1.0503 -0.5520  0.0171
 9169TIP3    H151702   2.024   6.882   3.121 -1.2114 -0.7855 -0.1764
 9169TIP3    H251703   1.885   6.939   3.141 -1.7880 -1.9421 -0.7907
 9170TIP3   OH251704   1.258   5.378   2.668  0.3818  0.7821  0.2274
 9170TIP3    H151705   1.292   5.299   2.708  0.2620 -0.6461 -2.2837
 9170TIP3    H251706   1.164   5.377   2.687 -0.0666 -1.0337 -1.7611
 9171TIP3   OH251707   5.578   7.442   1.391  0.0093  0.2958 -0.7874
 9171TIP3    H151708   5.491   7.415   1.421 -0.3380  1.0215 -1.1117
 9171TIP3    H251709   5.629   7.450   1.471  0.0801 -1.1300 -0.6717
 9172TIP3   OH251710   0.018   0.533   2.106  0.0905 -0.1520  0.1645
 9172TIP3    H151711  -0.023   0.596   2.166  0.2163 -0.6604  0.8062
 9172TIP3    H251712  -0.048   0.464   2.095  0.4522 -0.5798  0.5713
 9173TIP3   OH251713   0.579   3.025   2.016 -0.0448 -0.5203 -0.4746
 9173TIP3    H151714   0.645   2.988   1.958  0.2127  0.2379 -0.6778
 9173TIP3    H251715   0.496   2.991   1.984  0.1475 -0.5765 -0.9114
 9174TIP3   OH251716   6.550   1.478   1.662 -0.3666  0.0228  0.4804
 9174TIP3    H151717   6.603   1.440   1.732 -0.8595 -1.2183  0.2027
 9174TIP3    H251718   6.516   1.402   1.614 -2.0252  0.7823  0.3817
 9175TIP3   OH251719   2.838   4.875   2.696 -0.3897 -0.0549 -1.4553
 9175TIP3    H151720   2.888   4.938   2.749  0.3402 -2.0998  0.4489
 9175TIP3    H251721   2.887   4.869   2.614  1.7813 -0.9349 -0.1888
 9176TIP3   OH251722   3.004   5.337   3.012 -0.2202 -0.1056 -0.2348
 9176TIP3    H151723   3.085   5.324   2.962  1.3135 -1.3271  2.3769
 9176TIP3    H251724   3.009   5.427   3.044  0.5917 -0.4550  0.6623
 9177TIP3   OH251725   6.414   4.211   1.729 -0.7016 -0.0120  0.2998
 9177TIP3    H151726   6.400   4.171   1.643 -0.5763 -0.4426  0.4724
 9177TIP3    H251727   6.327   4.221   1.766 -0.6732 -1.2821  0.7561
 9178TIP3   OH251728   1.762   0.985   0.619 -0.4748  0.5100 -0.4016
 9178TIP3    H151729   1.709   1.016   0.545  0.8314 -0.0247 -1.6196
 9178TIP3    H251730   1.710   0.916   0.659 -0.5761 -0.2446 -1.7853
 9179TIP3   OH251731   5.196   2.655   3.616 -0.1917 -0.1903  0.1267
 9179TIP3    H151732   5.291   2.656   3.633 -0.0534 -0.1246 -0.5996
 9179TIP3    H251733   5.175   2.744   3.591 -0.1879 -0.4885 -0.9974
 9180TIP3   OH251734   5.100   0.433   1.679 -0.2943  0.4499  0.0613
 9180TIP3    H151735   5.035   0.461   1.743  0.4715  1.4264  0.4420
 9180TIP3    H251736   5.183   0.466   1.714  0.3603 -0.4931 -0.5718
 9181TIP3   OH251737   2.829   2.738   1.833  0.6542 -0.2604  0.2738
 9181TIP3    H151738   2.866   2.658   1.797  1.7555 -0.3362  1.4855
 9181TIP3    H251739   2.740   2.714   1.860  0.5821 -0.7594 -0.4120
 9182TIP3   OH251740   1.811   0.346   1.225  0.0177 -0.4389 -0.3128
 9182TIP3    H151741   1.729   0.314   1.263 -0.6798  0.8403 -0.6769
 9182TIP3    H251742   1.846   0.406   1.291 -0.4069  0.5895 -0.9886
 9183TIP3   OH251743   0.474   1.285   0.445  0.5048 -0.0402 -0.0556
 9183TIP3    H151744   0.406   1.258   0.507  1.7935  0.7590  1.8252
 9183TIP3    H251745   0.456   1.377   0.429  0.7359 -0.0009 -0.0920
 9184TIP3   OH251746   7.646   5.412   1.894 -0.3554 -0.1288 -0.4967
 9184TIP3    H151747   7.624   5.409   1.801  0.0174  0.4517 -0.6092
 9184TIP3    H251748   7.612   5.330   1.930 -1.3227  0.0658 -0.9622
 9185TIP3   OH251749   6.873   1.172   2.626  0.8043  0.0990 -0.3544
 9185TIP3    H151750   6.884   1.185   2.532  1.2255  1.0913 -0.1764
 9185TIP3    H251751   6.809   1.101   2.632 -0.1209  0.8025 -1.3970
 9186TIP3   OH251752   2.274   3.874   1.328 -0.3966  0.3240  0.2325
 9186TIP3    H151753   2.269   3.952   1.383 -1.1679 -0.6989  1.6669
 9186TIP3    H251754   2.194   3.826   1.347 -0.7695 -0.0127 -1.9291
 9187TIP3   OH251755   2.989   2.834   2.245 -0.2814  0.2684 -0.4929
 9187TIP3    H151756   3.045   2.762   2.273  0.6280  0.4612 -1.6970
 9187TIP3    H251757   3.016   2.851   2.154 -1.6964  0.9550 -0.8190
 9188TIP3   OH251758   2.622   5.566   1.858 -0.2534 -0.3900  0.0981
 9188TIP3    H151759   2.717   5.582   1.857 -0.2324 -0.5396 -0.9935
 9188TIP3    H251760   2.585   5.643   1.815 -0.6739 -0.1069  0.9507
 9189TIP3   OH251761   4.036   1.049   0.820 -0.0825  0.1401 -0.2482
 9189TIP3    H151762   4.032   1.005   0.734 -2.0600 -1.0144  0.3676
 9189TIP3    H251763   3.955   1.099   0.825 -0.0097  0.1612  0.9817
 9190TIP3   OH251764   1.668   5.791   0.668  0.1706 -0.4843 -0.4895
 9190TIP3    H151765   1.601   5.843   0.713  0.6869 -0.2459  0.0122
 9190TIP3    H251766   1.626   5.766   0.585 -0.0694  0.7820 -0.7805
 9191TIP3   OH251767   5.848   2.705   2.263  0.1585 -0.1940 -0.6274
 9191TIP3    H151768   5.836   2.778   2.324 -0.7939 -0.6465 -0.2511
 9191TIP3    H251769   5.885   2.636   2.317  0.4523 -0.2023 -0.8400
 9192TIP3   OH251770   5.358   4.197   1.405 -0.0169 -0.4637  0.9987
 9192TIP3    H151771   5.391   4.142   1.476  0.2013  0.7964  1.9220
 9192TIP3    H251772   5.344   4.137   1.332  0.2288 -1.7226  1.9492
 9193TIP3   OH251773   1.847   3.524   0.574 -0.0849  0.7028  0.5441
 9193TIP3    H151774   1.758   3.553   0.594 -0.8295 -0.0352 -1.4288
 9193TIP3    H251775   1.848   3.431   0.600  0.1900  0.7705  0.7781
 9194TIP3   OH251776   7.174   3.395   3.286  0.1004 -0.1083  0.1479
 9194TIP3    H151777   7.257   3.441   3.299  0.0854  0.4039 -1.3759
 9194TIP3    H251778   7.108   3.455   3.322  0.3648 -0.5881  1.5121
 9195TIP3   OH251779   1.621   3.156   2.089  0.2648 -0.2814  0.0499
 9195TIP3    H151780   1.559   3.210   2.042  0.3782 -0.1159  0.0893
 9195TIP3    H251781   1.698   3.212   2.101  0.9970 -0.9534 -1.2801
 9196TIP3   OH251782   5.994   1.797   1.263 -0.1732  0.2268 -0.1354
 9196TIP3    H151783   5.933   1.838   1.324  0.5244  0.6438  0.2994
 9196TIP3    H251784   6.075   1.847   1.273  0.8173 -1.4632  0.6494
 9197TIP3   OH251785   3.780   5.200   1.515  0.6637  0.0675 -0.2144
 9197TIP3    H151786   3.775   5.220   1.609 -1.6102 -0.7177 -0.1049
 9197TIP3    H251787   3.840   5.266   1.480 -0.6364  2.2295  1.3617
 9198TIP3   OH251788   3.469   6.164   0.508 -0.2923  0.6757  0.4412
 9198TIP3    H151789   3.483   6.083   0.556 -1.3880 -1.3786 -2.4554
 9198TIP3    H251790   3.380   6.191   0.532 -0.0643  0.8703  1.1100
 9199TIP3   OH251791   0.196   3.085   0.782 -0.6793 -0.0545  0.6475
 9199TIP3    H151792   0.217   3.024   0.853 -1.1154 -0.7106  0.2249
 9199TIP3    H251793   0.261   3.155   0.790  0.0558 -0.7627  0.9071
 9200TIP3   OH251794   0.929   0.217   1.198 -0.3408  0.0206 -0.1644
 9200TIP3    H151795   0.887   0.287   1.149  1.4933  0.6886 -0.8732
 9200TIP3    H251796   1.004   0.259   1.241 -0.9366 -0.8861  1.9136
 9201TIP3   OH251797   5.644   5.495   0.908 -0.6203  0.1201 -0.3177
 9201TIP3    H151798   5.602   5.433   0.848 -2.1772  1.9155 -1.1847
 9201TIP3    H251799   5.607   5.580   0.885  0.7595  1.2741  1.4308
 9202TIP3   OH251800   6.209   6.414   1.496 -0.1038  0.3730 -0.0680
 9202TIP3    H151801   6.168   6.363   1.427  1.3252  1.5102 -1.8395
 9202TIP3    H251802   6.177   6.503   1.483  0.4685  0.6695  0.4922
 9203TIP3   OH251803   4.246   7.134   1.604  0.5180  0.2651  0.4826
 9203TIP3    H151804   4.245   7.199   1.674  0.3203  0.7269  0.0562
 9203TIP3    H251805   4.153   7.114   1.588  0.4295  1.6371 -0.9845
 9204TIP3   OH251806   5.075   6.940   2.859 -0.2936 -0.1410 -0.0150
 9204TIP3    H151807   5.156   6.888   2.866  0.5475  0.8651 -1.6800
 9204TIP3    H251808   5.088   7.013   2.920  0.0873  0.0422 -0.3094
 9205TIP3   OH251809   2.939   4.419   2.234  0.1392 -0.2105  0.6367
 9205TIP3    H151810   2.867   4.460   2.282 -0.7095 -1.9980  0.9937
 9205TIP3    H251811   2.982   4.491   2.189 -0.0660  1.3000  2.7380
 9206TIP3   OH251812   6.357   1.112   1.763 -0.5115  0.1345 -0.4218
 9206TIP3    H151813   6.440   1.065   1.756  0.5274  2.0234 -1.7994
 9206TIP3    H251814   6.347   1.156   1.678 -2.7456  0.2671 -0.1486
 9207TIP3   OH251815   1.592   0.822   2.658 -0.5775 -0.1044  0.2916
 9207TIP3    H151816   1.498   0.832   2.670 -0.5118  0.5099  0.3297
 9207TIP3    H251817   1.601   0.785   2.570 -0.8984 -1.3614  0.7597
 9208TIP3   OH251818   3.576   0.604   1.413 -0.1566  0.2652  0.0030
 9208TIP3    H151819   3.486   0.631   1.432 -0.9141 -0.1552 -2.5364
 9208TIP3    H251820   3.602   0.659   1.339  1.4220 -0.1204  0.2421
 9209TIP3   OH251821   4.773   4.106   2.106  0.0216 -0.0177  0.2520
 9209TIP3    H151822   4.739   4.089   2.019  0.9575  1.3069 -0.4145
 9209TIP3    H251823   4.831   4.032   2.124 -0.2988 -0.3791 -0.1843
 9210TIP3   OH251824   6.924   2.226   2.080 -0.8905  0.2567  0.1868
 9210TIP3    H151825   6.952   2.213   1.990 -0.5949  1.2712  0.1245
 9210TIP3    H251826   7.005   2.227   2.131 -1.1035 -1.2793  0.6180
 9211TIP3   OH251827   5.226   6.461   2.495  0.1761  0.3629 -0.1538
 9211TIP3    H151828   5.233   6.520   2.420  3.6411 -0.0570 -0.3192
 9211TIP3    H251829   5.230   6.518   2.572 -2.1606  0.6896 -0.2058
 9212TIP3   OH251830   1.024   4.650   0.622 -0.3401 -0.3729  0.0676
 9212TIP3    H151831   0.954   4.591   0.594 -1.3102  0.7620  0.0376
 9212TIP3    H251832   0.987   4.737   0.613  1.0677  0.2615  0.1080
 9213TIP3   OH251833   6.476   0.028   1.118  0.0108  0.0081  0.0769
 9213TIP3    H151834   6.415   0.009   1.190 -2.6058  0.5928 -1.8498
 9213TIP3    H251835   6.531   0.098   1.152  0.9527 -1.7675  2.5403
 9214TIP3   OH251836   4.345   2.707   0.715 -0.5106  0.7390 -0.7579
 9214TIP3    H151837   4.434   2.697   0.681 -0.5849  2.3274 -1.5430
 9214TIP3    H251838   4.357   2.728   0.807 -0.2612 -2.5138  0.0824
 9215TIP3   OH251839   3.842   4.012   2.106 -0.0588  0.2637  0.1044
 9215TIP3    H151840   3.899   4.071   2.056 -0.0839  1.4748  1.4452
 9215TIP3    H251841   3.896   3.985   2.181 -0.1812 -1.1471 -0.2869
 9216TIP3   OH251842   0.508   4.376   0.755  0.5497  0.3225 -0.5606
 9216TIP3    H151843   0.519   4.347   0.665  1.4315  2.7158 -1.2952
 9216TIP3    H251844   0.482   4.468   0.748  0.8605  0.6400  1.6285
 9217TIP3   OH251845   3.474   7.579   1.139  0.0007 -0.4074 -0.2197
 9217TIP3    H151846   3.518   7.499   1.167  1.4215 -0.0943 -1.3934
 9217TIP3    H251847   3.419   7.551   1.066 -0.9507 -0.6194  0.5696
 9218TIP3   OH251848   4.535   6.305   2.937  0.7770 -0.2451  0.0029
 9218TIP3    H151849   4.525   6.323   2.844 -0.4183 -0.0202  0.1583
 9218TIP3    H251850   4.569   6.216   2.941 -1.2173 -1.0869 -0.6266
 9219TIP3   OH251851   5.764   1.672   1.123 -0.2219 -0.1121  0.1379
 9219TIP3    H151852   5.856   1.687   1.148  0.3365 -1.8859 -0.7099
 9219TIP3    H251853   5.764   1.676   1.028 -1.0528 -0.0475  0.1371
 9220TIP3   OH251854   7.569   6.499   2.164  0.5053 -0.5242  0.0259
 9220TIP3    H151855   7.586   6.436   2.094 -0.3399  0.6627 -1.3134
 9220TIP3    H251856   7.484   6.472   2.200  0.7911 -0.9462  0.3983
 9221TIP3   OH251857   5.733   2.909   0.838 -0.2517 -0.7208  0.0012
 9221TIP3    H151858   5.744   2.961   0.917 -1.9388 -0.0781 -0.1560
 9221TIP3    H251859   5.689   2.968   0.776  0.8257 -1.2786 -1.3616
 9222TIP3   OH251860   0.327   2.896   1.877 -0.8908 -0.4114  0.1695
 9222TIP3    H151861   0.253   2.892   1.817 -0.3579 -0.2286 -0.5165
 9222TIP3    H251862   0.288   2.909   1.963 -1.5968  1.5046 -0.3902
 9223TIP3   OH251863   2.006   0.374   1.909  0.0082 -0.9571  0.0672
 9223TIP3    H151864   2.100   0.374   1.928  0.0355  3.1178  0.6614
 9223TIP3    H251865   2.001   0.358   1.814  1.2602 -1.1156  0.0058
 9224TIP3   OH251866   7.619   4.977   1.424 -0.0887  0.0103  0.4317
 9224TIP3    H151867   7.696   5.030   1.404  0.6306 -1.1442  0.1209
 9224TIP3    H251868   7.651   4.908   1.482 -1.1793  0.3704  1.5194
 9225TIP3   OH251869   6.489   5.850   3.070 -0.1983 -0.1481 -0.1685
 9225TIP3    H151870   6.541   5.924   3.039 -3.1253  2.1007 -0.2000
 9225TIP3    H251871   6.521   5.834   3.159  0.8380  0.8364 -0.3427
 9226TIP3   OH251872   6.365   4.964   2.624 -0.5299 -0.0669 -0.4249
 9226TIP3    H151873   6.277   4.994   2.600 -0.4102  0.7166  0.0839
 9226TIP3    H251874   6.394   5.026   2.692  0.8604  0.3911 -1.3805
 9227TIP3   OH251875   7.371   5.251   0.944  0.1289 -0.2081  0.2507
 9227TIP3    H151876   7.430   5.280   1.013 -0.6559  0.0941  0.8083
 9227TIP3    H251877   7.299   5.313   0.946 -0.8233 -1.2782  0.4307
 9228TIP3   OH251878   3.541   7.356   2.221  1.0805 -0.2209 -0.4533
 9228TIP3    H151879   3.481   7.286   2.244 -0.6641  1.0056 -1.1018
 9228TIP3    H251880   3.618   7.341   2.277 -0.5171 -0.8195  1.7131
 9229TIP3   OH251881   1.471   6.481   1.096 -0.2073  0.6790 -0.6946
 9229TIP3    H151882   1.550   6.462   1.146  0.1717  2.4804 -0.5317
 9229TIP3    H251883   1.495   6.555   1.041 -1.6402  0.9351 -1.0069
 9230TIP3   OH251884   2.805   6.341   2.373  0.0475  0.0328  0.5977
 9230TIP3    H151885   2.887   6.323   2.418 -0.3589 -0.4814  1.1632
 9230TIP3    H251886   2.821   6.318   2.282  0.0052 -1.8749  1.0209
 9231TIP3   OH251887   1.710   1.879   2.215  0.1682  0.0325  0.0366
 9231TIP3    H151888   1.622   1.855   2.242 -0.1533 -1.0469 -1.7503
 9231TIP3    H251889   1.700   1.959   2.165  0.3554  0.4707  0.6937
 9232TIP3   OH251890   5.387   3.761   0.758 -0.1216  0.4019  0.2940
 9232TIP3    H151891   5.440   3.695   0.803 -0.1403  1.0307  1.2456
 9232TIP3    H251892   5.449   3.829   0.734 -0.0148 -0.1521 -1.1222
 9233TIP3   OH251893   3.000   5.261   0.530  0.7758  0.0586 -0.3423
 9233TIP3    H151894   3.046   5.344   0.523  0.9942 -0.0496 -0.2027
 9233TIP3    H251895   2.924   5.280   0.585  0.7563  0.1943 -0.4164
 9234TIP3   OH251896   2.751   0.771   2.333 -0.0029 -0.1284 -0.1934
 9234TIP3    H151897   2.824   0.816   2.291  0.1371  0.8906  1.0757
 9234TIP3    H251898   2.750   0.684   2.294  0.6459  0.4801 -1.6541
 9235TIP3   OH251899   6.390   6.667   1.704  0.2333 -0.2509 -0.4186
 9235TIP3    H151900   6.431   6.753   1.712 -0.0204 -0.2189  0.7584
 9235TIP3    H251901   6.437   6.624   1.633  0.3618  0.8539 -1.0291
 9236TIP3   OH251902   1.529   1.928   0.958 -0.5896 -0.3238 -0.2798
 9236TIP3    H151903   1.558   1.837   0.949 -1.0796 -0.4730 -0.3733
 9236TIP3    H251904   1.471   1.942   0.883  1.7859  0.9801 -1.9929
 9237TIP3   OH251905   3.129   5.830   1.227  0.1404  0.2523 -0.1824
 9237TIP3    H151906   3.187   5.894   1.186 -0.2499 -0.0353 -1.2019
 9237TIP3    H251907   3.165   5.745   1.200 -0.9324  0.0725 -1.0998
 9238TIP3   OH251908   0.295   2.551   2.313  0.2737  0.4240 -0.5885
 9238TIP3    H151909   0.271   2.500   2.390  0.5406  2.2736  0.7950
 9238TIP3    H251910   0.303   2.487   2.242 -1.5762 -1.1287  0.5360
 9239TIP3   OH251911   1.745   1.402   0.785  0.3069 -0.6252 -0.1711
 9239TIP3    H151912   1.721   1.314   0.758 -2.0286  0.1782 -0.9176
 9239TIP3    H251913   1.723   1.405   0.878 -1.4694 -0.3000 -0.5611
 9240TIP3   OH251914   4.963   0.365   1.440 -0.1760  0.0762  0.2767
 9240TIP3    H151915   4.903   0.439   1.439  0.4972  0.6449 -1.2191
 9240TIP3    H251916   4.978   0.348   1.533  0.3963  2.4566  0.7055
 9241TIP3   OH251917   3.109   2.414   2.709 -0.4684  0.1429 -0.7382
 9241TIP3    H151918   3.137   2.504   2.729 -0.1956 -0.0601 -0.1837
 9241TIP3    H251919   3.019   2.424   2.679 -0.3093  0.6432 -1.0728
 9242TIP3   OH251920   0.937   6.307   1.294  0.3776  0.3931 -0.3682
 9242TIP3    H151921   0.990   6.370   1.247  0.2838 -1.1149 -2.6236
 9242TIP3    H251922   0.875   6.360   1.344  0.3103  2.0802 -2.1705
 9243TIP3   OH251923   0.796   1.499   3.963 -0.9504 -0.6218  0.7301
 9243TIP3    H151924   0.883   1.461   3.973 -0.8258 -0.1097  1.6751
 9243TIP3    H251925   0.813   1.590   3.937 -1.2404 -1.1065 -1.3222
 9244TIP3   OH251926   1.799   5.519   1.998 -0.0428 -0.2924 -0.4406
 9244TIP3    H151927   1.751   5.520   1.915 -0.6856  0.9388 -0.0724
 9244TIP3    H251928   1.732   5.510   2.065  0.2091  1.3086  0.0733
 9245TIP3   OH251929   4.126   3.486   2.682 -0.2905 -0.5379  0.0263
 9245TIP3    H151930   4.125   3.396   2.649 -2.9472 -0.9209  0.8768
 9245TIP3    H251931   4.071   3.483   2.760 -0.5186  1.8604  0.0364
 9246TIP3   OH251932   3.492   1.987   1.967  0.1686  0.2570  0.4381
 9246TIP3    H151933   3.545   1.922   1.921 -1.5318  0.5281 -2.1109
 9246TIP3    H251934   3.426   1.935   2.014 -2.1679 -0.0383 -2.8314
 9247TIP3   OH251935   6.459   4.355   2.093 -0.5817  0.3186 -0.1708
 9247TIP3    H151936   6.389   4.289   2.091 -0.7989  0.5576 -0.7664
 9247TIP3    H251937   6.525   4.321   2.032  0.2451 -0.3413  1.0339
 9248TIP3   OH251938   0.201   6.639   1.856  0.4446 -0.3356  0.1714
 9248TIP3    H151939   0.132   6.630   1.790  0.3402  0.9298  0.0819
 9248TIP3    H251940   0.191   6.563   1.912  1.1323 -1.9639 -1.8058
 9249TIP3   OH251941   5.568   4.774   0.721  0.2207 -0.4968 -0.3904
 9249TIP3    H151942   5.548   4.824   0.642 -0.3856  0.5259  0.3892
 9249TIP3    H251943   5.522   4.819   0.791  0.4150 -1.6220  0.5027
 9250TIP3   OH251944   4.960   5.883   2.204 -0.0651  0.6121  0.2913
 9250TIP3    H151945   5.036   5.847   2.251  0.0342  1.6071  0.9394
 9250TIP3    H251946   4.926   5.810   2.153  1.2827  0.1231  0.0553
 9251TIP3   OH251947   0.191   5.098   1.464 -0.4053 -0.0065 -0.3047
 9251TIP3    H151948   0.166   5.131   1.551  2.3543  2.7592 -0.4133
 9251TIP3    H251949   0.240   5.018   1.483 -1.2127 -0.3385  0.5151
 9252TIP3   OH251950   2.983   3.852   2.397 -0.1355 -0.2735  0.4704
 9252TIP3    H151951   3.048   3.798   2.440  0.9829  1.3013  0.8381
 9252TIP3    H251952   3.028   3.887   2.320 -1.2081 -0.7806 -0.4130
 9253TIP3   OH251953   0.430   2.692   1.513 -0.1958  0.6610 -0.6231
 9253TIP3    H151954   0.506   2.704   1.571 -1.1530  0.0773  0.8208
 9253TIP3    H251955   0.392   2.779   1.505 -0.7495  0.5726  0.6844
 9254TIP3   OH251956   0.748   4.693   2.716  0.3268  0.3823  0.2844
 9254TIP3    H151957   0.707   4.658   2.637  1.2368  0.9533 -0.4510
 9254TIP3    H251958   0.835   4.653   2.719 -0.0897 -0.5027  1.6172
 9255TIP3   OH251959   0.600   7.651   2.233  0.0165  0.1480  0.3357
 9255TIP3    H151960   0.596   7.722   2.169  0.2846 -0.0260  0.1236
 9255TIP3    H251961   0.635   7.576   2.184 -0.7540 -0.2787  0.4247
 9256TIP3   OH251962   3.691   4.054   1.623  0.1121  0.2244 -0.3917
 9256TIP3    H151963   3.735   3.993   1.682  0.8903 -0.2806 -1.4689
 9256TIP3    H251964   3.760   4.111   1.591 -0.5080  1.2921  0.0996
 9257TIP3   OH251965   6.767   4.025   1.385 -0.4006  0.7467  0.4352
 9257TIP3    H151966   6.839   4.026   1.449  1.3058  0.8758 -1.3903
 9257TIP3    H251967   6.724   4.109   1.396  0.5140  1.1928  0.7327
 9258TIP3   OH251968   0.568   6.914   2.855 -0.4321 -0.3052 -0.1416
 9258TIP3    H151969   0.488   6.966   2.841 -0.4112  0.3993  2.0166
 9258TIP3    H251970   0.537   6.830   2.888 -0.3653 -1.0941 -1.9456
 9259TIP3   OH251971   6.778   7.106   2.576 -0.0282 -0.5719 -0.2774
 9259TIP3    H151972   6.789   7.099   2.670 -1.1381  1.7934  0.0805
 9259TIP3    H251973   6.687   7.080   2.560 -0.0737 -0.2272 -0.5988
 9260TIP3   OH251974   5.952   7.342   2.778 -0.1950 -0.1240  0.6102
 9260TIP3    H151975   5.986   7.430   2.765  1.9625 -0.6087  2.3761
 9260TIP3    H251976   5.969   7.323   2.870 -3.5667 -1.2361  1.1297
 9261TIP3   OH251977   5.640   7.254   3.272 -0.2500  0.1054  0.0332
 9261TIP3    H151978   5.550   7.260   3.240  0.2548 -0.8177 -1.6486
 9261TIP3    H251979   5.684   7.194   3.212  1.6521  0.9671  0.4817
 9262TIP3   OH251980   2.588   0.821   2.713  0.1756 -0.5107 -0.4375
 9262TIP3    H151981   2.681   0.821   2.737  0.2557  0.0913 -0.7370
 9262TIP3    H251982   2.550   0.893   2.763 -0.1103 -0.6677 -0.4226
 9263TIP3   OH251983   1.590   4.307   2.856  0.3048  0.3269  0.4790
 9263TIP3    H151984   1.527   4.321   2.926  0.6525  0.8408  0.6879
 9263TIP3    H251985   1.670   4.349   2.886  0.3787  0.7989 -0.3409
 9264TIP3   OH251986   2.522   6.522   2.228 -0.7855 -0.9173 -0.0427
 9264TIP3    H151987   2.462   6.583   2.270 -0.7528 -0.1194 -1.1051
 9264TIP3    H251988   2.609   6.547   2.259 -0.6892  0.1374 -1.1078
 9265TIP3   OH251989   7.581   3.855   1.824  0.3682 -0.4761  0.0344
 9265TIP3    H151990   7.565   3.825   1.913  0.5449  1.9731  0.9841
 9265TIP3    H251991   7.670   3.828   1.805  0.2166 -1.3078  0.4601
 9266TIP3   OH251992   4.211   2.065   1.260 -0.0900 -0.2094 -0.0089
 9266TIP3    H151993   4.211   2.048   1.166  1.2460 -0.2761 -0.0171
 9266TIP3    H251994   4.148   2.137   1.271 -0.4974 -0.4150 -0.8987
 9267TIP3   OH251995   6.227   3.697   2.963 -0.5687 -0.0804 -0.4850
 9267TIP3    H151996   6.305   3.720   3.014 -1.0364  2.9260 -0.9327
 9267TIP3    H251997   6.188   3.624   3.010  0.8774  0.3305  1.4857
 9268TIP3   OH251998   0.590   7.375   2.654  0.0211  0.6275  0.5240
 9268TIP3    H151999   0.499   7.356   2.676 -0.2571  2.2818  0.9503
 9268TIP3    H252000   0.615   7.445   2.714  1.0229  1.4029 -0.7420
 9269TIP3   OH252001   4.050   2.871   2.011  0.2368  0.0062  0.3352
 9269TIP3    H152002   4.139   2.849   2.039 -0.1071  1.0027  2.4061
 9269TIP3    H252003   4.043   2.965   2.026 -1.5389 -0.2542  1.4501
 9270TIP3   OH252004   5.441   6.879   1.517 -0.5541 -0.1870 -0.3550
 9270TIP3    H152005   5.438   6.968   1.481 -1.4191 -0.1439 -0.2054
 9270TIP3    H252006   5.478   6.891   1.605  0.1114 -0.0884 -0.6464
 9271TIP3   OH252007   4.636   1.106   3.298 -0.1769 -0.0018 -0.0249
 9271TIP3    H152008   4.652   1.179   3.238  2.9268 -0.8891 -0.4054
 9271TIP3    H252009   4.639   1.146   3.385 -1.7062  0.7774 -0.2822
 9272TIP3   OH252010   2.368   4.598   1.537 -0.0253 -0.1474 -0.3949
 9272TIP3    H152011   2.337   4.557   1.618  1.3681  1.4452  1.0359
 9272TIP3    H252012   2.399   4.525   1.484  0.2601 -1.1515  1.0802
 9273TIP3   OH252013   2.887   5.624   1.800 -0.1964 -0.1234 -0.0153
 9273TIP3    H152014   2.975   5.597   1.773  0.7085  0.6118  1.9756
 9273TIP3    H252015   2.847   5.660   1.721  1.2542 -0.5798 -0.9832
 9274TIP3   OH252016   4.831   0.063   0.765 -0.4292  0.2136  0.3526
 9274TIP3    H152017   4.751   0.049   0.815 -0.0666  1.6931  1.4057
 9274TIP3    H252018   4.902   0.034   0.823 -0.1020  0.4157  0.0646
 9275TIP3   OH252019   5.575   2.212   0.689 -0.1069  0.1363  0.3743
 9275TIP3    H152020   5.573   2.196   0.595  1.3848 -1.8153  0.6168
 9275TIP3    H252021   5.647   2.273   0.702  0.2262 -0.2445  0.3236
 9276TIP3   OH252022   2.314   5.420   1.911 -0.5901 -0.2843  0.1233
 9276TIP3    H152023   2.373   5.374   1.971  1.4436  1.3512 -0.4968
 9276TIP3    H252024   2.351   5.508   1.904 -0.9098 -0.2825 -3.2547
 9277TIP3   OH252025   4.809   7.372   1.138 -0.2657  0.7862 -0.0611
 9277TIP3    H152026   4.770   7.367   1.051 -1.5713  0.7014  0.4988
 9277TIP3    H252027   4.817   7.281   1.166 -0.5025  0.8397  0.1816
 9278TIP3   OH252028   7.516   5.920   3.146  0.2025  0.5796  0.3102
 9278TIP3    H152029   7.425   5.930   3.119  0.0325  1.0471  1.0349
 9278TIP3    H252030   7.544   5.839   3.103 -0.7432  0.0959  0.5631
 9279TIP3   OH252031   6.308   6.365   0.817  0.2959 -0.0217 -0.0741
 9279TIP3    H152032   6.230   6.408   0.852  0.4837  1.7916 -1.7270
 9279TIP3    H252033   6.381   6.412   0.858  0.5718 -1.5480  1.2778
 9280TIP3   OH252034   1.434   6.879   2.303  0.3488 -0.0368  0.0158
 9280TIP3    H152035   1.402   6.969   2.305  0.1904 -0.0837 -0.3985
 9280TIP3    H252036   1.402   6.840   2.385  0.3100  0.2446  0.1351
 9281TIP3   OH252037   3.787   1.664   1.529  0.2832  0.4439 -0.1024
 9281TIP3    H152038   3.799   1.573   1.555 -0.5280 -0.8671 -3.7508
 9281TIP3    H252039   3.875   1.701   1.528  0.8673 -0.8946 -0.4168
 9282TIP3   OH252040   4.028   3.637   2.896  0.3136 -0.0603 -0.3440
 9282TIP3    H152041   4.003   3.726   2.869 -1.3424 -0.4248 -0.1111
 9282TIP3    H252042   3.946   3.587   2.893  0.4144 -0.6771  3.2012
 9283TIP3   OH252043   3.883   3.738   1.149  0.1939  0.1268  0.5396
 9283TIP3    H152044   3.896   3.821   1.196  0.6124  0.2084  0.2866
 9283TIP3    H252045   3.925   3.752   1.064 -1.3931  0.3199 -0.2445
 9284TIP3   OH252046   6.951   2.785   2.316 -0.1106  0.1947 -0.3070
 9284TIP3    H152047   7.042   2.812   2.305  0.7891 -2.4324  0.1314
 9284TIP3    H252048   6.951   2.732   2.395 -2.2721  0.9952  0.3108
 9285TIP3   OH252049   6.325   5.379   2.771 -0.7132 -0.2048 -0.4258
 9285TIP3    H152050   6.328   5.456   2.827 -2.7538 -1.0252  0.9418
 9285TIP3    H252051   6.246   5.391   2.718 -1.9602 -1.9991  0.9015
 9286TIP3   OH252052   7.210   6.366   1.775  0.2916 -0.1320  0.3770
 9286TIP3    H152053   7.262   6.445   1.790 -0.5915  0.6793 -0.6226
 9286TIP3    H252054   7.163   6.384   1.693 -1.0670 -1.0899  0.9143
 9287TIP3   OH252055   7.028   4.421   0.556 -0.1842  0.5319  0.4100
 9287TIP3    H152056   7.123   4.418   0.547  0.0708 -1.4663  2.5513
 9287TIP3    H252057   7.001   4.329   0.549 -1.7867  0.9204  1.1052
 9288TIP3   OH252058   2.232   0.356   1.011  0.3924  0.1910 -0.5787
 9288TIP3    H152059   2.174   0.308   1.069 -1.4241  1.5901 -1.1261
 9288TIP3    H252060   2.320   0.336   1.042 -0.4646  1.0910  2.8364
 9289TIP3   OH252061   3.493   0.965   1.835 -0.2685 -0.5157  0.1144
 9289TIP3    H152062   3.429   0.894   1.830 -0.6812 -0.2649  1.4788
 9289TIP3    H252063   3.492   0.993   1.926  1.2042  0.0510 -0.0033
 9290TIP3   OH252064   5.465   6.930   1.790  0.4886 -0.3282 -0.5289
 9290TIP3    H152065   5.382   6.958   1.751 -0.1086  1.3520  1.7407
 9290TIP3    H252066   5.514   7.011   1.802  0.5899 -0.6915  2.1399
 9291TIP3   OH252067   2.689   2.932   2.407 -0.5502 -0.0481 -0.5590
 9291TIP3    H152068   2.689   2.837   2.409  1.9749 -0.0990  1.9216
 9291TIP3    H252069   2.653   2.958   2.492  1.7531  1.0826  0.1384
 9292TIP3   OH252070   3.116   6.923   1.393  0.2965 -0.1866  0.2828
 9292TIP3    H152071   3.027   6.956   1.380  0.2009 -0.5754 -0.0971
 9292TIP3    H252072   3.172   7.000   1.383 -0.1004  0.4576  2.4719
 9293TIP3   OH252073   5.106   4.190   2.082 -0.4373  0.1264 -0.0561
 9293TIP3    H152074   5.024   4.231   2.109 -0.1806  0.9686 -0.5105
 9293TIP3    H252075   5.173   4.257   2.096  0.1615 -0.5023  0.1829
 9294TIP3   OH252076   6.799   2.856   3.169  0.6589 -0.0323  0.2684
 9294TIP3    H152077   6.880   2.827   3.212 -0.5411  1.0891  3.5996
 9294TIP3    H252078   6.777   2.785   3.109  1.5511 -2.7358  2.9160
 9295TIP3   OH252079   5.703   2.675   2.832  0.4658 -0.2516  0.6137
 9295TIP3    H152080   5.706   2.718   2.918 -0.9532 -0.5241  0.8355
 9295TIP3    H252081   5.668   2.588   2.850 -0.5773 -0.0518 -0.3097
 9296TIP3   OH252082   3.922   2.482   2.334 -0.2682  0.1159 -0.5336
 9296TIP3    H152083   3.960   2.568   2.317  0.5156 -0.1488 -0.1475
 9296TIP3    H252084   3.828   2.498   2.335 -0.1556  0.8795 -0.9489
 9297TIP3   OH252085   1.067   4.484   2.443  0.1572  0.0684 -0.4080
 9297TIP3    H152086   1.049   4.419   2.375 -3.2380 -1.0891  1.3767
 9297TIP3    H252087   0.984   4.528   2.457  0.8321  0.6106  2.6171
 9298TIP3   OH252088   5.122   0.275   2.046 -0.3993 -0.5187  0.5054
 9298TIP3    H152089   5.036   0.239   2.025 -0.7497  0.4297  0.2584
 9298TIP3    H252090   5.104   0.355   2.095  0.3554 -0.5276  0.8240
 9299TIP3   OH252091   6.885   0.953   1.257  0.2514  0.0659  0.4661
 9299TIP3    H152092   6.910   0.870   1.219 -2.2598 -1.7282  2.3502
 9299TIP3    H252093   6.942   0.963   1.334  0.2369 -0.1773  0.5081
 9300TIP3   OH252094   0.257   5.346   2.334 -0.1068 -0.1392  0.4857
 9300TIP3    H152095   0.261   5.355   2.239  0.2598 -1.2006  0.3873
 9300TIP3    H252096   0.218   5.260   2.349 -1.4087  0.5724  1.3171
 9301TIP3   OH252097   0.833   5.620   1.985  0.0258  0.2494  0.2299
 9301TIP3    H152098   0.786   5.675   1.922  0.3202  0.9819  0.6283
 9301TIP3    H252099   0.877   5.683   2.043  1.4707 -0.3942 -0.1085
 9302TIP3   OH252100   1.260   3.430   1.192 -0.1410  0.6310  0.1177
 9302TIP3    H152101   1.324   3.410   1.261 -1.3003 -0.9847  0.7815
 9302TIP3    H252102   1.221   3.513   1.219  0.0862  0.4913  0.8961
 9303TIP3   OH252103   5.677   6.726   1.693 -0.2529  0.1513  0.3244
 9303TIP3    H152104   5.768   6.736   1.721 -0.2364  0.1286  0.2798
 9303TIP3    H252105   5.625   6.762   1.765 -0.1807  1.1037 -0.0929
 9304TIP3   OH252106   1.311   3.840   2.966  0.7338 -0.2526  0.6071
 9304TIP3    H152107   1.228   3.825   2.921 -0.4239 -2.1333  3.0789
 9304TIP3    H252108   1.362   3.760   2.950  1.1515 -0.0456  0.8781
 9305TIP3   OH252109   3.412   6.793   2.200 -0.1513  0.1917  0.8033
 9305TIP3    H152110   3.338   6.771   2.144  0.5469  0.5014 -0.2659
 9305TIP3    H252111   3.446   6.709   2.230 -0.3465  0.0084  0.5149
 9306TIP3   OH252112   2.813   4.887   0.729  0.6100  1.0635 -0.2927
 9306TIP3    H152113   2.874   4.919   0.662  1.9379  0.2413  0.4913
 9306TIP3    H252114   2.855   4.908   0.812 -0.4226  0.9257  0.2768
 9307TIP3   OH252115   1.938   5.322   2.142  0.1772 -1.0184  0.2718
 9307TIP3    H152116   1.898   5.394   2.094  1.9064  0.2958  0.7165
 9307TIP3    H252117   1.994   5.278   2.078 -0.6800 -1.8306  0.0666
 9308TIP3   OH252118   3.963   2.044   1.541  0.5367  0.4808  0.5666
 9308TIP3    H152119   4.005   1.964   1.507  0.9481  0.2060  1.6842
 9308TIP3    H252120   4.035   2.093   1.580  0.2872  1.4305 -0.1395
 9309TIP3   OH252121   7.603   5.204   2.919  0.5712 -0.0213 -0.6602
 9309TIP3    H152122   7.681   5.221   2.970 -0.2155  1.5525  0.0921
 9309TIP3    H252123   7.552   5.142   2.971  1.3701 -1.2194 -1.2531
 9310TIP3   OH252124   0.718   1.592   1.650 -0.0236  0.5697 -0.5590
 9310TIP3    H152125   0.771   1.530   1.701 -0.0788  0.2527 -0.8845
 9310TIP3    H252126   0.630   1.554   1.651  0.0510  0.3714 -1.1985
 9311TIP3   OH252127   2.698   2.517   3.319 -0.2275 -0.0858  0.2697
 9311TIP3    H152128   2.741   2.459   3.256  1.1043  1.8107 -0.6611
 9311TIP3    H252129   2.694   2.466   3.400 -2.3825 -2.7877 -1.3452
 9312TIP3   OH252130   2.274   1.846   1.612  0.1903 -0.4122 -0.8220
 9312TIP3    H152131   2.357   1.804   1.634  0.4099 -0.2466 -1.3295
 9312TIP3    H252132   2.295   1.905   1.539 -0.6961 -1.6515 -2.1353
 9313TIP3   OH252133   4.806   3.303   0.594 -0.1079 -0.1323 -0.6381
 9313TIP3    H152134   4.718   3.266   0.593  0.5918 -1.9032 -0.7429
 9313TIP3    H252135   4.799   3.384   0.543 -1.3779 -0.9955 -1.9037
 9314TIP3   OH252136   7.370   7.486   3.091 -0.0927  0.3099 -0.1912
 9314TIP3    H152137   7.457   7.516   3.064 -0.2314 -0.6804 -1.9347
 9314TIP3    H252138   7.386   7.430   3.166  0.7539  0.3369 -0.3391
 9315TIP3   OH252139   4.019   3.747   2.615 -0.4742 -0.2375 -0.5834
 9315TIP3    H152140   3.987   3.723   2.528 -0.0486 -1.0848 -0.5192
 9315TIP3    H252141   4.041   3.663   2.657  0.7307  0.2363 -0.2189
 9316TIP3   OH252142   5.578   4.370   1.544  0.1181  0.2791  0.6292
 9316TIP3    H152143   5.567   4.457   1.505 -3.9880  0.1077  1.0121
 9316TIP3    H252144   5.532   4.311   1.483  1.4073 -1.4176  1.2226
 9317TIP3   OH252145   3.176   0.532   1.742  0.0320 -0.6937  0.4850
 9317TIP3    H152146   3.218   0.531   1.656 -0.9070 -0.0876  0.0037
 9317TIP3    H252147   3.139   0.444   1.751 -0.9291 -0.3818 -0.2847
 9318TIP3   OH252148   4.676   5.081   1.928 -0.2662  0.1743  0.4024
 9318TIP3    H152149   4.687   5.027   1.850  1.6877  0.0969  0.6610
 9318TIP3    H252150   4.637   5.022   1.993  0.2040 -0.4255  0.1514
 9319TIP3   OH252151   0.604   7.438   1.019 -0.1223  0.1921 -0.0615
 9319TIP3    H152152   0.631   7.502   1.084  0.4332  0.4406 -0.5259
 9319TIP3    H252153   0.632   7.354   1.055 -0.6659  0.2254  0.4505
 9320TIP3   OH252154   0.130   2.936   3.352 -0.1671 -0.1624 -0.0702
 9320TIP3    H152155   0.048   2.973   3.319 -0.3119 -1.2853 -1.0697
 9320TIP3    H252156   0.103   2.866   3.411  0.0649 -0.2983 -0.1209
 9321TIP3   OH252157   0.143   3.304   1.324  0.7503 -0.1810 -0.3217
 9321TIP3    H152158   0.090   3.242   1.274 -0.7762  1.3803 -0.7567
 9321TIP3    H252159   0.088   3.327   1.399  1.8809 -0.4111  0.6021
 9322TIP3   OH252160   7.515   3.234   2.528  0.0647 -0.1014 -0.3635
 9322TIP3    H152161   7.494   3.173   2.599  0.7690 -0.8729 -0.7899
 9322TIP3    H252162   7.434   3.281   2.511 -0.6222 -1.2466 -0.3179
 9323TIP3   OH252163   4.555   0.994   1.599  0.1346 -0.1374  0.2726
 9323TIP3    H152164   4.524   1.071   1.646  0.6755  0.6258 -0.6013
 9323TIP3    H252165   4.644   1.015   1.573  0.3016 -1.0682  0.0408
 9324TIP3   OH252166   0.363   0.422   1.768 -0.6008  0.1811  0.2122
 9324TIP3    H152167   0.431   0.487   1.786  1.2489 -1.6509  0.2205
 9324TIP3    H252168   0.411   0.342   1.748 -2.7465 -1.5952  1.6474
 9325TIP3   OH252169   5.153   3.290   1.687 -0.0512 -0.1518  0.3973
 9325TIP3    H152170   5.173   3.383   1.682  1.3772 -0.4543 -0.1707
 9325TIP3    H252171   5.157   3.269   1.780 -1.0126  0.4736  0.5838
 9326TIP3   OH252172   6.693   6.728   1.590  0.1881 -0.3664 -0.9553
 9326TIP3    H152173   6.749   6.790   1.544  0.7158 -0.6971 -0.7611
 9326TIP3    H252174   6.753   6.674   1.641 -0.3758  0.0133  0.1435
 9327TIP3   OH252175   2.934   3.424   2.382  0.5622 -0.1001 -0.0615
 9327TIP3    H152176   2.882   3.498   2.412 -0.4297 -0.9331  0.3478
 9327TIP3    H252177   2.937   3.433   2.287 -1.4582 -0.7205 -0.2287
 9328TIP3   OH252178   2.753   4.781   1.466  0.0005  0.2090 -0.7977
 9328TIP3    H152179   2.727   4.869   1.493  0.2556  0.0566 -0.0315
 9328TIP3    H252180   2.847   4.787   1.449  0.2494 -0.1788  0.3938
 9329TIP3   OH252181   0.757   3.775   1.077 -0.7143  0.1017  0.4604
 9329TIP3    H152182   0.665   3.765   1.101 -0.0834 -3.4410  2.2530
 9329TIP3    H252183   0.759   3.770   0.982 -2.3918  0.8675  0.3621
 9330TIP3   OH252184   2.096   5.672   0.684 -0.4511 -0.2559  0.4714
 9330TIP3    H152185   2.001   5.668   0.673 -0.3716 -0.3613 -0.2445
 9330TIP3    H252186   2.130   5.619   0.611  0.1112 -1.5112  1.6114
 9331TIP3   OH252187   5.150   0.650   0.872  0.3071  0.3500 -0.0402
 9331TIP3    H152188   5.065   0.642   0.830 -0.2807 -0.7231  1.2852
 9331TIP3    H252189   5.155   0.742   0.897 -0.0150  0.6418 -0.9965
 9332TIP3   OH252190   5.658   4.006   1.720  0.4621 -0.0594  0.4498
 9332TIP3    H152191   5.659   4.102   1.710 -1.1505  0.0289  0.9032
 9332TIP3    H252192   5.692   3.991   1.808 -0.4778  0.2008  0.8717
 9333TIP3   OH252193   1.153   2.309   2.589  0.2613  0.4524 -0.2083
 9333TIP3    H152194   1.091   2.370   2.548  0.1097  0.5499  0.1574
 9333TIP3    H252195   1.099   2.254   2.646  0.3408 -0.3298 -0.8828
 9334TIP3   OH252196   1.767   2.073   2.837 -0.0223  0.3845 -0.2113
 9334TIP3    H152197   1.710   2.006   2.800 -0.2269  0.6368 -0.3595
 9334TIP3    H252198   1.741   2.080   2.929  1.3532 -1.1607  0.3425
 9335TIP3   OH252199   7.171   0.733   0.738  0.3809  0.0201  0.2053
 9335TIP3    H152200   7.103   0.664   0.738  2.3832 -2.0835 -0.0575
 9335TIP3    H252201   7.243   0.695   0.787  1.8737  1.6611 -0.6291
 9336TIP3   OH252202   4.420   3.907   2.347  0.5834  0.1748 -0.0139
 9336TIP3    H152203   4.449   3.937   2.261  2.2475 -1.4128 -0.0553
 9336TIP3    H252204   4.363   3.832   2.328 -1.4605  1.5713  0.2054
 9337TIP3   OH252205   6.624   4.672   3.393 -0.0317 -0.0004 -0.0992
 9337TIP3    H152206   6.684   4.691   3.321 -0.2829  0.6834 -0.1360
 9337TIP3    H252207   6.540   4.655   3.350  0.2057 -1.3167 -0.0720
 9338TIP3   OH252208   7.550   4.348   1.637  0.3492 -0.1321  0.1914
 9338TIP3    H152209   7.465   4.305   1.633  0.2788  0.0841 -0.8353
 9338TIP3    H252210   7.558   4.377   1.728 -0.2050 -1.0879  0.5588
 9339TIP3   OH252211   6.935   1.165   1.102  0.6405 -0.1600 -0.2610
 9339TIP3    H152212   6.924   1.247   1.150  2.8660  0.6619 -1.0511
 9339TIP3    H252213   6.919   1.097   1.167 -0.5135  0.8855  0.5878
 9340TIP3   OH252214   6.212   5.360   2.382 -0.4339  0.3024 -0.2711
 9340TIP3    H152215   6.198   5.386   2.473 -2.3329 -0.4824 -0.2950
 9340TIP3    H252216   6.126   5.368   2.341  0.3514  0.5013 -1.9837
 9341TIP3   OH252217   0.799   7.141   2.484 -0.3198  0.0521  0.0391
 9341TIP3    H152218   0.783   7.226   2.444  0.5709 -0.2290 -0.9405
 9341TIP3    H252219   0.888   7.147   2.519 -0.6776 -0.0916  1.0184
 9342TIP3   OH252220   5.938   5.310   1.793 -0.7824  0.1730  0.0234
 9342TIP3    H152221   5.930   5.282   1.884  1.1787 -0.9494 -0.0911
 9342TIP3    H252222   5.952   5.405   1.798 -1.1499  0.1925  0.8414
 9343TIP3   OH252223   3.502   7.553   1.493  0.4751 -0.2410  0.3190
 9343TIP3    H152224   3.470   7.588   1.410  1.0697 -1.3355 -0.3987
 9343TIP3    H252225   3.530   7.631   1.542  0.6124  0.3965 -0.7222
 9344TIP3   OH252226   1.133   1.288   2.250  0.3360 -0.3943  0.1466
 9344TIP3    H152227   1.043   1.317   2.266  0.5643 -0.3423  1.4949
 9344TIP3    H252228   1.126   1.192   2.243 -0.0504 -0.2611 -1.5786
 9345TIP3   OH252229   1.469   1.004   2.360  0.2420  0.3338  0.1338
 9345TIP3    H152230   1.546   1.039   2.406  1.6790 -0.9963 -1.1543
 9345TIP3    H252231   1.505   0.952   2.289 -1.8072 -1.9538  0.6332
 9346TIP3   OH252232   2.218   1.241   3.713  0.2528  0.3363 -0.2079
 9346TIP3    H152233   2.210   1.325   3.667 -2.8566 -1.3662 -3.2751
 9346TIP3    H252234   2.284   1.193   3.664 -0.6644 -0.2779 -0.8854
 9347TIP3   OH252235   4.993   5.341   2.408  0.1019 -0.2614 -0.1872
 9347TIP3    H152236   5.076   5.319   2.451  0.4140  1.6913  0.3180
 9347TIP3    H252237   4.985   5.277   2.337  1.0319 -1.7310  0.9511
 9348TIP3   OH252238   7.271   4.882   2.528 -0.4284  0.1017 -0.1342
 9348TIP3    H152239   7.187   4.838   2.541 -1.1408  1.1732 -0.9672
 9348TIP3    H252240   7.333   4.829   2.578 -1.0164 -2.5710 -1.9682
 9349TIP3   OH252241   4.197   7.337   2.833 -0.3090  0.2359 -0.1141
 9349TIP3    H152242   4.105   7.364   2.825 -0.4352 -0.3277 -0.6505
 9349TIP3    H252243   4.243   7.415   2.863 -0.5429  1.2432 -2.2492
 9350TIP3   OH252244   2.498   5.788   1.459  0.6326  0.1505 -0.5595
 9350TIP3    H152245   2.467   5.700   1.437 -0.9251  0.5297 -0.0113
 9350TIP3    H252246   2.443   5.815   1.532  1.7379  1.2135 -0.0952
 9351TIP3   OH252247   2.487   5.286   0.855  0.0208  0.0644  0.0563
 9351TIP3    H152248   2.550   5.344   0.812  0.5490  0.7643  1.6777
 9351TIP3    H252249   2.402   5.328   0.842 -0.1583 -0.8426 -2.0735
 9352TIP3   OH252250   4.455   0.633   1.844 -0.3982  0.2175  0.0400
 9352TIP3    H152251   4.443   0.696   1.916  0.6875 -0.0058  0.4290
 9352TIP3    H252252   4.531   0.665   1.796  0.2149 -0.8431  0.2956
 9353TIP3   OH252253   1.557   0.249   1.012 -0.1726 -0.1897  0.0122
 9353TIP3    H152254   1.514   0.302   1.080 -1.1773 -1.7267  0.6264
 9353TIP3    H252255   1.516   0.277   0.930 -0.0246  0.6260  0.2091
 9354TIP3   OH252256   2.225   0.514   3.017  0.3135 -0.4024  0.1031
 9354TIP3    H152257   2.170   0.587   3.043  1.3195  0.1211  0.7921
 9354TIP3    H252258   2.275   0.492   3.095 -0.2443 -2.0973  0.0357
 9355TIP3   OH252259   4.179   2.545   0.575  0.0777  0.1238 -0.3542
 9355TIP3    H152260   4.246   2.543   0.507  0.3331 -1.0155 -0.0915
 9355TIP3    H252261   4.225   2.575   0.653  0.6627 -2.0354  0.1829
 9356TIP3   OH252262   4.152   1.409   1.623  0.3004  0.3420 -0.2440
 9356TIP3    H152263   4.207   1.475   1.665 -1.2910  1.2613  0.4937
 9356TIP3    H252264   4.099   1.373   1.694 -0.9728  0.4227 -1.1236
 9357TIP3   OH252265   5.654   5.666   1.698  0.5274 -0.7181 -0.3664
 9357TIP3    H152266   5.695   5.706   1.774 -0.4782  0.9791 -0.6691
 9357TIP3    H252267   5.560   5.674   1.714  0.3016 -0.5069 -1.6983
 9358TIP3   OH252268   0.011   0.277   0.597 -0.0547 -0.5242 -0.3969
 9358TIP3    H152269  -0.068   0.248   0.551  0.0931 -0.2450 -0.8342
 9358TIP3    H252270  -0.021   0.330   0.669 -0.2473  0.7447 -1.3730
 9359TIP3   OH252271   3.815   3.302   2.480  0.4151 -0.2773  0.3941
 9359TIP3    H152272   3.733   3.318   2.527  0.2065  0.9531 -0.3323
 9359TIP3    H252273   3.871   3.259   2.544  0.0572  1.1353  1.7250
 9360TIP3   OH252274   4.222   5.873   1.831  0.4289 -0.0455 -0.3744
 9360TIP3    H152275   4.247   5.955   1.790 -1.9367  1.2186  0.5361
 9360TIP3    H252276   4.270   5.871   1.914  0.9478  0.1041 -0.6697
 9361TIP3   OH252277   1.492   4.022   2.100  0.0642  0.7649  0.7182
 9361TIP3    H152278   1.536   4.041   2.183  0.2140 -0.3593  0.9075
 9361TIP3    H252279   1.402   4.054   2.112  0.0532  0.4943  1.3617
 9362TIP3   OH252280   6.536   7.364   0.959  0.4440 -0.7484  0.5522
 9362TIP3    H152281   6.599   7.432   0.985  0.2833 -1.3549  2.7832
 9362TIP3    H252282   6.458   7.382   1.012 -0.0085 -1.9837  0.3396
 9363TIP3   OH252283   0.464   2.428   3.061 -0.0596 -0.0782 -0.5661
 9363TIP3    H152284   0.471   2.401   3.153 -1.5400  0.7678 -0.1706
 9363TIP3    H252285   0.441   2.348   3.014 -2.5286  0.0375  0.3110
 9364TIP3   OH252286   2.986   6.314   2.164  0.0204  0.0511  0.2070
 9364TIP3    H152287   2.989   6.293   2.070 -1.2126  1.6723 -0.2242
 9364TIP3    H252288   3.052   6.382   2.175 -1.1363  1.2192  0.1150
 9365TIP3   OH252289   0.886   4.437   0.899  0.4930 -0.0941  0.2051
 9365TIP3    H152290   0.961   4.430   0.959 -0.1432  2.9845  1.5192
 9365TIP3    H252291   0.919   4.485   0.824  0.1995 -0.0834  0.0814
 9366TIP3   OH252292   3.651   2.268   2.716  0.4047 -0.4908  0.3642
 9366TIP3    H152293   3.636   2.246   2.808 -1.0080 -0.3273  0.1947
 9366TIP3    H252294   3.580   2.329   2.694  2.4205  1.8575 -0.0311
 9367TIP3   OH252295   1.145   5.898   2.099  0.2333  0.2396  0.0287
 9367TIP3    H152296   1.112   5.919   2.011 -1.9779 -0.5627  0.5970
 9367TIP3    H252297   1.084   5.943   2.158 -0.0806 -1.5657  1.1522
 9368TIP3   OH252298   2.774   4.514   1.092 -0.3102  0.2225 -0.3031
 9368TIP3    H152299   2.809   4.465   1.166  0.5143  1.0735 -0.1248
 9368TIP3    H252300   2.696   4.559   1.127 -1.5377 -1.5191 -0.6581
 9369TIP3   OH252301   5.179   0.525   2.286  0.0718 -1.0665 -0.0722
 9369TIP3    H152302   5.161   0.477   2.367  0.7190 -0.4633  0.4424
 9369TIP3    H252303   5.272   0.548   2.293  0.1215 -0.9874 -0.9789
 9370TIP3   OH252304   7.528   0.352   2.348  0.4466  0.0354  0.3177
 9370TIP3    H152305   7.520   0.329   2.255 -1.6765 -1.1694  0.7290
 9370TIP3    H252306   7.456   0.413   2.364  1.9535  1.7636  0.7944
 9371TIP3   OH252307   3.894   5.460   2.481  0.6087 -0.2500 -0.3323
 9371TIP3    H152308   3.928   5.525   2.420 -1.0492  0.0780 -0.9592
 9371TIP3    H252309   3.806   5.440   2.449  0.5822 -1.8324  0.6084
 9372TIP3   OH252310   3.990   5.896   3.232 -0.2640  0.8151  0.4530
 9372TIP3    H152311   3.969   5.830   3.166 -0.9198  0.9751  0.4955
 9372TIP3    H252312   3.979   5.979   3.187 -3.1639  1.0231  1.4025
 9373TIP3   OH252313   3.926   6.721   1.059 -0.2768  0.3218  0.1677
 9373TIP3    H152314   3.874   6.671   0.995  0.1066 -1.1979  0.9966
 9373TIP3    H252315   3.870   6.795   1.082 -0.0329  1.5317 -2.6404
 9374TIP3   OH252316   1.044   2.856   2.238 -0.0574  0.3186 -0.0047
 9374TIP3    H152317   0.994   2.808   2.304  2.0033 -1.7169  0.2144
 9374TIP3    H252318   1.136   2.833   2.256  0.7639  1.6839 -2.0633
 9375TIP3   OH252319   0.880   2.165   1.107 -0.1963  0.2597  0.0207
 9375TIP3    H152320   0.801   2.209   1.074  0.0654 -1.0020 -2.4296
 9375TIP3    H252321   0.894   2.091   1.048  0.6340 -1.8964  2.7174
 9376TIP3   OH252322   5.833   1.538   2.125  0.0006 -0.3790  0.0815
 9376TIP3    H152323   5.887   1.533   2.204  0.0348  1.6460  0.2191
 9376TIP3    H252324   5.805   1.629   2.120 -0.9896 -0.7323 -1.6074
 9377TIP3   OH252325   1.942   1.033   1.073 -0.6017 -0.4775  0.3676
 9377TIP3    H152326   1.874   0.967   1.086 -1.6926  0.7199  1.0071
 9377TIP3    H252327   1.942   1.083   1.155  0.6952 -0.1182  0.1692
 9378TIP3   OH252328   7.313   2.138   0.675 -0.1854  0.1199  0.0563
 9378TIP3    H152329   7.326   2.098   0.761  0.4522 -0.6640 -0.3913
 9378TIP3    H252330   7.223   2.169   0.677  0.2434  1.3989  1.5252
 9379TIP3   OH252331   6.084   0.587   1.901  0.1646  0.3881  0.1036
 9379TIP3    H152332   6.148   0.644   1.858  0.5693 -0.7927 -0.9243
 9379TIP3    H252333   6.014   0.646   1.928  1.9833  1.8621  1.9687
 9380TIP3   OH252334   7.614   7.295   2.879 -0.5334  0.2928  0.1135
 9380TIP3    H152335   7.524   7.275   2.851 -0.3495  0.1193 -0.3629
 9380TIP3    H252336   7.669   7.264   2.807  0.0077 -0.8352  0.9910
 9381TIP3   OH252337   2.238   0.678   0.989  0.2244  0.8393  0.1151
 9381TIP3    H152338   2.264   0.606   0.932 -0.4318  1.3397 -0.8580
 9381TIP3    H252339   2.238   0.641   1.077 -0.2656 -0.3988 -0.3858
 9382TIP3   OH252340   5.461   1.725   1.098  0.1234  0.1353  0.1672
 9382TIP3    H152341   5.500   1.799   1.052 -2.0138  1.7227  0.7064
 9382TIP3    H252342   5.411   1.679   1.031 -1.1921  1.1638  0.3787
 9383TIP3   OH252343   4.688   6.427   1.081  0.0415 -0.2572  0.2813
 9383TIP3    H152344   4.769   6.380   1.061  0.1707 -0.3367  0.9711
 9383TIP3    H252345   4.715   6.519   1.088  0.3100 -0.4224  1.7160
 9384TIP3   OH252346   2.983   1.755   1.961 -0.0609  0.1920 -0.2117
 9384TIP3    H152347   2.942   1.819   1.903 -1.3929 -0.0013  0.4932
 9384TIP3    H252348   3.023   1.808   2.030  0.3031  0.3437 -0.5350
 9385TIP3   OH252349   3.963   5.090   1.756 -0.4463 -0.1574 -0.1799
 9385TIP3    H152350   4.039   5.134   1.718  0.1265 -0.8574  0.1344
 9385TIP3    H252351   3.964   5.003   1.718 -0.9735 -0.2419 -0.0136
 9386TIP3   OH252352   0.779   5.121   0.867 -0.4214 -0.0711 -0.1470
 9386TIP3    H152353   0.834   5.152   0.796  0.3032 -0.9244  0.0175
 9386TIP3    H252354   0.716   5.063   0.825 -0.0741 -0.4732 -0.1261
 9387TIP3   OH252355   5.921   1.300   1.325  0.3002 -0.8047 -0.3338
 9387TIP3    H152356   5.896   1.224   1.272  1.1697 -0.2638 -1.5489
 9387TIP3    H252357   6.000   1.333   1.284 -0.3966  1.1389 -0.2067
 9388TIP3   OH252358   7.225   6.170   0.865 -0.0849 -0.6265 -0.0677
 9388TIP3    H152359   7.204   6.226   0.940 -2.5787  0.8336 -1.7203
 9388TIP3    H252360   7.292   6.218   0.817  0.0995 -0.6017  0.2169
 9389TIP3   OH252361   1.552   7.130   1.057  0.7180 -0.0469  0.0834
 9389TIP3    H152362   1.488   7.142   1.127  1.2793  2.2642  0.2965
 9389TIP3    H252363   1.636   7.157   1.096  0.7923  3.0419 -1.8211
 9390TIP3   OH252364   0.731   2.257   2.511 -0.0876  0.5179  0.1791
 9390TIP3    H152365   0.677   2.207   2.450 -0.1319  1.8078 -0.8843
 9390TIP3    H252366   0.669   2.309   2.561  0.1111  2.7124 -1.6836
 9391TIP3   OH252367   3.746   2.655   0.500  0.4098  0.2163 -0.0395
 9391TIP3    H152368   3.739   2.569   0.543  1.7563 -0.1846 -0.5578
 9391TIP3    H252369   3.699   2.645   0.418  1.2939 -0.3237 -0.4955
 9392TIP3   OH252370   3.285   1.231   0.651  0.6558 -0.0709 -0.1743
 9392TIP3    H152371   3.326   1.230   0.565  0.3166 -2.0708 -0.3462
 9392TIP3    H252372   3.310   1.148   0.692 -1.2057 -0.2781  0.6603
 9393TIP3   OH252373   6.817   0.060   1.777 -0.2634  0.2826  0.6621
 9393TIP3    H152374   6.768   0.136   1.809 -0.3829  0.7319 -0.5502
 9393TIP3    H252375   6.821   0.072   1.682  2.3322  0.3585  0.7049
 9394TIP3   OH252376   6.840   4.189   0.795 -0.1087 -0.3130 -0.2939
 9394TIP3    H152377   6.816   4.259   0.856  0.6617  0.7144 -1.1257
 9394TIP3    H252378   6.764   4.131   0.795  0.5141 -1.3101  2.9138
 9395TIP3   OH252379   4.736   2.878   1.841 -0.8471  0.2666 -0.1460
 9395TIP3    H152380   4.819   2.830   1.837 -0.6421  0.5913  0.0686
 9395TIP3    H252381   4.686   2.834   1.909 -1.1531 -0.3885 -0.7897
 9396TIP3   OH252382   4.770   7.439   1.611 -0.6021  0.2551  0.3829
 9396TIP3    H152383   4.689   7.445   1.661 -0.1964  1.9143  0.9039
 9396TIP3    H252384   4.774   7.520   1.561  0.4867 -0.0227 -0.0150
 9397TIP3   OH252385   4.361   6.337   1.580 -0.0129  0.0219 -0.5717
 9397TIP3    H152386   4.280   6.287   1.584 -0.8356  1.3039 -0.5308
 9397TIP3    H252387   4.340   6.412   1.524  1.2470  0.2003 -0.8327
 9398TIP3   OH252388   1.952   5.397   3.597 -0.6704  0.5936 -0.5644
 9398TIP3    H152389   1.972   5.467   3.534  0.7531  0.4356 -0.3140
 9398TIP3    H252390   1.866   5.365   3.570 -0.2608  0.7876 -2.1971
 9399TIP3   OH252391   7.082   6.483   3.503  0.2588  0.0096  0.1457
 9399TIP3    H152392   7.076   6.388   3.511  2.3342 -0.1009  1.2534
 9399TIP3    H252393   7.173   6.499   3.477 -0.4061  1.6479 -1.3451
 9400TIP3   OH252394   2.428   3.356   1.196  0.2445 -0.2790 -0.0050
 9400TIP3    H152395   2.381   3.370   1.278  0.6457  2.4899 -0.1233
 9400TIP3    H252396   2.481   3.278   1.211 -0.4795 -0.4286  1.9984
 9401TIP3   OH252397   5.972   2.986   2.229 -0.0249  0.0066 -0.2046
 9401TIP3    H152398   5.986   3.002   2.136 -0.7283  0.3267 -0.2611
 9401TIP3    H252399   5.906   3.050   2.255 -1.0104 -1.1285  0.1600
 9402TIP3   OH252400   5.294   0.592   1.770  0.0565  0.6007 -0.2103
 9402TIP3    H152401   5.286   0.685   1.750  1.9859  0.4720 -1.8406
 9402TIP3    H252402   5.340   0.589   1.854 -0.4548  1.1092  0.0918
 9403TIP3   OH252403   6.126   4.918   1.887 -0.6108  0.4107  0.1488
 9403TIP3    H152404   6.040   4.940   1.851  0.3833  1.7502 -1.5910
 9403TIP3    H252405   6.154   4.998   1.932  0.4176  0.6413 -0.8327
 9404TIP3   OH252406   5.263   6.606   2.260 -0.0101 -0.1666 -0.0927
 9404TIP3    H152407   5.195   6.637   2.201  0.1507 -1.1550 -0.8208
 9404TIP3    H252408   5.336   6.582   2.202 -0.5902 -3.1591  0.2443
 9405TIP3   OH252409   6.843   0.534   2.964  0.2274  0.0085  0.2259
 9405TIP3    H152410   6.748   0.531   2.964  0.1725  1.0679  0.3277
 9405TIP3    H252411   6.871   0.443   2.953 -0.7988 -0.2340 -0.5651
 9406TIP3   OH252412   2.084   4.814   1.519  0.6052 -0.1231  0.0276
 9406TIP3    H152413   2.161   4.793   1.465  0.2143 -2.0902  0.1661
 9406TIP3    H252414   2.120   4.831   1.606  1.0611  1.1909 -0.3901
 9407TIP3   OH252415   0.968   7.526   3.466  0.8227 -0.1786  0.3958
 9407TIP3    H152416   0.977   7.460   3.398  2.5678  0.0850  0.3229
 9407TIP3    H252417   1.022   7.494   3.538  0.3472  0.3647  1.0093
 9408TIP3   OH252418   3.047   3.875   3.009  0.2053 -0.0460  0.6122
 9408TIP3    H152419   2.998   3.837   3.082  1.0291  2.3603  2.5544
 9408TIP3    H252420   3.131   3.899   3.047  0.7212  1.1716 -1.1786
 9409TIP3   OH252421   7.674   5.136   2.664  0.0813  0.2455  0.5202
 9409TIP3    H152422   7.754   5.184   2.685 -0.5427  0.4043  2.9230
 9409TIP3    H252423   7.611   5.166   2.731 -1.2119 -1.7367  0.2674
 9410TIP3   OH252424   5.491   4.156   0.767 -0.2050 -0.1867  0.2741
 9410TIP3    H152425   5.512   4.063   0.762 -2.0914 -0.6220 -0.7828
 9410TIP3    H252426   5.574   4.201   0.757  0.6691 -1.7509  0.2805
 9411TIP3   OH252427   0.895   4.573   1.254 -0.0247  0.1500  0.4047
 9411TIP3    H152428   0.956   4.573   1.181 -0.9438 -0.9295 -0.3972
 9411TIP3    H252429   0.949   4.589   1.331  1.0343  0.7474 -0.4425
 9412TIP3   OH252430   5.310   7.519   0.976 -0.3860  0.0607  0.6787
 9412TIP3    H152431   5.277   7.441   1.019 -2.5821  2.1281  3.0830
 9412TIP3    H252432   5.368   7.560   1.040  1.3561  0.0807 -0.8288
 9413TIP3   OH252433   5.846   6.224   1.650 -0.1337 -0.4348 -0.3634
 9413TIP3    H152434   5.889   6.309   1.637 -0.0297 -0.2657  0.9859
 9413TIP3    H252435   5.810   6.203   1.564 -0.5003  1.1657 -0.6335
 9414TIP3   OH252436   6.508   4.385   1.156  0.4230  0.0462 -0.5020
 9414TIP3    H152437   6.464   4.376   1.071 -0.6696  0.8673 -0.0451
 9414TIP3    H252438   6.496   4.477   1.180  0.8063 -0.1502  0.4940
 9415TIP3   OH252439   4.520   5.650   1.202  0.3661 -0.6784  0.3278
 9415TIP3    H152440   4.509   5.745   1.202 -1.6948 -0.8695 -0.2414
 9415TIP3    H252441   4.486   5.622   1.288 -0.0521 -0.9733  0.0713
 9416TIP3   OH252442   1.184   6.678   0.889 -0.1337  0.0390 -0.2362
 9416TIP3    H152443   1.110   6.730   0.858  0.6545  1.0227 -0.5295
 9416TIP3    H252444   1.215   6.724   0.967  0.0760 -0.4442 -0.0294
 9417TIP3   OH252445   5.240   3.528   1.090 -0.4283  0.0943  0.3308
 9417TIP3    H152446   5.329   3.523   1.123 -0.9726 -4.0013  1.7767
 9417TIP3    H252447   5.185   3.507   1.165 -2.3115 -0.8969 -1.2160
 9418TIP3   OH252448   6.729   4.540   1.796  0.1758  0.0916  0.0366
 9418TIP3    H152449   6.773   4.608   1.848 -1.4273  0.6604  0.7037
 9418TIP3    H252450   6.664   4.588   1.745  0.0265 -0.7859 -0.6063
 9419TIP3   OH252451   2.756   0.579   1.252 -0.2278  0.1746  0.2411
 9419TIP3    H152452   2.738   0.552   1.342  0.5564  2.5728  1.1790
 9419TIP3    H252453   2.689   0.645   1.233  0.1403  0.3083 -0.6287
 9420TIP3   OH252454   1.559   4.705   2.518  0.0855  0.0480  0.0062
 9420TIP3    H152455   1.498   4.635   2.496 -1.2086  1.3855 -0.8635
 9420TIP3    H252456   1.537   4.728   2.608  0.4144 -0.5312  0.2436
 9421TIP3   OH252457   5.899   5.423   1.419  0.0241 -0.2105 -0.1250
 9421TIP3    H152458   5.959   5.471   1.362  0.0727 -0.0162  0.0886
 9421TIP3    H252459   5.853   5.363   1.361  0.4878 -0.4185 -0.2769
 9422TIP3   OH252460   1.831   0.199   0.853  0.1061  0.2334 -0.1417
 9422TIP3    H152461   1.909   0.250   0.876  1.1115 -2.6498  4.0470
 9422TIP3    H252462   1.764   0.229   0.915 -0.7296 -0.3693 -0.7357
 9423TIP3   OH252463   7.283   3.957   2.077 -1.1099 -0.5302 -0.0552
 9423TIP3    H152464   7.243   3.905   2.008 -1.2395  1.0369 -1.1944
 9423TIP3    H252465   7.211   4.006   2.116 -1.0215 -1.3080  1.1454
 9424TIP3   OH252466   4.677   1.599   2.382  0.2122  0.1092  0.6163
 9424TIP3    H152467   4.658   1.530   2.318  0.2358  1.3183 -0.7426
 9424TIP3    H252468   4.617   1.670   2.360  1.4683  1.2571  0.7541
 9425TIP3   OH252469   2.668   2.816   2.120  0.4058 -0.3363  0.5113
 9425TIP3    H152470   2.588   2.840   2.073  0.6190  1.5242  1.0399
 9425TIP3    H252471   2.657   2.722   2.138 -2.2174  0.0771  1.6024
 9426TIP3   OH252472   5.015   6.402   1.662 -0.2641  0.4056  0.0104
 9426TIP3    H152473   4.957   6.338   1.622 -1.9414  0.2763  2.3878
 9426TIP3    H252474   5.010   6.478   1.604 -1.4699 -0.2154 -0.7470
 9427TIP3   OH252475   7.579   7.160   1.880 -0.4331  0.8873 -0.0922
 9427TIP3    H152476   7.568   7.255   1.880 -0.2967  0.9348  1.6193
 9427TIP3    H252477   7.590   7.138   1.972  1.1206 -0.6051 -0.5956
 9428TIP3   OH252478   2.089   3.798   1.699  0.2324  0.2103 -0.2766
 9428TIP3    H152479   2.185   3.795   1.700  0.2930  1.6463 -0.2542
 9428TIP3    H252480   2.068   3.871   1.642 -0.9347 -1.5903 -2.3022
 9429TIP3   OH252481   7.088   2.538   3.201 -0.1948 -0.9811  0.3567
 9429TIP3    H152482   7.178   2.514   3.223  1.3763  0.7968 -3.2263
 9429TIP3    H252483   7.079   2.628   3.232  0.8335  0.2782 -2.5639
 9430TIP3   OH252484   5.624   0.061   1.573 -0.0129 -0.4003  0.0773
 9430TIP3    H152485   5.562   0.095   1.509 -0.4059  0.1379  0.7339
 9430TIP3    H252486   5.682   0.134   1.592 -1.9717  0.6037  2.8669
 9431TIP3   OH252487   3.100   0.971   1.100  0.3546  0.2602  0.1399
 9431TIP3    H152488   3.058   0.898   1.144  1.0743  0.0447  0.4937
 9431TIP3    H252489   3.083   0.957   1.007 -0.2292  0.1111  0.2645
 9432TIP3   OH252490   3.192   0.929   2.232 -0.2586  0.0922  0.4723
 9432TIP3    H152491   3.148   0.856   2.188 -0.7332  0.8845 -0.3953
 9432TIP3    H252492   3.188   0.907   2.325 -0.8303 -0.7476  0.2559
 9433TIP3   OH252493   6.842   1.180   2.341 -0.5745 -0.7152 -0.1715
 9433TIP3    H152494   6.759   1.168   2.295 -0.6936 -0.4682 -0.0200
 9433TIP3    H252495   6.900   1.218   2.276 -0.5595 -0.9438 -0.2959
 9434TIP3   OH252496   0.878   1.349   3.017 -0.0709 -0.1980 -0.4644
 9434TIP3    H152497   0.848   1.435   2.988  1.2121 -0.2659 -2.1775
 9434TIP3    H252498   0.803   1.311   3.062 -0.9671  1.4374 -0.5014
 9435TIP3   OH252499   5.715   2.097   1.651  0.0890 -0.5505 -0.0982
 9435TIP3    H152500   5.630   2.112   1.609  0.0577 -0.5626 -0.0384
 9435TIP3    H252501   5.694   2.075   1.741  0.1928  0.4813  0.1979
 9436TIP3   OH252502   1.175   0.290   1.388  0.6217  0.1378 -0.3174
 9436TIP3    H152503   1.265   0.320   1.404  0.3822  2.4924 -2.6967
 9436TIP3    H252504   1.122   0.340   1.450  0.8161 -0.5125  0.3952
 9437TIP3   OH252505   4.256   7.557   0.787  0.3607 -0.1937 -0.2207
 9437TIP3    H152506   4.209   7.638   0.807 -0.4066  0.1531 -2.9899
 9437TIP3    H252507   4.202   7.514   0.721  1.2617 -2.5168  0.4578
 9438TIP3   OH252508   6.315   4.144   0.883 -0.1971 -0.0769  0.1882
 9438TIP3    H152509   6.295   4.051   0.898  0.0792  0.0086  1.2025
 9438TIP3    H252510   6.406   4.153   0.913 -0.1475  0.4760 -0.1270
 9439TIP3   OH252511   3.539   2.447   1.697 -0.0978 -0.0539  0.0206
 9439TIP3    H152512   3.469   2.512   1.710  0.7742  0.6905  1.1948
 9439TIP3    H252513   3.506   2.368   1.740 -1.1646 -0.4345 -1.4120
 9440TIP3   OH252514   7.196   0.370   1.956 -0.2423  0.2157 -0.2026
 9440TIP3    H152515   7.188   0.276   1.942  0.3816  0.2635 -0.9731
 9440TIP3    H252516   7.137   0.389   2.029 -1.7092 -0.4877 -1.1600
 9441TIP3   OH252517   1.374   1.620   1.137  0.0167  0.3828 -0.1515
 9441TIP3    H152518   1.436   1.645   1.205  0.8616  1.5766 -1.3159
 9441TIP3    H252519   1.321   1.550   1.176  1.0901  0.4047  1.3813
 9442TIP3   OH252520   1.859   2.503   0.980  0.0764  0.2057  0.0498
 9442TIP3    H152521   1.887   2.584   0.937  0.7429  0.0496  0.1841
 9442TIP3    H252522   1.804   2.459   0.915 -0.2960  0.7635 -0.0208
 9443TIP3   OH252523   5.708   7.055   1.309 -0.5519  0.6415  0.0167
 9443TIP3    H152524   5.732   7.134   1.259  2.6165  0.3871  0.9021
 9443TIP3    H252525   5.653   7.087   1.380 -0.1949  1.9085 -0.2511
 9444TIP3   OH252526   0.402   2.260   2.022  0.1554 -0.1071 -0.0954
 9444TIP3    H152527   0.362   2.228   2.103 -0.0756 -0.1016 -0.2048
 9444TIP3    H252528   0.336   2.242   1.955  0.5608 -0.5915 -0.3667
 9445TIP3   OH252529   3.167   0.377   2.791 -0.1233  0.5370  0.3897
 9445TIP3    H152530   3.211   0.348   2.711 -1.7846  0.0518 -0.4103
 9445TIP3    H252531   3.173   0.303   2.851  1.7921  1.1683  1.0614
 9446TIP3   OH252532   3.735   5.728   2.916 -0.0290 -0.0366  0.3224
 9446TIP3    H152533   3.816   5.709   2.963  1.2139  2.0273 -0.8101
 9446TIP3    H252534   3.765   5.757   2.829 -2.1202 -1.6372 -1.0296
 9447TIP3   OH252535   4.981   4.015   0.485  0.0807 -0.3499 -0.4767
 9447TIP3    H152536   5.035   3.944   0.519 -0.0213  0.9693  2.7533
 9447TIP3    H252537   4.893   3.996   0.518  0.1079  1.3605  0.6927
 9448TIP3   OH252538   1.131   2.493   0.767 -0.5706  0.1636 -0.0327
 9448TIP3    H152539   1.110   2.553   0.695  1.5147 -1.8620 -2.4952
 9448TIP3    H252540   1.055   2.436   0.773 -0.6995  0.2474 -0.7520
 9449TIP3   OH252541   6.489   7.453   1.940  0.0230 -0.5279  0.0730
 9449TIP3    H152542   6.583   7.470   1.937 -0.1296  0.2617 -0.8213
 9449TIP3    H252543   6.481   7.359   1.956  0.9559 -0.5946  0.1736
 9450TIP3   OH252544   6.576   7.303   2.475 -0.2028 -0.5256 -0.3600
 9450TIP3    H152545   6.643   7.238   2.452 -0.2856 -1.4308  1.7378
 9450TIP3    H252546   6.503   7.251   2.508 -0.6755  0.5825  0.3900
 9451TIP3   OH252547   1.788   5.878   2.569  0.0423 -0.3202 -0.9041
 9451TIP3    H152548   1.842   5.935   2.514 -0.5785  0.1570 -1.0251
 9451TIP3    H252549   1.760   5.934   2.642  2.4636 -1.4205  1.0414
 9452TIP3   OH252550   0.085   4.208   1.930  0.1490  0.1222  0.0172
 9452TIP3    H152551   0.062   4.300   1.938  3.5470  1.1038 -0.1123
 9452TIP3    H252552   0.102   4.195   1.837 -0.3660 -0.6747  0.0213
 9453TIP3   OH252553   1.511   5.921   1.801 -0.2188 -0.7533  0.1240
 9453TIP3    H152554   1.565   5.950   1.875 -0.9160 -0.3796  0.4872
 9453TIP3    H252555   1.555   5.958   1.724 -0.6785  0.6614  0.5177
 9454TIP3   OH252556   4.958   7.612   1.235 -0.0336  0.1911 -0.2091
 9454TIP3    H152557   5.042   7.581   1.269 -0.0607  0.8111  0.4290
 9454TIP3    H252558   4.913   7.532   1.207  0.8366 -0.1289 -0.7353
 9455TIP3   OH252559   4.695   0.603   2.611  0.1217  0.0136 -0.4806
 9455TIP3    H152560   4.706   0.537   2.680  0.2339  0.0059 -0.5063
 9455TIP3    H252561   4.663   0.681   2.656 -0.1819 -0.1134 -0.4733
 9456TIP3   OH252562   0.897   3.238   1.385 -0.0433 -0.2017 -0.2640
 9456TIP3    H152563   0.887   3.156   1.434 -2.1637  0.7061  0.9924
 9456TIP3    H252564   0.944   3.213   1.306  1.5802 -2.1474  1.2175
 9457TIP3   OH252565   6.034   0.832   1.219 -0.4212  0.1510  0.0856
 9457TIP3    H152566   5.997   0.872   1.140 -1.2244 -0.1147  0.3117
 9457TIP3    H252567   6.118   0.796   1.191 -1.3415 -1.2415 -1.0341
 9458TIP3   OH252568   7.540   6.832   2.383  0.4630  0.5249  0.4916
 9458TIP3    H152569   7.598   6.894   2.427  1.1507 -0.1948  0.6233
 9458TIP3    H252570   7.454   6.848   2.422  0.5068  1.7599  0.1326
 9459TIP3   OH252571   4.180   7.213   0.955  0.1246  0.0577 -0.1492
 9459TIP3    H152572   4.105   7.256   0.914 -0.1137 -1.0373 -0.9257
 9459TIP3    H252573   4.141   7.150   1.016  0.2655 -2.0703 -2.1156
 9460TIP3   OH252574   4.268   0.384   0.921 -0.7095 -0.0966 -0.9402
 9460TIP3    H152575   4.343   0.417   0.969  0.5341 -2.5233 -1.0716
 9460TIP3    H252576   4.254   0.449   0.852  0.4728  1.0203 -0.1852
 9461TIP3   OH252577   7.524   5.207   2.021 -0.6927  0.0449 -0.5152
 9461TIP3    H152578   7.448   5.179   2.073  0.2629  0.0756  0.9636
 9461TIP3    H252579   7.560   5.126   1.985  1.1091 -0.6192  2.4232
 9462TIP3   OH252580   4.236   3.209   2.225 -0.2436  0.1720 -0.0230
 9462TIP3    H152581   4.156   3.262   2.229  0.1049  0.9514 -2.3757
 9462TIP3    H252582   4.253   3.197   2.132  2.5725  0.2854  0.4028
 9463TIP3   OH252583   6.763   4.234   2.200 -0.2428  0.1552 -0.1899
 9463TIP3    H152584   6.781   4.177   2.275 -1.1904 -2.1400 -1.6324
 9463TIP3    H252585   6.670   4.225   2.184 -0.1567  1.0534 -1.3416
 9464TIP3   OH252586   3.275   0.333   1.324 -0.1138  0.4449  0.1396
 9464TIP3    H152587   3.216   0.263   1.296 -0.0762  0.5371 -0.1766
 9464TIP3    H252588   3.354   0.319   1.272  0.3700 -0.0396  0.9922
 9465TIP3   OH252589   6.423   6.665   1.257  0.6672 -0.1267  0.6046
 9465TIP3    H152590   6.513   6.662   1.225 -0.1905  0.4308 -2.0805
 9465TIP3    H252591   6.384   6.583   1.225 -0.5031  0.9183 -0.7582
 9466TIP3   OH252592   4.793   6.877   0.860  0.1870  0.2788  0.4827
 9466TIP3    H152593   4.860   6.832   0.809  0.3664  0.9773  0.0993
 9466TIP3    H252594   4.710   6.841   0.828  0.2781  0.9465 -0.5504
 9467TIP3   OH252595   7.231   4.185   0.519  0.4533 -0.1049 -0.2200
 9467TIP3    H152596   7.317   4.152   0.497  0.1654 -0.6642 -0.5248
 9467TIP3    H252597   7.198   4.126   0.587 -0.2383 -0.7249 -1.0789
 9468TIP3   OH252598   7.297   4.729   0.804  0.0929 -0.2688  0.1889
 9468TIP3    H152599   7.295   4.824   0.818  0.2096 -0.3785  1.0099
 9468TIP3    H252600   7.212   4.708   0.767 -0.4331 -0.0088  1.1989
 9469TIP3   OH252601   7.060   0.216   1.051 -0.2027  0.6031 -0.2890
 9469TIP3    H152602   7.141   0.264   1.070  0.2407 -0.6218  1.1012
 9469TIP3    H252603   7.005   0.231   1.128 -0.2613 -0.6589 -0.0588
 9470TIP3   OH252604   6.616   3.439   0.644  0.4361 -0.2688 -0.0189
 9470TIP3    H152605   6.646   3.468   0.558 -1.1248 -1.1593 -0.8951
 9470TIP3    H252606   6.637   3.513   0.702 -0.0264  1.0686 -1.4772
 9471TIP3   OH252607   7.431   0.182   1.858 -0.3241 -0.2935 -0.0574
 9471TIP3    H152608   7.405   0.174   1.766 -0.0428 -1.7001 -0.0377
 9471TIP3    H252609   7.511   0.130   1.865 -0.0862  0.1850  0.8903
 9472TIP3   OH252610   3.371   0.492   2.279  0.0251 -0.5041 -0.0731
 9472TIP3    H152611   3.339   0.417   2.329  1.0579 -0.2437  1.0278
 9472TIP3    H252612   3.307   0.503   2.209  0.7359 -3.4657 -1.3399
 9473TIP3   OH252613   7.345   5.054   1.757  0.6708  0.4430  0.4568
 9473TIP3    H152614   7.347   4.990   1.687 -1.7409 -1.5492  2.0358
 9473TIP3    H252615   7.416   5.028   1.816  0.9556  0.4452  0.1149
 9474TIP3   OH252616   3.580   6.862   1.431  0.7663  0.3267 -0.1258
 9474TIP3    H152617   3.648   6.862   1.364  2.4468 -0.6422  1.4772
 9474TIP3    H252618   3.625   6.887   1.511 -1.1663  1.4216  0.6976
 9475TIP3   OH252619   5.402   4.820   2.108 -0.1065 -0.1096 -0.4973
 9475TIP3    H152620   5.326   4.762   2.112  0.0601 -0.2899  0.4001
 9475TIP3    H252621   5.471   4.768   2.067  0.2139 -0.7856  0.8133
 9476TIP3   OH252622   4.147   3.707   2.324 -0.4649 -0.0371  0.3811
 9476TIP3    H152623   4.159   3.625   2.371 -1.8708 -1.2013 -1.2027
 9476TIP3    H252624   4.178   3.690   2.235 -0.9682  1.0686 -0.0393
 9477TIP3   OH252625   5.498   2.964   1.181  0.2165 -0.3061  0.4227
 9477TIP3    H152626   5.500   2.870   1.199  1.4856 -0.7235 -1.5686
 9477TIP3    H252627   5.435   2.973   1.110  0.3095  0.3170  0.4158
 9478TIP3   OH252628   2.418   0.664   2.184  0.1829 -0.1912 -0.0521
 9478TIP3    H152629   2.454   0.696   2.266  2.7372  1.2751 -1.6289
 9478TIP3    H252630   2.450   0.574   2.177  3.8572  1.0534 -1.3951
 9479TIP3   OH252631   6.478   5.254   2.479 -0.3468 -0.2162 -0.0291
 9479TIP3    H152632   6.512   5.269   2.391  0.3586  1.4605  0.4920
 9479TIP3    H252633   6.383   5.245   2.467 -0.2611  0.0415 -0.9448
 9480TIP3   OH252634   0.332   0.109   2.686  0.2188  0.0302  0.4979
 9480TIP3    H152635   0.333   0.100   2.782 -0.7120 -0.3301  0.4857
 9480TIP3    H252636   0.384   0.187   2.669  0.1072  0.2955  1.3246
 9481TIP3   OH252637   6.654   6.593   1.120 -0.1058 -0.1653  0.3393
 9481TIP3    H152638   6.702   6.529   1.173 -2.3214 -2.0707  0.2241
 9481TIP3    H252639   6.722   6.642   1.074  1.7251 -1.9862  0.9588
 9482TIP3   OH252640   4.365   0.948   3.082  0.5217 -0.1919  0.0024
 9482TIP3    H152641   4.382   1.019   3.020  2.0310  0.1303  0.7518
 9482TIP3    H252642   4.451   0.927   3.118  0.0051 -1.9574  0.2871
 9483TIP3   OH252643   5.474   2.516   3.060 -0.5386 -0.4516  0.1357
 9483TIP3    H152644   5.394   2.471   3.084 -0.2709 -0.9869  0.0270
 9483TIP3    H252645   5.464   2.604   3.097 -1.8305 -0.0175 -1.1196
 9484TIP3   OH252646   5.191   2.726   0.730  0.0365  0.3833  0.0441
 9484TIP3    H152647   5.265   2.693   0.781 -0.1801  0.7482  0.6004
 9484TIP3    H252648   5.131   2.652   0.724  0.6111 -0.0371 -0.7474
 9485TIP3   OH252649   2.276   0.111   2.347  0.1506 -0.0898 -0.1131
 9485TIP3    H152650   2.303   0.028   2.308 -0.7337 -1.0709  1.2804
 9485TIP3    H252651   2.197   0.090   2.397 -0.7248  1.8146 -0.5986
 9486TIP3   OH252652   0.264   2.907   1.454 -0.0625  0.1075 -0.2625
 9486TIP3    H152653   0.227   2.844   1.392  1.0307  1.2767 -2.2228
 9486TIP3    H252654   0.272   2.988   1.403  3.5831  0.3810  0.4896
 9487TIP3   OH252655   2.078   1.247   2.417  0.4993 -0.2168  0.1477
 9487TIP3    H152656   2.043   1.251   2.327 -1.6493  1.4757  0.9703
 9487TIP3    H252657   2.153   1.305   2.416 -0.6099  1.2710 -0.1675
 9488TIP3   OH252658   4.752   0.532   1.515 -0.4498  0.5980  0.1622
 9488TIP3    H152659   4.684   0.593   1.487 -0.9413 -0.0919 -0.1649
 9488TIP3    H252660   4.705   0.454   1.543  0.2177 -0.1779 -0.7799
 9489TIP3   OH252661   5.910   2.756   1.944  0.2086  0.4423  0.3021
 9489TIP3    H152662   5.922   2.851   1.937  0.4449  0.7101  3.1587
 9489TIP3    H252663   5.913   2.738   2.038 -0.7792 -2.2979 -0.0874
 9490TIP3   OH252664   1.812   6.313   2.999 -0.0706  0.4150  0.0739
 9490TIP3    H152665   1.829   6.234   2.948  0.0361  0.4483  0.0586
 9490TIP3    H252666   1.757   6.367   2.942  2.6477  1.8826 -1.3357
 9491TIP3   OH252667   2.962   5.174   2.568  0.5398 -0.2697 -0.4127
 9491TIP3    H152668   2.892   5.121   2.604  1.2863  0.0834  1.6770
 9491TIP3    H252669   3.028   5.111   2.540 -0.7985 -0.6431 -3.0283
 9492TIP3   OH252670   2.666   2.627   1.555 -0.9079 -0.3237  0.9765
 9492TIP3    H152671   2.622   2.562   1.501  1.5567 -1.5644  0.3049
 9492TIP3    H252672   2.607   2.640   1.629 -3.7433  0.3859 -1.2326
 9493TIP3   OH252673   0.119   1.920   0.576 -0.2001  0.0499  0.0352
 9493TIP3    H152674   0.060   1.850   0.604  0.6947 -0.6547  0.2014
 9493TIP3    H252675   0.100   1.993   0.636 -0.0733 -0.5727  0.8414
 9494TIP3   OH252676   2.828   1.781   0.741 -0.0346 -0.0604  0.0235
 9494TIP3    H152677   2.839   1.744   0.653 -1.0048 -0.1289 -0.0782
 9494TIP3    H252678   2.891   1.853   0.745  1.9702 -1.7416  0.2631
 9495TIP3   OH252679   6.037   3.409   2.001  0.0945  0.4530  0.4074
 9495TIP3    H152680   6.036   3.395   2.096 -0.5330  1.6645  0.6071
 9495TIP3    H252681   6.124   3.382   1.973 -0.3391 -1.7391  1.0223
 9496TIP3   OH252682   5.478   3.622   1.469 -0.1204 -0.4647  0.2881
 9496TIP3    H152683   5.549   3.604   1.407  0.6683  0.5097  0.8788
 9496TIP3    H252684   5.474   3.545   1.525  0.4190 -0.5592  0.1989
 9497TIP3   OH252685   2.473   0.314   1.132 -0.3952  0.0953  0.2013
 9497TIP3    H152686   2.485   0.262   1.212  0.2135  0.9668  0.6940
 9497TIP3    H252687   2.557   0.305   1.086 -0.1726  0.8734  0.4392
 9498TIP3   OH252688   0.592   5.237   0.529 -0.0991  0.3531  0.2771
 9498TIP3    H152689   0.583   5.297   0.455  1.6872 -1.0475 -1.1602
 9498TIP3    H252690   0.535   5.163   0.508  1.1584 -0.4978 -0.2178
 9499TIP3   OH252691   6.284   2.293   1.712 -0.0121  0.0844  0.2717
 9499TIP3    H152692   6.316   2.370   1.664 -0.0065  0.0195  0.1704
 9499TIP3    H252693   6.330   2.219   1.672  1.6405  0.2307  1.8135
 9500TIP3   OH252694   6.566   2.084   0.978  0.2135  0.0901  0.0937
 9500TIP3    H152695   6.583   1.990   0.981  0.4742  0.1240 -0.3301
 9500TIP3    H252696   6.618   2.116   0.904 -0.6155  0.4051 -0.3730
 9501TIP3   OH252697   3.067   5.396   1.624 -0.4328  0.3639  0.0418
 9501TIP3    H152698   3.021   5.452   1.562  0.3013 -0.2096 -1.0469
 9501TIP3    H252699   3.128   5.454   1.668 -0.0523  0.5416 -0.7021
 9502TIP3   OH252700   1.866   0.452   2.329 -0.0654  0.0065  0.3830
 9502TIP3    H152701   1.846   0.363   2.297  0.4633 -0.0284  0.1344
 9502TIP3    H252702   1.788   0.503   2.307  0.5111  0.1363 -1.6024
 9503TIP3   OH252703   0.515   7.052   2.539  0.1046  0.0146  0.3088
 9503TIP3    H152704   0.461   7.083   2.611 -0.1438  0.4575 -0.0650
 9503TIP3    H252705   0.595   7.105   2.543  0.2790 -0.2571  0.5173
 9504TIP3   OH252706   1.083   2.641   0.524  0.3633 -0.3138  0.0568
 9504TIP3    H152707   1.173   2.625   0.493 -0.1978 -0.0181 -1.8591
 9504TIP3    H252708   1.072   2.735   0.516  0.2275 -0.2136  1.3378
 9505TIP3   OH252709   6.627   5.172   0.842 -0.0772  0.0607 -0.0247
 9505TIP3    H152710   6.633   5.221   0.924  1.0686  1.0172 -0.6432
 9505TIP3    H252711   6.534   5.173   0.820 -0.4150 -0.2479  1.2629
 9506TIP3   OH252712   2.402   6.433   1.166 -0.2940  0.1089 -0.5568
 9506TIP3    H152713   2.314   6.461   1.144 -0.3943  0.4537  0.2406
 9506TIP3    H252714   2.437   6.394   1.085 -0.8524  0.7656 -1.1158
 9507TIP3   OH252715   3.235   5.009   1.823  0.2074  0.4783 -0.2379
 9507TIP3    H152716   3.227   5.064   1.745  0.4510  1.2456  0.2764
 9507TIP3    H252717   3.327   4.983   1.824  0.6224  1.8921  0.7349
 9508TIP3   OH252718   2.794   5.600   1.232 -0.2757 -0.9532  0.0824
 9508TIP3    H152719   2.776   5.694   1.230 -1.9521 -1.2594 -0.7511
 9508TIP3    H252720   2.881   5.592   1.193  1.2987  0.4756  3.0014
 9509TIP3   OH252721   2.941   3.343   0.785  0.5093  0.4051 -0.3744
 9509TIP3    H152722   2.890   3.322   0.863  2.8571 -0.3509  1.0813
 9509TIP3    H252723   2.886   3.404   0.735 -1.8513 -0.5735  0.8940
 9510TIP3   OH252724   4.638   7.152   1.671 -0.1851  0.6261 -0.2801
 9510TIP3    H152725   4.580   7.203   1.615 -0.3270 -0.0686 -0.7816
 9510TIP3    H252726   4.720   7.145   1.621  0.3810  1.6775  0.4618
 9511TIP3   OH252727   4.332   3.691   1.212  0.8297 -0.1400 -0.0325
 9511TIP3    H152728   4.254   3.667   1.162  1.8828 -0.6417 -1.4634
 9511TIP3    H252729   4.360   3.609   1.253  0.0685  0.2329  1.3352
 9512TIP3   OH252730   1.070   1.297   1.429  0.1479 -0.1351  0.0823
 9512TIP3    H152731   1.091   1.342   1.511  2.8163  1.1148 -1.1448
 9512TIP3    H252732   1.153   1.259   1.401 -1.6073 -4.5435  0.1346
 9513TIP3   OH252733   5.956   7.444   0.751  0.1032  0.1693 -0.1753
 9513TIP3    H152734   5.988   7.413   0.836  1.7456  0.0084 -0.8177
 9513TIP3    H252735   6.019   7.510   0.725  0.5797 -0.9528 -2.0145
 9514TIP3   OH252736   4.286   7.108   2.666 -0.2614  0.0871  0.1328
 9514TIP3    H152737   4.239   7.025   2.663  0.3278 -0.2421 -0.1234
 9514TIP3    H252738   4.245   7.156   2.739 -0.1285 -0.7161  0.7544
 9515TIP3   OH252739   5.980   5.527   2.304  0.2893 -0.1433  0.1330
 9515TIP3    H152740   5.977   5.623   2.299 -1.9614 -0.1617  0.0800
 9515TIP3    H252741   5.926   5.505   2.380  0.6000 -1.3744  0.0192
 9516TIP3   OH252742   2.418   5.078   1.277 -0.1718  0.1811  0.5890
 9516TIP3    H152743   2.407   5.024   1.356 -1.9347 -0.2723  0.0880
 9516TIP3    H252744   2.472   5.024   1.219 -0.5863 -0.3761  0.7088
 9517TIP3   OH252745   4.232   2.786   2.239  0.8200 -0.2231  0.1210
 9517TIP3    H152746   4.227   2.758   2.330  2.4468  0.5284  0.4757
 9517TIP3    H252747   4.292   2.860   2.240  1.2755 -0.5325 -1.6479
 9518TIP3   OH252748   2.508   5.176   1.841 -0.0667 -0.6652 -0.6375
 9518TIP3    H152749   2.562   5.213   1.912  2.0527 -2.5487 -1.1461
 9518TIP3    H252750   2.525   5.234   1.767  0.1626 -0.4346 -0.4110
 9519TIP3   OH252751   5.445   2.457   2.393  0.4770 -0.0885 -0.2770
 9519TIP3    H152752   5.389   2.530   2.422  0.0947 -0.1743 -0.7788
 9519TIP3    H252753   5.471   2.414   2.474 -1.4431 -0.9751 -0.0686
 9520TIP3   OH252754   7.640   4.593   1.037  0.6100 -0.2236 -0.3078
 9520TIP3    H152755   7.629   4.595   1.132 -1.9121 -1.5510 -0.4897
 9520TIP3    H252756   7.609   4.679   1.008  0.7601 -0.0569  0.0146
 9521TIP3   OH252757   0.541   1.527   1.938 -0.0547 -0.1562  0.5875
 9521TIP3    H152758   0.580   1.577   2.010 -0.2860  0.4732  0.2805
 9521TIP3    H252759   0.459   1.573   1.918 -0.7960 -1.2438  0.9774
 9522TIP3   OH252760   7.018   4.785   1.349  0.3856  0.5182 -0.2809
 9522TIP3    H152761   7.000   4.857   1.409  0.9578  1.0138 -0.6981
 9522TIP3    H252762   7.050   4.827   1.270 -0.5462 -0.1074 -1.0240
 9523TIP3   OH252763   1.260   7.473   2.125  0.1113  0.2590  0.4788
 9523TIP3    H152764   1.186   7.426   2.163  0.5873 -2.6043 -1.7178
 9523TIP3    H252765   1.241   7.475   2.031  1.8424  1.3285  0.1079
 9524TIP3   OH252766   4.863   7.377   3.270  0.5602 -0.5292  0.8036
 9524TIP3    H152767   4.806   7.309   3.307  0.1593 -0.3992  0.4271
 9524TIP3    H252768   4.834   7.458   3.312 -0.2232 -0.3008 -0.1196
 9525TIP3   OH252769   0.373   0.738   1.311  0.2453 -0.2249 -0.3887
 9525TIP3    H152770   0.386   0.752   1.218 -2.5286  0.6580 -0.7161
 9525TIP3    H252771   0.445   0.679   1.337  1.0157 -0.5674 -3.0593
 9526TIP3   OH252772   3.377   0.811   0.493 -0.3874 -0.0436 -0.1719
 9526TIP3    H152773   3.345   0.883   0.546  0.1407  0.9635 -1.1703
 9526TIP3    H252774   3.470   0.829   0.481 -0.3013 -0.7545 -0.6501
 9527TIP3   OH252775   1.912   2.283   1.115  0.1830 -0.0496  0.1851
 9527TIP3    H152776   1.850   2.221   1.077 -0.0348  0.6695 -0.6998
 9527TIP3    H252777   1.900   2.363   1.063  0.6162  0.6554  1.1359
 9528TIP3   OH252778   5.899   0.188   1.380 -0.0961  0.1681  0.1270
 9528TIP3    H152779   5.871   0.102   1.351  1.3705  0.1760 -1.4323
 9528TIP3    H252780   5.890   0.185   1.476 -1.5439 -1.1417 -0.0142
 9529TIP3   OH252781   2.999   3.610   1.396 -0.4929 -0.0474 -0.2300
 9529TIP3    H152782   3.071   3.619   1.335  0.0472 -0.8237  0.2836
 9529TIP3    H252783   2.962   3.524   1.378 -0.2149 -0.3643  0.6399
 9530TIP3   OH252784   6.401   2.185   2.412  0.7996  0.1373 -0.0253
 9530TIP3    H152785   6.324   2.141   2.449  1.2239 -2.0790 -1.5770
 9530TIP3    H252786   6.366   2.263   2.370 -0.4265 -0.1769  0.3617
 9531TIP3   OH252787   0.663   6.128   0.704 -0.4894 -0.5783  0.5793
 9531TIP3    H152788   0.677   6.057   0.641  0.3864 -0.2066  0.3556
 9531TIP3    H252789   0.744   6.177   0.705 -1.5971  1.3728 -0.4272
 9532TIP3   OH252790   3.647   2.354   1.050 -0.2574 -0.0876 -0.7929
 9532TIP3    H152791   3.644   2.443   1.085  0.3441 -0.1909 -0.4650
 9532TIP3    H252792   3.560   2.318   1.067  0.3684 -0.5951  1.8507
 9533TIP3   OH252793   0.112   6.176   2.147 -0.2929 -0.4089  0.2934
 9533TIP3    H152794   0.125   6.241   2.078 -0.7974  0.7581  1.2597
 9533TIP3    H252795   0.200   6.159   2.180 -0.1004 -0.6079 -0.3171
 9534TIP3   OH252796   1.381   6.792   2.544  0.4201  0.1487  0.0501
 9534TIP3    H152797   1.352   6.721   2.601 -1.2105 -0.4127 -1.4008
 9534TIP3    H252798   1.476   6.798   2.559  0.5195 -1.9966  0.5551
 9535TIP3   OH252799   5.908   2.123   0.700  0.2586  0.4098  0.6774
 9535TIP3    H152800   5.992   2.089   0.731 -0.1029 -0.7005  0.4637
 9535TIP3    H252801   5.892   2.199   0.756  0.4152 -0.5822  2.1383
 9536TIP3   OH252802   6.142   6.751   1.802 -0.1360 -0.2109  0.2232
 9536TIP3    H152803   6.076   6.785   1.741  0.3022  1.6559  0.7093
 9536TIP3    H252804   6.221   6.742   1.748 -0.3579 -0.8565  0.0019
 9537TIP3   OH252805   2.827   4.157   0.994 -0.1871  0.5616 -0.4604
 9537TIP3    H152806   2.782   4.202   0.922 -0.4607  0.3606 -0.4155
 9537TIP3    H252807   2.757   4.122   1.048  0.0219 -0.5494 -0.8876
 9538TIP3   OH252808   1.791   1.803   1.251 -0.4281  0.4529  0.3993
 9538TIP3    H152809   1.797   1.800   1.155 -1.0131 -0.8932  0.3821
 9538TIP3    H252810   1.829   1.720   1.280 -0.5539  0.7065  1.3164
 9539TIP3   OH252811   7.581   7.454   1.350 -0.6762 -0.4028 -0.1693
 9539TIP3    H152812   7.618   7.421   1.432  0.0612 -1.4041 -0.8710
 9539TIP3    H252813   7.522   7.385   1.321 -0.1819 -0.5088 -0.9641
 9540TIP3   OH252814   4.850   0.583   1.106 -0.2303  0.1644 -0.0410
 9540TIP3    H152815   4.755   0.596   1.111 -0.3966 -0.9667 -0.0606
 9540TIP3    H252816   4.860   0.503   1.055  0.5993 -1.7637  2.9326
 9541TIP3   OH252817   4.593   4.862   0.515  0.0763 -0.0051 -0.0392
 9541TIP3    H152818   4.539   4.881   0.438  1.5547  0.2417 -1.0674
 9541TIP3    H252819   4.539   4.805   0.569 -1.0426 -0.1045 -1.2177
 9542TIP3   OH252820   2.187   5.148   1.132  0.1033 -0.4258 -0.1274
 9542TIP3    H152821   2.130   5.072   1.121  0.3390 -0.7933  1.0606
 9542TIP3    H252822   2.270   5.112   1.163  0.0847  0.3290  0.8516
 9543TIP3   OH252823   4.270   3.534   2.963 -0.2542  0.0964  0.1562
 9543TIP3    H152824   4.180   3.566   2.958  0.0032  0.6224 -1.8527
 9543TIP3    H252825   4.263   3.439   2.952 -0.4277  0.3890 -3.1511
 9544TIP3   OH252826   2.168   3.873   2.643  0.0264  0.5814  0.3059
 9544TIP3    H152827   2.092   3.879   2.701 -1.0956 -1.9116 -0.7530
 9544TIP3    H252828   2.146   3.928   2.568 -1.5030 -1.2305 -0.6715
 9545TIP3   OH252829   4.458   4.881   0.870 -0.2741 -0.0875  0.5621
 9545TIP3    H152830   4.494   4.813   0.812  0.7590  2.1689 -1.6725
 9545TIP3    H252831   4.516   4.881   0.946  1.0699 -0.2910 -0.4169
 9546TIP3   OH252832   7.147   5.749   2.894  0.0566 -0.7601 -0.1183
 9546TIP3    H152833   7.239   5.738   2.872  0.0081  0.4398 -1.0220
 9546TIP3    H252834   7.101   5.738   2.811 -0.4262  0.5776 -0.0483
 9547TIP3   OH252835   5.444   0.966   0.602 -0.0898  0.0255 -0.3504
 9547TIP3    H152836   5.385   0.933   0.670 -1.0442  0.9481 -0.6947
 9547TIP3    H252837   5.396   0.953   0.520  0.9181 -0.7969 -0.8311
 9548TIP3   OH252838   0.244   0.850   2.298 -0.4969 -0.1386 -0.5323
 9548TIP3    H152839   0.209   0.857   2.387 -0.4332 -1.4572 -0.3733
 9548TIP3    H252840   0.333   0.886   2.305  0.2822 -2.0446  0.4775
 9549TIP3   OH252841   2.787   3.120   2.877 -0.2969 -0.1038 -0.0030
 9549TIP3    H152842   2.853   3.188   2.865 -0.6493  0.7410  2.2759
 9549TIP3    H252843   2.833   3.049   2.922 -0.1015 -1.1391 -1.7470
 9550TIP3   OH252844   2.109   4.759   0.822 -0.4536  0.3663 -0.0240
 9550TIP3    H152845   2.062   4.825   0.772  1.9210  1.4369 -1.0143
 9550TIP3    H252846   2.061   4.678   0.808 -0.8657  0.9861 -2.6485
 9551TIP3   OH252847   1.351   6.182   1.831 -0.8340  0.0113 -0.3936
 9551TIP3    H152848   1.368   6.095   1.865  1.6415  1.0745  1.3576
 9551TIP3    H252849   1.278   6.216   1.883 -0.3736 -0.2222  0.4005
 9552TIP3   OH252850   1.881   3.008   3.005 -0.1373  1.0109  0.3810
 9552TIP3    H152851   1.931   2.933   3.036 -2.1329 -0.4732  0.2023
 9552TIP3    H252852   1.793   2.974   2.988 -0.9368  3.2334 -0.4194
 9553TIP3   OH252853   2.899   7.468   2.081  0.0746  0.6889 -0.4740
 9553TIP3    H152854   2.948   7.525   2.141 -0.1581 -0.4475  0.8517
 9553TIP3    H252855   2.919   7.379   2.111 -2.0862  0.1617 -0.4497
 9554TIP3   OH252856   2.457   5.912   3.120 -0.2038 -0.0429 -0.2772
 9554TIP3    H152857   2.509   5.853   3.175  0.3741 -1.1277 -1.9174
 9554TIP3    H252858   2.520   5.952   3.060 -0.8475  0.9148 -0.3459
 9555TIP3   OH252859   2.542   0.972   2.339 -0.2478 -0.4749 -0.1802
 9555TIP3    H152860   2.633   0.989   2.316 -0.5981  0.1680 -1.1589
 9555TIP3    H252861   2.546   0.899   2.401  0.9265 -0.4319 -0.1836
 9556TIP3   OH252862   5.136   2.205   1.391  0.5308 -0.0865  0.5555
 9556TIP3    H152863   5.047   2.209   1.425 -0.1255 -0.4566 -1.0490
 9556TIP3    H252864   5.169   2.295   1.401 -0.5439  0.4072 -0.1715
 9557TIP3   OH252865   0.108   2.520   3.030 -0.1528 -0.1712 -0.0034
 9557TIP3    H152866   0.121   2.470   3.110 -0.2136 -1.1390 -0.5843
 9557TIP3    H252867   0.196   2.545   3.002  0.1033 -2.0006 -0.9731
 9558TIP3   OH252868   3.977   5.338   1.399 -0.0009  0.2818  0.4356
 9558TIP3    H152869   3.945   5.399   1.332  0.1694  1.6516  1.5355
 9558TIP3    H252870   4.071   5.328   1.380 -0.2347 -0.4907 -0.3667
 9559TIP3   OH252871   3.361   4.761   1.532 -0.2804  0.5260 -0.1797
 9559TIP3    H152872   3.298   4.689   1.521  0.8705 -0.5375 -0.1173
 9559TIP3    H252873   3.385   4.786   1.443  0.8814 -0.6276 -0.2174
 9560TIP3   OH252874   6.032   7.299   1.251  0.1027 -0.0969  0.3547
 9560TIP3    H152875   6.029   7.341   1.337  0.6020  2.0515 -0.6308
 9560TIP3    H252876   5.940   7.283   1.230 -0.3559  2.8216 -0.2666
 9561TIP3   OH252877   2.716   2.078   0.940 -0.0595 -0.7839 -0.3404
 9561TIP3    H152878   2.786   2.116   0.993 -0.3519 -1.1261  0.3133
 9561TIP3    H252879   2.734   2.106   0.851  0.6074 -0.4280 -0.0960
 9562TIP3   OH252880   0.047   0.397   1.842 -0.1164  0.0735  0.2014
 9562TIP3    H152881  -0.042   0.420   1.813  0.3018  3.2453  1.0472
 9562TIP3    H252882   0.059   0.446   1.923  1.9325 -1.4643  0.9150
 9563TIP3   OH252883   4.727   4.442   2.848 -0.1260  0.7611 -0.2324
 9563TIP3    H152884   4.753   4.395   2.769  0.6946  1.8472 -0.6242
 9563TIP3    H252885   4.784   4.406   2.916 -0.6543  0.0108 -0.1731
 9564TIP3   OH252886   2.140   1.211   3.993  0.0555 -0.2082  0.2937
 9564TIP3    H152887   2.143   1.116   3.991  0.6339 -0.2283  1.1639
 9564TIP3    H252888   2.183   1.239   3.912 -0.5449 -0.6749 -0.1958
 9565TIP3   OH252889   6.768   5.725   1.468 -0.1201  0.9351  0.3291
 9565TIP3    H152890   6.675   5.705   1.465 -0.1508  0.2964  3.0546
 9565TIP3    H252891   6.805   5.679   1.393 -2.1232  2.3576 -1.6563
 9566TIP3   OH252892   4.849   5.268   1.831 -0.3945  0.4084  0.1333
 9566TIP3    H152893   4.821   5.278   1.740 -1.6928  0.5042  0.5295
 9566TIP3    H252894   4.787   5.205   1.869 -2.6503  3.5247  2.0933
 9567TIP3   OH252895   2.380   0.518   0.704  0.8592  0.0547  0.0925
 9567TIP3    H152896   2.457   0.572   0.691 -0.0100  1.2291 -0.3538
 9567TIP3    H252897   2.324   0.536   0.628  0.0216 -0.5394  0.5449
 9568TIP3   OH252898   4.439   6.411   0.988  0.0832 -0.0711 -0.6674
 9568TIP3    H152899   4.425   6.354   0.913  0.3518 -2.6103  1.0727
 9568TIP3    H252900   4.534   6.408   1.003  0.0331  0.3914 -0.2270
 9569TIP3   OH252901   0.183   5.800   2.973 -0.4268  0.0069 -0.0073
 9569TIP3    H152902   0.228   5.716   2.971 -0.7715 -0.1838  0.0983
 9569TIP3    H252903   0.253   5.865   2.983  0.1242 -0.0134 -2.9739
 9570TIP3   OH252904   4.723   0.913   1.062  0.2359  0.3062  0.4101
 9570TIP3    H152905   4.683   0.829   1.040  0.2871  0.2654  0.4739
 9570TIP3    H252906   4.683   0.937   1.146  1.0720 -0.2035  0.9612
 9571TIP3   OH252907   1.033   0.759   2.008  0.2411 -0.3912  0.0115
 9571TIP3    H152908   1.034   0.783   1.915 -1.8731  0.3033  0.1327
 9571TIP3    H252909   1.003   0.837   2.053  0.7497 -0.8849  1.2421
 9572TIP3   OH252910   5.381   5.091   1.591 -0.0461  0.5404 -0.0686
 9572TIP3    H152911   5.432   5.131   1.661 -0.2741  1.0081 -0.1699
 9572TIP3    H252912   5.353   5.164   1.536 -0.1837  0.2134 -0.4395
 9573TIP3   OH252913   1.076   2.337   3.053  0.4178  0.6232  0.3322
 9573TIP3    H152914   1.165   2.350   3.021  0.1865  1.0303 -0.1425
 9573TIP3    H252915   1.088   2.300   3.141  1.0513  0.0662  0.0243
 9574TIP3   OH252916   1.656   2.684   1.670 -0.4921  0.1613 -0.0640
 9574TIP3    H152917   1.720   2.677   1.599  1.6930 -2.0406  1.9165
 9574TIP3    H252918   1.669   2.773   1.704 -0.6748  0.7892 -1.5322
 9575TIP3   OH252919   1.562   4.846   1.404  0.9206  0.2572 -0.9453
 9575TIP3    H152920   1.625   4.851   1.476  1.8728  1.9250 -1.8372
 9575TIP3    H252921   1.529   4.935   1.394  0.0639 -0.1475 -1.9291
 9576TIP3   OH252922   3.100   7.614   2.823  0.1939  0.3764 -0.2033
 9576TIP3    H152923   3.153   7.551   2.871 -0.0094 -0.2657 -0.8054
 9576TIP3    H252924   3.103   7.693   2.877 -1.0798 -0.6784  1.5508
 9577TIP3   OH252925   6.141   1.991   0.796 -0.6649  0.1984  0.1172
 9577TIP3    H152926   6.223   1.954   0.762  0.2938  0.6116  1.8676
 9577TIP3    H252927   6.099   1.919   0.841  0.2991  0.6999  1.9160
 9578TIP3   OH252928   5.811   7.023   0.449  0.1479  0.3978  0.1749
 9578TIP3    H152929   5.875   6.960   0.483 -0.3208 -0.1757  0.0234
 9578TIP3    H252930   5.860   7.103   0.436  0.4021  0.5978  2.0493
 9579TIP3   OH252931   1.895   6.556   1.385 -0.8640  0.1208 -0.1463
 9579TIP3    H152932   1.868   6.527   1.473 -0.0479 -0.7651 -0.1753
 9579TIP3    H252933   1.971   6.612   1.401  0.2859 -1.3092 -0.3528
 9580TIP3   OH252934   4.712   5.988   2.535 -0.2819 -0.5305 -0.1857
 9580TIP3    H152935   4.658   5.918   2.573  1.5313 -1.6895  0.3570
 9580TIP3    H252936   4.763   6.022   2.608  0.4194 -0.1045 -0.8611
 9581TIP3   OH252937   4.641   0.771   2.824  0.2579  0.0486  0.2640
 9581TIP3    H152938   4.628   0.791   2.917  1.5939 -2.8159  1.1763
 9581TIP3    H252939   4.699   0.840   2.793  0.1460  0.8127  1.6458
 9582TIP3   OH252940   6.489   0.219   0.722  0.4496  0.2179  0.5346
 9582TIP3    H152941   6.414   0.266   0.687  0.5857 -0.1737 -0.3072
 9582TIP3    H252942   6.452   0.141   0.764  0.4866 -0.9066 -1.4327
 9583TIP3   OH252943   0.535   6.960   1.072 -0.6038 -0.0827 -1.3745
 9583TIP3    H152944   0.450   6.937   1.034 -0.9414  1.5617 -1.6568
 9583TIP3    H252945   0.544   6.902   1.147 -2.1003 -0.0905 -1.1817
 9584TIP3   OH252946   7.145   6.322   1.082  0.1480 -0.1876  0.3863
 9584TIP3    H152947   7.208   6.367   1.139  0.6036  0.8428 -0.8765
 9584TIP3    H252948   7.084   6.280   1.143  0.5015  1.0151  1.6345
 9585TIP3   OH252949   2.187   5.100   1.618 -0.5285  0.2068  0.0639
 9585TIP3    H152950   2.092   5.103   1.633 -0.7131  0.4215 -1.0574
 9585TIP3    H252951   2.213   5.014   1.652 -1.3663 -0.4425 -0.8813
 9586TIP3   OH252952   0.848   5.936   3.375 -0.2706  0.2101  0.3601
 9586TIP3    H152953   0.856   5.938   3.471 -0.1881  0.6045  0.3438
 9586TIP3    H252954   0.757   5.913   3.359  0.1538 -1.7792  0.5409
 9587TIP3   OH252955   4.206   7.097   0.706  0.1046  0.0515 -0.0630
 9587TIP3    H152956   4.192   7.128   0.796  0.3845  0.6178 -0.2080
 9587TIP3    H252957   4.293   7.058   0.708 -0.3717 -1.0382  0.1947
 9588TIP3   OH252958   2.067   1.436   2.882  0.1584 -0.4569  0.1274
 9588TIP3    H152959   2.123   1.507   2.912  0.4001 -0.1664 -0.9680
 9588TIP3    H252960   2.123   1.358   2.882  0.6089 -0.1556 -1.0266
 9589TIP3   OH252961   0.893   4.807   2.365  0.6466  0.4165 -0.1714
 9589TIP3    H152962   0.894   4.798   2.270 -0.1604 -0.9695 -0.0752
 9589TIP3    H252963   0.801   4.794   2.389  1.0895 -0.9699  0.9278
 9590TIP3   OH252964   0.803   1.983   1.366 -0.1801 -0.1078  0.3171
 9590TIP3    H152965   0.897   1.978   1.350  0.0352 -0.6365  1.6013
 9590TIP3    H252966   0.794   2.046   1.438 -1.0292  1.6805 -1.2758
 9591TIP3   OH252967   4.075   6.057   1.239  0.0753  0.3787  0.0272
 9591TIP3    H152968   4.099   6.003   1.164  1.5420  0.6006  0.3096
 9591TIP3    H252969   4.021   6.127   1.202 -1.3887 -0.9468 -0.4141
 9592TIP3   OH252970   6.710   4.708   2.138  0.4966 -0.1536 -0.5577
 9592TIP3    H152971   6.697   4.778   2.074  1.7641  1.1500  0.5458
 9592TIP3    H252972   6.622   4.687   2.169  0.1460  1.9316  0.0392
 9593TIP3   OH252973   0.318   3.963   1.284  0.0108 -0.4400  0.0663
 9593TIP3    H152974   0.413   3.973   1.276 -0.2350  1.4027 -1.1187
 9593TIP3    H252975   0.282   4.023   1.219 -1.9784 -1.4192  0.1996
 9594TIP3   OH252976   6.673   6.296   1.024  0.2934  0.0163  0.1594
 9594TIP3    H152977   6.610   6.345   0.970 -0.8705 -1.6816 -0.1240
 9594TIP3    H252978   6.743   6.272   0.963  0.3028  0.3367  0.0396
 9595TIP3   OH252979   2.960   6.184   3.230  0.1419  1.0622  0.4053
 9595TIP3    H152980   2.874   6.188   3.272 -0.6499  2.1182 -1.2252
 9595TIP3    H252981   2.943   6.204   3.138  2.0277  0.3978 -0.1358
 9596TIP3   OH252982   5.494   1.111   1.856 -0.3470 -0.2406 -0.3951
 9596TIP3    H152983   5.574   1.156   1.882  0.3695 -1.6253 -0.0780
 9596TIP3    H252984   5.483   1.131   1.763  0.3851 -0.0549 -0.4412
 9597TIP3   OH252985   1.516   1.630   3.839 -0.1462  0.2174 -0.0758
 9597TIP3    H152986   1.430   1.673   3.846 -0.4026 -0.3523  0.2985
 9597TIP3    H252987   1.570   1.675   3.904 -0.8284 -0.9888  1.3874
 9598TIP3   OH252988   6.557   2.158   1.794 -0.1460 -0.6087 -0.3011
 9598TIP3    H152989   6.634   2.214   1.798 -0.2718 -0.4959  2.6902
 9598TIP3    H252990   6.488   2.210   1.835 -1.4005 -1.3478 -1.3921
 9599TIP3   OH252991   2.387   6.226   1.935  0.3665 -0.0119 -0.1194
 9599TIP3    H152992   2.466   6.171   1.936  0.4316  0.0784  0.8585
 9599TIP3    H252993   2.392   6.276   2.016 -0.6728  0.0333 -0.0725
 9600TIP3   OH252994   5.267   1.309   1.032  0.1314 -0.3510 -0.5275
 9600TIP3    H152995   5.272   1.247   1.104  0.3137 -0.1912 -0.4030
 9600TIP3    H252996   5.211   1.380   1.065 -0.9286 -0.9279 -1.0244
 9601TIP3   OH252997   2.896   7.081   1.796 -0.4848 -0.4937  0.1247
 9601TIP3    H152998   2.806   7.104   1.816 -0.6970 -2.0813  1.1209
 9601TIP3    H252999   2.891   7.031   1.715 -0.2974  0.6676 -0.6393
 9602TIP3   OH253000   2.263   0.985   2.281  0.2500  0.4325 -0.2019
 9602TIP3    H153001   2.352   0.953   2.296  0.2497  0.1741 -0.7332
 9602TIP3    H253002   2.224   0.989   2.368 -0.6745 -3.6692 -0.2480
 9603TIP3   OH253003   5.944   6.132   0.648 -0.2102 -0.4811  0.0321
 9603TIP3    H153004   5.887   6.084   0.588 -0.9561 -0.8325  0.9951
 9603TIP3    H253005   5.979   6.065   0.707  0.8810 -0.2056 -0.2817
 9604TIP3   OH253006   2.310   5.467   0.585 -0.1638  0.6218 -0.6798
 9604TIP3    H153007   2.344   5.402   0.524  0.0246 -0.6284  0.7212
 9604TIP3    H253008   2.230   5.428   0.621 -0.9991  1.8965 -1.0416
 9605TIP3   OH253009   2.344   2.706   2.771 -0.1889 -0.0183  0.6068
 9605TIP3    H153010   2.353   2.746   2.857  1.0393 -0.5433  0.7335
 9605TIP3    H253011   2.309   2.619   2.789  2.8806 -1.2900  0.8853
 9606TIP3   OH253012   4.276   1.660   2.148 -0.2209  0.1883 -0.3385
 9606TIP3    H153013   4.330   1.688   2.221  1.4715 -0.7432 -1.1635
 9606TIP3    H253014   4.316   1.701   2.071  2.1835 -3.8562 -1.5760
 9607TIP3   OH253015   5.501   6.538   0.593 -0.3121 -0.0735 -0.2730
 9607TIP3    H153016   5.504   6.450   0.557  0.8870 -0.9696  1.8101
 9607TIP3    H253017   5.537   6.529   0.681  0.9276  2.7134 -0.3908
 9608TIP3   OH253018   4.537   4.334   3.186 -0.2848 -0.5166 -0.2680
 9608TIP3    H153019   4.547   4.426   3.212 -0.4182 -0.8464  1.0135
 9608TIP3    H253020   4.613   4.317   3.131 -0.0713  0.2759 -0.2352
 9609TIP3   OH253021   3.491   0.412   2.913  0.0953 -0.1504 -0.2007
 9609TIP3    H153022   3.490   0.498   2.955  0.3011 -0.0693 -0.3605
 9609TIP3    H253023   3.526   0.353   2.981  2.6101  0.3566 -0.9338
 9610TIP3   OH253024   4.893   3.807   1.207 -0.1368 -0.3040 -0.6907
 9610TIP3    H153025   4.870   3.801   1.114 -1.5597  0.3978 -0.4220
 9610TIP3    H253026   4.812   3.783   1.253  0.4280 -0.2590  0.3604
 9611TIP3   OH253027   1.831   0.097   3.516 -0.1065 -0.0417  0.0077
 9611TIP3    H153028   1.784   0.166   3.561 -0.1639 -0.8258  1.1914
 9611TIP3    H253029   1.762   0.040   3.481 -0.1070  1.3509 -2.4361
 9612TIP3   OH253030   1.468   2.188   1.973 -0.2017  0.2831  0.0155
 9612TIP3    H153031   1.562   2.170   1.980  0.0095  0.0571 -2.4697
 9612TIP3    H253032   1.441   2.143   1.893 -2.6057 -0.2344  1.0502
 9613TIP3   OH253033   2.355   2.774   0.779  0.0772  0.1023 -0.3503
 9613TIP3    H153034   2.312   2.797   0.696  0.5241 -2.0504 -1.2470
 9613TIP3    H253035   2.435   2.729   0.753  1.0030  0.7099  1.2927
 9614TIP3   OH253036   7.672   0.785   1.596 -0.0598  0.0794 -0.2080
 9614TIP3    H153037   7.724   0.841   1.539  1.7171 -1.5847 -0.2846
 9614TIP3    H253038   7.733   0.752   1.661 -0.9324 -2.1277 -0.4248
 9615TIP3   OH253039   3.750   5.079   1.097 -0.3782 -0.3902 -0.3034
 9615TIP3    H153040   3.758   5.023   1.020 -0.5280 -0.6400 -0.1380
 9615TIP3    H253041   3.825   5.057   1.151 -0.9110 -1.0833  0.1783
 9616TIP3   OH253042   2.835   7.025   1.320 -0.2875  0.0772 -0.4132
 9616TIP3    H153043   2.855   7.118   1.330 -2.0973  0.2163  4.0195
 9616TIP3    H253044   2.761   7.023   1.258  0.4199  1.4128 -1.3571
 9617TIP3   OH253045   3.549   3.510   1.321  0.3264 -0.5019 -0.0828
 9617TIP3    H153046   3.494   3.503   1.399  0.4728 -2.1562 -0.1051
 9617TIP3    H253047   3.543   3.603   1.297  0.6634  0.1723  2.1412
 9618TIP3   OH253048   3.072   6.404   0.727 -0.5373  0.0320  0.1459
 9618TIP3    H153049   3.158   6.370   0.705 -1.7633 -3.2026 -0.2948
 9618TIP3    H253050   3.045   6.453   0.649  0.5139  0.1871 -0.1257
 9619TIP3   OH253051   1.866   3.212   1.810 -0.3019  0.2444  0.0811
 9619TIP3    H153052   1.870   3.257   1.894  1.9605  0.8289 -0.2913
 9619TIP3    H253053   1.904   3.126   1.827  1.9340  1.0272 -0.6912
 9620TIP3   OH253054   5.299   5.850   2.094  0.1662 -0.1914  0.4302
 9620TIP3    H153055   5.307   5.934   2.140 -2.4839 -0.1241  0.9304
 9620TIP3    H253056   5.285   5.874   2.003  0.6456 -0.1547  0.3625
 9621TIP3   OH253057   2.830   2.426   2.719 -0.3975  0.1511  0.2991
 9621TIP3    H153058   2.796   2.513   2.701 -0.1319 -0.3227 -3.1803
 9621TIP3    H253059   2.753   2.370   2.724 -0.4433  0.0079 -1.5415
 9622TIP3   OH253060   1.837   7.582   1.977  0.3291 -0.0524 -0.3678
 9622TIP3    H153061   1.783   7.516   2.021  0.8764  0.0525  0.4907
 9622TIP3    H253062   1.882   7.627   2.049  2.5219 -0.9848 -1.0998
 9623TIP3   OH253063   7.198   0.840   1.822 -0.0240 -0.5830  0.0325
 9623TIP3    H153064   7.287   0.815   1.796 -0.2425  0.0994 -1.4994
 9623TIP3    H253065   7.145   0.763   1.804  0.0886 -0.6339 -0.0822
 9624TIP3   OH253066   4.503   6.713   2.478 -0.0105 -0.0098 -0.6147
 9624TIP3    H153067   4.416   6.727   2.441  0.2972 -0.6031 -1.5701
 9624TIP3    H253068   4.545   6.799   2.474 -1.5147  1.0385  2.5360
 9625TIP3   OH253069   3.943   4.814   2.810  0.0666  0.2597  0.0910
 9625TIP3    H153070   3.929   4.824   2.716 -0.2423  0.1866  0.1291
 9625TIP3    H253071   3.964   4.721   2.822  0.1388  0.2760  0.0902
 9626TIP3   OH253072   5.656   6.580   1.470 -0.3480 -0.1635  0.2962
 9626TIP3    H153073   5.717   6.510   1.492  2.0445  0.3910 -3.6198
 9626TIP3    H253074   5.663   6.641   1.543  2.3398 -1.0934  0.9354
 9627TIP3   OH253075   2.819   5.030   1.930 -0.3872  0.2044 -0.3982
 9627TIP3    H153076   2.876   4.965   1.888 -1.6689 -0.0754 -1.7937
 9627TIP3    H253077   2.799   5.092   1.859 -2.2257 -0.0011 -0.0916
 9628TIP3   OH253078   0.750   6.046   1.593  0.3608 -0.3384 -0.0877
 9628TIP3    H153079   0.782   5.957   1.586 -1.4618 -1.1085  0.6476
 9628TIP3    H253080   0.828   6.101   1.581  1.6623 -2.0255  0.2662
 9629TIP3   OH253081   0.034   0.691   1.008 -0.1414 -0.4868 -0.0626
 9629TIP3    H153082  -0.019   0.770   1.012  0.0327 -0.3817  0.1817
 9629TIP3    H253083   0.030   0.654   1.097 -0.5556 -0.9721 -0.2766
 9630TIP3   OH253084   1.279   4.226   1.532  0.5539 -0.1265  0.2623
 9630TIP3    H153085   1.327   4.279   1.595 -0.1657  1.3650 -0.3878
 9630TIP3    H253086   1.325   4.239   1.449 -0.7307  1.0796 -0.3034
 9631TIP3   OH253087   3.074   3.213   1.358  0.4706  0.2387 -0.3987
 9631TIP3    H153088   3.124   3.255   1.428  1.3275  1.0399 -1.4496
 9631TIP3    H253089   2.987   3.252   1.364  0.9916  1.5308 -0.7689
 9632TIP3   OH253090   5.627   1.087   2.184  0.3597 -0.4856  0.3955
 9632TIP3    H153091   5.636   1.064   2.092  0.8017 -0.9420  0.5452
 9632TIP3    H253092   5.625   1.182   2.185  0.8335 -0.4614 -0.0509
 9633TIP3   OH253093   5.207   3.610   1.408 -0.4364 -0.3764 -0.8202
 9633TIP3    H153094   5.302   3.606   1.400 -0.5711 -0.1604 -3.0702
 9633TIP3    H253095   5.192   3.627   1.501  1.7456  0.4970 -0.5584
 9634TIP3   OH253096   5.995   4.769   2.076  0.3412 -0.5304 -0.0423
 9634TIP3    H153097   6.061   4.795   2.140  1.7504 -1.5937 -1.0193
 9634TIP3    H253098   6.025   4.808   1.994 -0.9331  0.0099 -0.2791
 9635TIP3   OH253099   1.796   4.974   1.894 -0.1499  0.3380 -0.0574
 9635TIP3    H153100   1.794   4.960   1.988  2.5813  0.8159  0.1581
 9635TIP3    H253101   1.718   5.025   1.875 -1.8018 -1.4125  1.5873
 9636TIP3   OH253102   4.267   3.662   0.622  0.0719  0.3000 -0.1853
 9636TIP3    H153103   4.183   3.625   0.649 -0.4640  2.0099  0.6121
 9636TIP3    H253104   4.253   3.757   0.620  2.1150  0.6722  0.4866
 9637TIP3   OH253105   6.550   5.957   0.929  0.3983  0.1906 -0.2419
 9637TIP3    H153106   6.528   5.948   0.836  2.1710  2.2307 -0.9498
 9637TIP3    H253107   6.641   5.929   0.935  0.1965 -0.2669  0.9860
 9638TIP3   OH253108   5.597   2.648   2.544 -0.0166  0.2750 -0.3290
 9638TIP3    H153109   5.649   2.572   2.519 -0.6502 -0.4077  0.3656
 9638TIP3    H253110   5.628   2.670   2.632 -2.3544 -1.5416  1.0718
 9639TIP3   OH253111   6.809   7.132   0.639  0.1553  0.3708 -0.0029
 9639TIP3    H153112   6.770   7.047   0.662 -0.2404  0.9278  1.4507
 9639TIP3    H253113   6.749   7.169   0.574  0.0525 -0.2240 -0.2557
 9640TIP3   OH253114   1.709   6.440   1.232 -0.0676 -0.1436 -0.4573
 9640TIP3    H153115   1.779   6.477   1.286 -0.0941  0.5904 -0.9201
 9640TIP3    H253116   1.756   6.386   1.167  0.0742  0.2841 -0.7174
 9641TIP3   OH253117   5.330   2.058   1.913 -0.8030 -0.5674  0.2430
 9641TIP3    H153118   5.374   2.133   1.874  1.3090 -1.7228  0.2554
 9641TIP3    H253119   5.366   1.983   1.866 -1.4640 -1.6888  1.4810
 9642TIP3   OH253120   7.273   3.622   2.012  0.1092 -0.3578 -0.2687
 9642TIP3    H153121   7.332   3.697   2.014 -0.4258  0.0666  1.1176
 9642TIP3    H253122   7.262   3.602   1.919 -0.8838  2.2286 -0.8015
 9643TIP3   OH253123   6.578   1.138   2.843  0.5602 -0.2983  0.4819
 9643TIP3    H153124   6.516   1.066   2.830  1.2501 -0.8992  0.4142
 9643TIP3    H253125   6.654   1.096   2.884  0.1745  0.7500  2.3876
 9644TIP3   OH253126   0.490   4.290   1.030  0.4207 -0.1099 -0.0855
 9644TIP3    H153127   0.513   4.327   0.945 -1.6089 -0.9783 -1.0772
 9644TIP3    H253128   0.562   4.317   1.088  1.2492  1.5406 -1.7634
 9645TIP3   OH253129   4.025   2.858   1.019  0.3271 -0.1266  0.2077
 9645TIP3    H153130   3.932   2.844   1.040 -0.1888  1.0079 -1.1445
 9645TIP3    H253131   4.025   2.872   0.924  1.6961  1.3069  0.3907
 9646TIP3   OH253132   5.411   1.450   2.312 -0.1971 -0.2624 -0.1738
 9646TIP3    H153133   5.393   1.540   2.284 -0.6062 -0.1575  0.4022
 9646TIP3    H253134   5.405   1.454   2.408 -0.0592 -0.8712 -0.1387
 9647TIP3   OH253135   3.776   7.510   1.628  0.1941  0.4379  0.4616
 9647TIP3    H153136   3.796   7.534   1.537 -1.1287  0.5503  0.1795
 9647TIP3    H253137   3.819   7.426   1.641  3.3026  1.9684  0.8526
 9648TIP3   OH253138   1.471   0.324   3.035 -0.0495  0.5023  0.2070
 9648TIP3    H153139   1.432   0.357   3.116  0.5249  0.9303  0.3162
 9648TIP3    H253140   1.407   0.262   3.000 -0.0347 -0.1567  1.3068
 9649TIP3   OH253141   2.865   4.048   2.582 -0.1934 -0.1059  0.4279
 9649TIP3    H153142   2.941   4.070   2.636 -1.1772  0.0877  1.8042
 9649TIP3    H253143   2.901   4.000   2.508  1.2831  0.1401  0.9488
 9650TIP3   OH253144   0.058   4.869   2.963  0.2783 -0.1527 -0.0075
 9650TIP3    H153145   0.028   4.803   2.901 -1.3718 -0.2711  0.8638
 9650TIP3    H253146  -0.011   4.935   2.963  0.6282  0.2286  1.1328
 9651TIP3   OH253147   2.092   3.002   2.641  0.3482 -0.5786 -0.1380
 9651TIP3    H153148   2.147   2.950   2.583  0.6585 -0.6536  0.2218
 9651TIP3    H253149   2.044   2.938   2.694  0.6079 -0.5011  0.1915
 9652TIP3   OH253150   2.559   0.445   3.117  0.2011 -0.4739 -0.0805
 9652TIP3    H153151   2.570   0.536   3.091  0.1390  0.6748  3.3517
 9652TIP3    H253152   2.635   0.426   3.173 -1.7380 -1.0931  2.5641
 9653TIP3   OH253153   2.053   1.265   4.246  0.5615  0.3768  0.1151
 9653TIP3    H153154   2.100   1.239   4.167 -1.4105  0.3073 -1.1117
 9653TIP3    H253155   2.018   1.183   4.281 -0.9814  0.6810 -0.6156
 9654TIP3   OH253156   7.502   3.476   0.443  0.1998 -0.0828  0.8526
 9654TIP3    H153157   7.467   3.538   0.379  0.4657  1.4275  2.1002
 9654TIP3    H253158   7.424   3.435   0.481  0.0602 -2.3230 -1.5742
 9655TIP3   OH253159   1.010   0.139   2.340  0.8365  0.0508 -0.8329
 9655TIP3    H153160   1.080   0.116   2.279  0.7385  0.7536 -1.2259
 9655TIP3    H253161   0.989   0.057   2.385  2.0122 -0.1342 -0.5961
 9656TIP3   OH253162   1.033   5.616   2.610  0.5690 -0.2346  0.5766
 9656TIP3    H153163   1.059   5.593   2.700  1.2517 -2.2328 -0.0827
 9656TIP3    H253164   0.944   5.650   2.619 -0.0033 -1.9156  1.8464
 9657TIP3   OH253165   5.298   1.152   2.056  0.2505 -0.3827  0.0408
 9657TIP3    H153166   5.318   1.245   2.063  0.5097 -0.3947 -0.5460
 9657TIP3    H253167   5.357   1.119   1.989 -0.1733 -0.8755 -0.0972
 9658TIP3   OH253168   0.600   4.919   0.749 -0.0999 -0.0115 -0.6705
 9658TIP3    H153169   0.558   4.882   0.671  0.6869  0.8424 -1.5431
 9658TIP3    H253170   0.676   4.862   0.764 -0.6498 -0.6020 -0.0740
 9659TIP3   OH253171   6.285   0.227   2.369  0.1445 -0.1236 -0.0980
 9659TIP3    H153172   6.235   0.172   2.428 -0.7039 -0.3773 -1.0302
 9659TIP3    H253173   6.348   0.168   2.328  0.1593 -0.1203 -0.0801
 9660TIP3   OH253174   1.641   1.861   3.449  0.2734  0.1951 -0.3370
 9660TIP3    H153175   1.683   1.829   3.528  1.0355  1.2271 -0.3018
 9660TIP3    H253176   1.549   1.837   3.459  0.0975  1.4708  1.4921
 9661TIP3   OH253177   1.584   0.833   2.188  0.3181  0.4383  0.1947
 9661TIP3    H153178   1.605   0.748   2.151  0.1361 -0.2015  1.5069
 9661TIP3    H253179   1.564   0.888   2.113  0.4598 -0.6699 -0.6698
 9662TIP3   OH253180   2.375   4.390   2.439  0.2847  0.3790  0.1227
 9662TIP3    H153181   2.358   4.469   2.490 -1.0448 -0.6762  1.4050
 9662TIP3    H253182   2.436   4.340   2.493 -0.6223 -0.4531  0.4007
 9663TIP3   OH253183   4.265   1.314   2.627  0.3359 -0.1607  0.3285
 9663TIP3    H153184   4.312   1.397   2.630  0.6057 -0.2703 -0.4924
 9663TIP3    H253185   4.208   1.321   2.550  1.7077 -1.4122 -0.8576
 9664TIP3   OH253186   0.012   7.033   2.466 -0.5219 -0.1336 -0.0250
 9664TIP3    H153187   0.088   7.022   2.408 -0.7541 -2.3378  0.0182
 9664TIP3    H253188   0.048   7.077   2.543  0.6795 -0.8285 -0.1511
 9665TIP3   OH253189   3.370   0.755   0.889  0.1036  0.3733  0.0279
 9665TIP3    H153190   3.459   0.743   0.920 -0.2834 -0.2433  0.9740
 9665TIP3    H253191   3.322   0.680   0.926 -0.7849  0.6656 -0.4972
 9666TIP3   OH253192   2.260   4.070   1.530 -0.1094 -0.2660  0.1786
 9666TIP3    H153193   2.247   4.155   1.573  1.4820 -0.7834  1.7660
 9666TIP3    H253194   2.354   4.054   1.535 -0.3264 -1.9459 -0.4848
 9667TIP3   OH253195   2.705   4.234   2.430 -0.4912 -1.1269 -0.0942
 9667TIP3    H153196   2.620   4.190   2.433 -0.7924 -0.5044  1.3596
 9667TIP3    H253197   2.753   4.198   2.505 -0.7621  0.9760  1.1636
 9668TIP3   OH253198   5.784   3.584   1.662 -0.6731  0.0746 -0.0183
 9668TIP3    H153199   5.707   3.638   1.683 -0.1967  0.1716  1.6070
 9668TIP3    H253200   5.769   3.502   1.709 -0.4921 -0.4997 -0.9427
 9669TIP3   OH253201   1.315   6.097   2.117  0.1981  0.1928  0.8036
 9669TIP3    H153202   1.252   6.167   2.097  0.4554  0.5383  1.1810
 9669TIP3    H253203   1.262   6.018   2.123 -0.0301  0.2722 -0.1148
 9670TIP3   OH253204   0.869   2.208   2.259 -0.1846 -0.1015  0.4093
 9670TIP3    H153205   0.807   2.245   2.323  0.4435  0.3497  0.7760
 9670TIP3    H253206   0.891   2.282   2.203  1.4943  0.2634  1.4704
 9671TIP3   OH253207   0.591   7.573   2.876  0.1013 -0.5135  0.1425
 9671TIP3    H153208   0.516   7.632   2.872 -0.3005 -0.9821  0.7056
 9671TIP3    H253209   0.625   7.583   2.965  1.9177  1.1566 -0.6628
 9672TIP3   OH253210   4.663   2.296   2.743  0.6489 -0.2252  0.1016
 9672TIP3    H153211   4.629   2.356   2.809 -1.3642 -1.3562  0.1762
 9672TIP3    H253212   4.607   2.311   2.666  1.6788 -0.3284 -0.6860
 9673TIP3   OH253213   2.074   1.379   1.124  0.3408 -0.8806  0.1604
 9673TIP3    H153214   2.160   1.412   1.152  0.0471  1.6557 -1.6758
 9673TIP3    H253215   2.058   1.304   1.182  2.1851  0.7005  2.9427
 9674TIP3   OH253216   0.705   6.806   2.562 -0.2446  0.2181 -0.1657
 9674TIP3    H153217   0.645   6.877   2.538  1.6318  1.3716 -1.7309
 9674TIP3    H253218   0.776   6.850   2.609  0.3528 -0.8014 -0.0831
 9675TIP3   OH253219   5.496   7.187   1.111 -0.2355  0.3835  0.0101
 9675TIP3    H153220   5.511   7.098   1.078 -0.3310 -0.8083  2.8352
 9675TIP3    H253221   5.410   7.211   1.076 -0.8146 -1.2127  0.2258
 9676TIP3   OH253222   7.431   1.622   1.026  0.1315  0.5438  0.2625
 9676TIP3    H153223   7.517   1.653   1.055  1.4518 -0.7123 -2.0211
 9676TIP3    H253224   7.424   1.533   1.061 -0.2949  0.6733  0.5165
 9677TIP3   OH253225   1.775   4.773   1.593  0.4165  0.1271 -0.5939
 9677TIP3    H153226   1.769   4.700   1.531  0.4340 -0.5489  0.1797
 9677TIP3    H253227   1.860   4.814   1.574  0.1852  0.2517 -1.3624
 9678TIP3   OH253228   6.543   2.263   0.694  0.4262  0.2324  0.1102
 9678TIP3    H153229   6.605   2.199   0.730  0.4335 -0.5452 -1.2152
 9678TIP3    H253230   6.518   2.317   0.769 -0.0067 -1.6609  1.3919
 9679TIP3   OH253231   0.341   3.095   1.277 -0.3387  0.0043 -0.4433
 9679TIP3    H153232   0.349   3.140   1.193 -1.9902  0.3626 -0.4386
 9679TIP3    H253233   0.273   3.143   1.324  0.0940 -0.5986  0.8417
 9680TIP3   OH253234   6.154   0.434   2.496  0.1649 -0.0079 -0.2377
 9680TIP3    H153235   6.184   0.524   2.481  0.3666  0.0770  0.6062
 9680TIP3    H253236   6.210   0.380   2.440 -0.7980  0.4768 -1.7262
 9681TIP3   OH253237   1.131   5.212   2.021  0.3144  0.2236 -0.7021
 9681TIP3    H153238   1.214   5.259   2.008  0.3317  0.6008  0.5931
 9681TIP3    H253239   1.085   5.264   2.087  0.7266 -2.0344  1.4926
 9682TIP3   OH253240   3.749   5.573   1.635  0.3952  0.2331 -0.0792
 9682TIP3    H153241   3.825   5.522   1.662  1.0404  0.9702 -0.4742
 9682TIP3    H253242   3.755   5.578   1.540 -0.2789  0.0965 -0.1342
 9683TIP3   OH253243   5.885   4.500   1.259 -0.0874 -0.1318 -0.2926
 9683TIP3    H153244   5.794   4.473   1.267 -0.5213  0.9982 -1.0339
 9683TIP3    H253245   5.880   4.585   1.215  1.3044  0.1393  0.0359
 9684TIP3   OH253246   3.540   5.967   0.680  0.1984 -0.3431  0.4162
 9684TIP3    H153247   3.494   5.981   0.763  0.2763 -2.0088  0.7702
 9684TIP3    H253248   3.532   5.873   0.663  1.5974 -0.3093 -0.6316
 9685TIP3   OH253249   4.261   4.383   2.468 -0.7128  0.1118 -0.6555
 9685TIP3    H153250   4.286   4.291   2.473 -1.0762 -0.0914 -2.2619
 9685TIP3    H253251   4.185   4.385   2.410 -0.1974  1.5164 -1.3464
 9686TIP3   OH253252   0.612   0.014   0.848  0.3725  0.0879  0.1412
 9686TIP3    H153253   0.617  -0.081   0.845  0.1390  0.0371  1.0436
 9686TIP3    H253254   0.550   0.033   0.918 -0.5994  0.9024 -0.9031
 9687TIP3   OH253255   3.521   3.532   2.829  0.6589 -0.0736  0.1688
 9687TIP3    H153256   3.429   3.545   2.849  0.7489 -0.4775  0.8752
 9687TIP3    H253257   3.530   3.559   2.737 -0.1137  0.1614  0.1582
 9688TIP3   OH253258   2.720   5.308   2.381  0.6885 -0.2028 -0.4817
 9688TIP3    H153259   2.625   5.301   2.376  0.7472 -0.4458 -1.7281
 9688TIP3    H253260   2.745   5.250   2.453 -0.1100 -0.0792 -0.0996
 9689TIP3   OH253261   2.262   3.767   1.066 -0.0441 -0.0997 -0.5126
 9689TIP3    H153262   2.274   3.831   1.137 -0.1946  0.7797 -1.2612
 9689TIP3    H253263   2.168   3.771   1.046  0.2873  1.1058 -2.0530
 9690TIP3   OH253264   2.626   0.886   1.481 -0.1441 -0.1347  0.1534
 9690TIP3    H153265   2.658   0.916   1.396  1.1436  0.1288  0.7092
 9690TIP3    H253266   2.664   0.947   1.544 -3.3639  1.4555  0.7521
 9691TIP3   OH253267   5.771   3.905   1.480  0.0722  0.1032 -0.3040
 9691TIP3    H153268   5.717   3.948   1.546 -0.3651 -0.4944 -0.2698
 9691TIP3    H253269   5.750   3.950   1.398 -0.6409 -0.2609 -0.3287
 9692TIP3   OH253270   1.528   3.292   1.100  0.0310 -0.3251 -0.2724
 9692TIP3    H153271   1.621   3.280   1.116  0.0669  1.2626  1.0175
 9692TIP3    H253272   1.497   3.342   1.176 -1.1395  2.3148 -2.3461
 9693TIP3   OH253273   4.142   2.322   0.859 -0.5994 -0.2825  0.5278
 9693TIP3    H153274   4.120   2.312   0.766 -1.0212  1.5906  0.3854
 9693TIP3    H253275   4.063   2.296   0.906 -1.0495  0.5822  0.2678
 9694TIP3   OH253276   0.003   3.550   1.119 -0.1329 -0.3062  0.1219
 9694TIP3    H153277  -0.031   3.514   1.200  1.2668 -0.9094  0.4716
 9694TIP3    H253278   0.008   3.475   1.059  0.6177 -0.2589  0.1086
 9695TIP3   OH253279   3.551   4.844   2.054 -0.0501  0.2252  0.4659
 9695TIP3    H153280   3.516   4.917   2.105  1.7060  1.8519 -0.5344
 9695TIP3    H253281   3.518   4.858   1.966 -0.9592 -1.1186  0.5556
 9696TIP3   OH253282   4.368   1.541   1.715 -0.3324 -0.2658  0.2344
 9696TIP3    H153283   4.373   1.634   1.738 -1.2739 -0.4139  1.0762
 9696TIP3    H253284   4.413   1.496   1.787 -1.0010 -0.5488  0.4813
 9697TIP3   OH253285   0.570   0.955   1.817  0.5673 -0.3459  0.4806
 9697TIP3    H153286   0.641   0.898   1.788  1.7948  0.9889  0.7440
 9697TIP3    H253287   0.555   1.014   1.744 -2.3758 -2.4139 -0.7701
 9698TIP3   OH253288   6.669   3.640   0.829  0.1465 -0.9428  0.0114
 9698TIP3    H153289   6.754   3.643   0.873 -0.3363  0.4683  0.9196
 9698TIP3    H253290   6.606   3.660   0.898 -0.9251 -1.8093 -0.6862
 9699TIP3   OH253291   5.010   5.652   2.484 -0.0754  0.0820  0.2257
 9699TIP3    H153292   5.060   5.587   2.533  1.4045  1.1775  0.2453
 9699TIP3    H253293   5.041   5.643   2.393  0.8222  1.3341  0.3839
 9700TIP3   OH253294   3.484   6.864   2.674  0.3896  0.2517 -0.3335
 9700TIP3    H153295   3.515   6.781   2.638 -0.5750 -0.6737  0.8798
 9700TIP3    H253296   3.389   6.856   2.676  0.1706  2.0057 -1.5759
 9701TIP3   OH253297   5.923   1.906   1.005  0.0031 -0.0992 -0.0415
 9701TIP3    H153298   5.919   1.996   1.040 -1.8959 -0.3864  0.6007
 9701TIP3    H253299   5.975   1.858   1.069 -1.2669 -0.0327  1.0795
 9702TIP3   OH253300   7.672   7.503   3.065 -0.3629 -0.1072  0.0123
 9702TIP3    H153301   7.757   7.509   3.110  1.4033  0.9225 -3.1578
 9702TIP3    H253302   7.688   7.442   2.993 -2.2479  0.3697 -0.8497
 9703TIP3   OH253303   6.223   4.159   1.227 -0.0029 -0.1675  0.1504
 9703TIP3    H153304   6.257   4.247   1.244  1.3924 -1.2024  3.8080
 9703TIP3    H253305   6.292   4.117   1.175  0.2840  0.2961  0.1452
 9704TIP3   OH253306   0.334   7.539   1.269  0.0905  0.6454 -0.2828
 9704TIP3    H153307   0.255   7.500   1.233  0.7018 -0.4708 -0.4445
 9704TIP3    H253308   0.391   7.465   1.288  1.0169  1.4213  0.0320
 9705TIP3   OH253309   1.598   6.865   2.052  0.7046 -0.1712 -0.0386
 9705TIP3    H153310   1.551   6.787   2.021  0.4059 -0.2902  0.6765
 9705TIP3    H253311   1.532   6.914   2.100  1.2380 -0.1971  0.7381
 9706TIP3   OH253312   0.615   0.398   2.200 -0.3380  0.2667  0.5445
 9706TIP3    H153313   0.650   0.354   2.277  0.4027 -0.6542 -0.2842
 9706TIP3    H253314   0.645   0.489   2.209  0.8003 -0.1086  0.7502
 9707TIP3   OH253315   5.705   2.930   2.339 -0.3504  0.1519 -0.4651
 9707TIP3    H153316   5.703   3.025   2.327 -1.0681  0.0197 -1.4681
 9707TIP3    H253317   5.618   2.908   2.373 -0.0245 -0.0945  0.2262
 9708TIP3   OH253318   3.904   6.520   2.509  0.0687  0.5256  0.0645
 9708TIP3    H153319   3.939   6.509   2.597  0.7497 -0.0030 -0.2594
 9708TIP3    H253320   3.836   6.453   2.501  2.0568 -1.5373 -0.8134
 9709TIP3   OH253321   4.554   4.660   0.704 -0.0948 -0.3242  0.7017
 9709TIP3    H153322   4.626   4.650   0.767 -1.2682 -0.3147  2.1140
 9709TIP3    H253323   4.531   4.570   0.680  1.5645 -0.2976 -1.2292
 9710TIP3   OH253324   1.730   3.458   2.498  0.3763  0.0429  0.0892
 9710TIP3    H153325   1.780   3.530   2.458  0.8795  0.0903  0.7843
 9710TIP3    H253326   1.697   3.495   2.580 -0.4820 -0.1146 -0.1784
 9711TIP3   OH253327   6.768   3.723   2.353  0.3921 -0.6559 -0.1886
 9711TIP3    H153328   6.828   3.789   2.389 -0.5248 -0.0463  0.2714
 9711TIP3    H253329   6.755   3.662   2.426 -0.7981  0.1105  0.2717
 9712TIP3   OH253330   0.685   7.624   1.200  0.2320 -0.2449 -0.5524
 9712TIP3    H153331   0.744   7.645   1.272  0.4948  0.8367 -1.0685
 9712TIP3    H253332   0.633   7.703   1.187  1.1358  0.0895 -2.4392
 9713TIP3   OH253333   1.193   3.605   1.581 -0.2139 -0.3141  0.3533
 9713TIP3    H153334   1.184   3.643   1.494  0.0631  2.0368  1.2738
 9713TIP3    H253335   1.149   3.520   1.575 -0.1585 -0.2308 -2.0620
 9714TIP3   OH253336   1.009   7.284   1.407  0.6759  0.6358 -0.2698
 9714TIP3    H153337   1.063   7.208   1.385  1.7399  1.4407 -0.5473
 9714TIP3    H253338   0.958   7.302   1.328 -0.7022 -0.6666  0.2829
 9715TIP3   OH253339   7.559   7.386   2.606  0.0537  0.0118  0.1356
 9715TIP3    H153340   7.481   7.357   2.560  0.0115 -1.2321  0.9290
 9715TIP3    H253341   7.542   7.478   2.629 -2.3943 -0.9422  2.6753
 9716TIP3   OH253342   3.070   6.670   2.546  0.3467 -0.1790  0.0890
 9716TIP3    H153343   3.109   6.631   2.468  1.1658 -1.1042  0.9347
 9716TIP3    H253344   2.979   6.687   2.521  0.6560 -0.2433 -1.1376
 9717TIP3   OH253345   3.313   0.781   1.753  0.1976 -0.4585  0.1395
 9717TIP3    H153346   3.261   0.714   1.797  0.0435 -0.9965 -0.8437
 9717TIP3    H253347   3.297   0.767   1.660  1.1719  0.1402 -0.1294
 9718TIP3   OH253348   2.857   5.242   0.808  0.5962 -0.1785  0.7322
 9718TIP3    H153349   2.854   5.149   0.830 -0.8161 -0.6516 -1.1655
 9718TIP3    H253350   2.785   5.280   0.858  1.7448  0.1027  2.2196
 9719TIP3   OH253351   3.821   7.651   0.923  0.0634  0.5162 -0.2159
 9719TIP3    H153352   3.734   7.612   0.920 -1.1625  2.8300  1.5766
 9719TIP3    H253353   3.823   7.710   0.848 -0.8611  2.1139  0.9557
 9720TIP3   OH253354   3.791   6.124   2.333 -0.2906  0.0192  0.2269
 9720TIP3    H153355   3.881   6.155   2.337 -0.1735 -0.3584  0.6410
 9720TIP3    H253356   3.798   6.032   2.309 -0.5926  0.1203 -0.2512
 9721TIP3   OH253357   7.156   4.127   0.994 -0.2594 -0.0972 -0.0491
 9721TIP3    H153358   7.102   4.057   1.032 -1.2836  0.8962  0.3866
 9721TIP3    H253359   7.245   4.106   1.022 -0.8014 -0.1368  1.7852
 9722TIP3   OH253360   7.104   6.322   1.515 -0.0086 -0.3861 -0.5235
 9722TIP3    H153361   7.142   6.365   1.439 -0.0970  0.0717 -0.3134
 9722TIP3    H253362   7.045   6.256   1.478 -1.0130  0.6776 -0.8770
 9723TIP3   OH253363   4.766   2.211   3.274  0.0644  0.0669 -0.2193
 9723TIP3    H153364   4.816   2.240   3.198 -1.4405 -0.1427 -1.3385
 9723TIP3    H253365   4.776   2.282   3.338  2.9149 -0.5938  0.2089
 9724TIP3   OH253366   4.371   7.416   1.035  0.2708 -0.4258  0.0465
 9724TIP3    H153367   4.354   7.475   0.961 -0.0905  1.0453  1.2452
 9724TIP3    H253368   4.305   7.348   1.027 -0.5351  0.3706 -0.3360
 9725TIP3   OH253369   2.811   3.326   3.333  0.1984  0.6391 -0.3365
 9725TIP3    H153370   2.831   3.381   3.257  0.8500  1.0559  0.1396
 9725TIP3    H253371   2.722   3.352   3.359  0.0611  0.6545 -0.8070
 9726TIP3   OH253372   1.296   7.584   1.142 -0.0813 -0.0536  0.4576
 9726TIP3    H153373   1.306   7.602   1.049 -0.1398 -1.6934  0.0963
 9726TIP3    H253374   1.202   7.594   1.159 -0.4841 -2.0654 -0.2513
 9727TIP3   OH253375   5.728   0.892   0.621  0.4984  0.2861 -0.6558
 9727TIP3    H153376   5.643   0.878   0.580 -0.0864  1.4900  0.1117
 9727TIP3    H253377   5.710   0.948   0.696  1.4415 -2.1871  1.5876
 9728TIP3   OH253378   5.155   1.992   1.076 -0.5069  0.2072  0.1976
 9728TIP3    H153379   5.118   2.080   1.088 -1.0223 -0.1613  1.4084
 9728TIP3    H253380   5.166   1.958   1.164  0.3534 -0.6899 -0.2369
 9729TIP3   OH253381   7.275   0.302   0.783  0.4649  0.2124 -0.3607
 9729TIP3    H153382   7.311   0.256   0.859  0.2606  2.3225  1.1101
 9729TIP3    H253383   7.182   0.279   0.783  0.5290 -0.0455 -0.1530
 9730TIP3   OH253384   1.806   6.503   3.363 -0.2615 -0.4170  0.4331
 9730TIP3    H153385   1.786   6.559   3.288 -0.4718 -0.8802  0.1409
 9730TIP3    H253386   1.813   6.563   3.437  0.3467  0.0951 -0.0289
 9731TIP3   OH253387   4.547   5.478   2.408  0.7458  0.1681  0.1933
 9731TIP3    H153388   4.586   5.415   2.467 -1.5018  0.2458  1.9235
 9731TIP3    H253389   4.590   5.561   2.429  1.5051 -0.2095  0.1467
 9732TIP3   OH253390   5.308   3.291   2.553 -0.1765  0.3485  0.5000
 9732TIP3    H153391   5.380   3.260   2.609 -2.1921 -0.3585  2.8575
 9732TIP3    H253392   5.339   3.376   2.520  2.1757 -0.4518  0.4701
 9733TIP3   OH253393   6.580   7.525   1.593  0.0217  0.1220 -0.1641
 9733TIP3    H153394   6.554   7.555   1.506 -1.7007  1.0260  0.6115
 9733TIP3    H253395   6.586   7.429   1.584 -1.1730  0.1034 -1.0268
 9734TIP3   OH253396   6.370   6.888   1.445 -0.5068  0.2411 -0.5745
 9734TIP3    H153397   6.307   6.954   1.417 -1.9554 -0.2520  1.3572
 9734TIP3    H253398   6.378   6.828   1.371 -0.5963  1.5225 -1.6476
 9735TIP3   OH253399   7.674   1.757   2.555  0.6944  0.3833  0.1222
 9735TIP3    H153400   7.712   1.669   2.548  1.6577  0.7483  0.6231
 9735TIP3    H253401   7.589   1.743   2.596  0.0036 -0.5111 -1.4956
 9736TIP3   OH253402   4.450   0.111   2.025  0.1588 -0.2047  0.1813
 9736TIP3    H153403   4.388   0.086   2.093 -0.3176  0.4780  0.0104
 9736TIP3    H253404   4.461   0.205   2.036  1.1250 -0.3019  0.1662
 9737TIP3   OH253405   7.499   1.257   1.018  0.1296  0.3444 -0.0307
 9737TIP3    H153406   7.461   1.172   0.996  0.7019 -0.0933  0.6529
 9737TIP3    H253407   7.504   1.258   1.113  1.3615  0.5969 -0.0868
 9738TIP3   OH253408   2.163   5.738   1.738  0.3990 -0.3103  0.2460
 9738TIP3    H153409   2.257   5.751   1.750  0.6810 -1.2910 -0.7123
 9738TIP3    H253410   2.151   5.745   1.643 -0.7077  1.0269  0.4445
 9739TIP3   OH253411   0.587   6.405   2.212  0.1780 -0.5412 -0.3287
 9739TIP3    H153412   0.536   6.485   2.225  0.3384 -0.3865 -0.6523
 9739TIP3    H253413   0.524   6.342   2.175  0.6704  0.2643 -2.6849
 9740TIP3   OH253414   0.864   5.190   0.620 -0.1802  0.6880 -0.6411
 9740TIP3    H153415   0.777   5.191   0.581  0.2632 -0.8081 -1.7466
 9740TIP3    H253416   0.902   5.276   0.598 -1.4828  1.5258  0.2153
 9741TIP3   OH253417   5.379   2.113   3.113  0.5049  0.1051 -0.2214
 9741TIP3    H153418   5.359   2.065   3.032 -2.7919  0.5312  0.1855
 9741TIP3    H253419   5.298   2.160   3.133  1.6502  1.0616  2.6288
 9742TIP3   OH253420   5.098   1.125   3.187 -0.1799 -0.1621  0.2579
 9742TIP3    H153421   5.004   1.142   3.188 -0.0000  0.8625  1.0393
 9742TIP3    H253422   5.105   1.032   3.162 -1.4253 -0.4499  0.8947
 9743TIP3   OH253423   5.457   2.316   2.638  1.1467  0.4582 -0.4103
 9743TIP3    H153424   5.510   2.244   2.604  1.5321  1.1679 -1.3616
 9743TIP3    H253425   5.512   2.357   2.705  1.0862  0.1231 -0.1509
 9744TIP3   OH253426   6.748   3.781   1.693 -0.4317 -0.4512  0.0699
 9744TIP3    H153427   6.663   3.737   1.699 -0.4138 -1.4457 -4.1060
 9744TIP3    H253428   6.734   3.864   1.739 -3.7235 -0.5328 -0.5070
 9745TIP3   OH253429   1.209   6.643   2.390 -0.1366  0.0741  0.4837
 9745TIP3    H153430   1.266   6.612   2.320 -1.3636 -1.1826 -0.0158
 9745TIP3    H253431   1.251   6.722   2.423 -0.0788  1.3864 -2.4253
 9746TIP3   OH253432   2.862   1.504   2.259 -0.2807  0.0561  0.4465
 9746TIP3    H153433   2.801   1.458   2.202  1.5290  0.2566 -1.8213
 9746TIP3    H253434   2.851   1.596   2.237 -0.5222  0.2828  1.4628
 9747TIP3   OH253435   2.488   6.703   3.211  0.2544  0.3811 -0.1687
 9747TIP3    H153436   2.454   6.775   3.158 -0.5634 -0.4127 -0.7482
 9747TIP3    H253437   2.430   6.630   3.192 -0.2811  0.1496  2.0809
 9748TIP3   OH253438   3.931   7.321   0.858 -0.1131 -0.2927  0.0987
 9748TIP3    H153439   3.900   7.317   0.767  0.2035  0.9240 -0.0683
 9748TIP3    H253440   3.851   7.328   0.910 -0.2310  0.4396 -0.1788
 9749TIP3   OH253441   1.292   3.251   0.931  0.0248  0.5319  0.3643
 9749TIP3    H153442   1.375   3.274   0.972  0.5874 -0.1912 -0.3275
 9749TIP3    H253443   1.311   3.253   0.837  0.6844 -4.3218  0.1397
 9750TIP3   OH253444   1.873   1.074   2.673  0.1385  0.2136 -0.0078
 9750TIP3    H153445   1.780   1.092   2.688  0.1387  0.3424 -0.1564
 9750TIP3    H253446   1.891   1.112   2.587  0.3503  0.2735  0.0627
 9751TIP3   OH253447   3.852   0.052   1.995  0.1662  0.2527 -0.1646
 9751TIP3    H153448   3.944   0.078   1.988  0.3166 -0.1904  0.1358
 9751TIP3    H253449   3.806   0.131   2.022  0.4640  0.4672 -0.2817
 9752TIP3   OH253450   2.718   2.414   1.048 -0.4518 -0.1409 -0.1408
 9752TIP3    H153451   2.684   2.461   0.972  1.0979  1.0667 -0.1483
 9752TIP3    H253452   2.813   2.425   1.042 -0.2873  0.0244  1.9948
 9753TIP3   OH253453   4.697   7.354   2.355  1.0349 -0.0654  0.2281
 9753TIP3    H153454   4.688   7.292   2.282 -1.0407  0.5086 -0.0702
 9753TIP3    H253455   4.634   7.323   2.420  1.3003  0.6950  0.8638
 9754TIP3   OH253456   5.227   1.873   1.314 -0.4730 -0.0616  0.5773
 9754TIP3    H153457   5.184   1.807   1.367  0.1962 -0.0512  1.1462
 9754TIP3    H253458   5.295   1.826   1.266  0.0043  0.2076  0.9826
 9755TIP3   OH253459   5.321   4.294   0.526  0.0795 -0.4452 -0.2262
 9755TIP3    H153460   5.391   4.229   0.516  2.0131  1.7666 -2.2783
 9755TIP3    H253461   5.254   4.268   0.464  1.4615  0.1755 -2.0570
 9756TIP3   OH253462   5.541   7.219   0.530  0.5067  0.3112 -0.0437
 9756TIP3    H153463   5.562   7.222   0.623 -1.1515  0.0639  0.3780
 9756TIP3    H253464   5.619   7.253   0.486  0.6571  2.1536  1.5334
 9757TIP3   OH253465   6.610   0.990   1.748  0.1576  0.1727 -0.2219
 9757TIP3    H153466   6.608   0.901   1.785  1.1547 -0.0696 -0.7089
 9757TIP3    H253467   6.645   1.044   1.818 -0.8580  0.2687  0.2254
 9758TIP3   OH253468   6.228   7.347   0.491  0.1339 -0.1434 -0.0914
 9758TIP3    H153469   6.299   7.292   0.461  0.3731 -0.6922  1.4300
 9758TIP3    H253470   6.271   7.422   0.533 -0.1802 -0.2376  0.4068
 9759TIP3   OH253471   1.594   6.160   2.737 -0.1735 -0.3795 -0.1331
 9759TIP3    H153472   1.558   6.113   2.812 -3.2065  0.1967 -1.0871
 9759TIP3    H253473   1.519   6.175   2.680  1.7789  0.3512 -2.7043
 9760TIP3   OH253474   2.656   0.221   2.445  0.0848  1.0294  0.0656
 9760TIP3    H153475   2.637   0.183   2.531 -0.5576  2.4120  0.5838
 9760TIP3    H253476   2.578   0.273   2.425 -0.9686 -1.3225 -2.6087
 9761TIP3   OH253477   3.166   7.357   0.895  0.2597 -0.3590  0.0558
 9761TIP3    H153478   3.230   7.414   0.853 -0.5589  1.2566  0.8895
 9761TIP3    H253479   3.086   7.366   0.842  0.4162 -1.5930 -0.4176
 9762TIP3   OH253480   7.557   1.256   0.632  0.2031  0.3592  0.0010
 9762TIP3    H153481   7.472   1.269   0.591 -0.9837  0.8540  2.4812
 9762TIP3    H253482   7.560   1.163   0.654 -0.1553  0.5372  0.8313
 9763TIP3   OH253483   5.463   4.153   1.968 -0.2418  0.3058  0.0322
 9763TIP3    H153484   5.533   4.091   1.992 -0.6737 -0.8216 -1.4561
 9763TIP3    H253485   5.407   4.156   2.045 -0.6483 -1.8429 -0.1118
 9764TIP3   OH253486   2.469   7.444   2.489 -0.4951 -0.2141 -0.3718
 9764TIP3    H153487   2.521   7.510   2.536 -0.1812 -0.3728 -0.4938
 9764TIP3    H253488   2.383   7.447   2.531 -0.9801  1.3936 -1.4152
 9765TIP3   OH253489   5.134   4.744   2.096 -0.1280 -0.1650 -0.0512
 9765TIP3    H153490   5.095   4.829   2.078 -1.1629 -0.4535  0.7135
 9765TIP3    H253491   5.060   4.689   2.122  0.5432 -1.2541 -0.3806
 9766TIP3   OH253492   0.026   2.302   3.526 -0.1374  0.2644  0.1498
 9766TIP3    H153493  -0.031   2.368   3.487  0.3932  1.1511  0.8178
 9766TIP3    H253494   0.097   2.291   3.463  1.4160  2.6586  1.3304
 9767TIP3   OH253495   2.221   2.261   3.304 -0.1752  0.5630  0.0416
 9767TIP3    H153496   2.214   2.207   3.382  0.4131  1.0886  0.4734
 9767TIP3    H253497   2.135   2.257   3.263 -0.0839 -0.8578 -0.0520
 9768TIP3   OH253498   6.954   3.940   2.721 -0.1983  0.0355 -0.2023
 9768TIP3    H153499   6.865   3.922   2.690 -0.2347  0.3464 -0.2776
 9768TIP3    H253500   6.976   3.865   2.776 -1.1349  0.7520  1.1796
 9769TIP3   OH253501   0.778   0.763   2.466  1.2205 -0.2087 -0.2689
 9769TIP3    H153502   0.819   0.739   2.549  0.8500  0.4147  0.1003
 9769TIP3    H253503   0.791   0.858   2.459  3.2415 -0.5452 -2.0230
 9770TIP3   OH253504   4.258   6.215   1.905  0.6945 -0.5664 -0.6947
 9770TIP3    H153505   4.176   6.241   1.948  0.8252  0.5578 -1.0904
 9770TIP3    H253506   4.233   6.198   1.814  0.4383 -2.8412 -0.2564
 9771TIP3   OH253507   2.486   1.151   2.150 -0.0212  0.1522 -0.1362
 9771TIP3    H153508   2.457   1.110   2.232  1.4220  2.1241  1.4654
 9771TIP3    H253509   2.414   1.209   2.125 -0.6993 -0.8656 -0.6187
 9772TIP3   OH253510   3.521   5.033   2.252  0.1987  0.4210  0.1156
 9772TIP3    H153511   3.435   5.058   2.285 -0.2532 -1.4744  0.4373
 9772TIP3    H253512   3.581   5.053   2.324 -0.2171  0.1200  0.5508
 9773TIP3   OH253513   5.180   1.770   2.777  0.4867 -0.2682 -0.1143
 9773TIP3    H153514   5.233   1.721   2.715  1.7372 -0.4815  1.0799
 9773TIP3    H253515   5.119   1.705   2.813  0.1179 -0.2589 -0.7070
 9774TIP3   OH253516   0.854   1.558   2.021 -0.2431  0.7624 -0.0913
 9774TIP3    H153517   0.782   1.499   2.000  0.0763  0.1933  0.3560
 9774TIP3    H253518   0.837   1.637   1.971 -1.8966  1.1694  1.0495
 9775TIP3   OH253519   7.017   2.696   0.353  0.1183 -0.7023 -0.8189
 9775TIP3    H153520   6.935   2.691   0.305  0.7781  0.2765 -2.0944
 9775TIP3    H253521   6.995   2.740   0.435 -0.8647 -1.6658 -0.5461
 9776TIP3   OH253522   0.288   0.988   0.984  0.3159  0.4182  0.3957
 9776TIP3    H153523   0.324   0.899   0.982  0.3519  0.4493 -0.2683
 9776TIP3    H253524   0.273   1.004   1.077  1.1800  0.0676  0.6121
 9777TIP3   OH253525   0.077   4.843   1.187 -0.2242 -0.3106  0.2940
 9777TIP3    H153526   0.024   4.921   1.173 -0.0213  0.0203  1.2618
 9777TIP3    H253527   0.014   4.776   1.215 -0.1807  0.0451  1.3110
 9778TIP3   OH253528   2.363   4.994   2.206 -0.0245 -0.0390 -0.1420
 9778TIP3    H153529   2.435   4.954   2.254 -1.7557 -0.6149  2.1137
 9778TIP3    H253530   2.358   5.084   2.240 -1.3642 -0.4973  0.9445
 9779TIP3   OH253531   5.765   2.446   2.130  0.6746  0.1380  0.0710
 9779TIP3    H153532   5.779   2.535   2.162 -0.1676  0.2656  0.1207
 9779TIP3    H253533   5.728   2.399   2.205 -0.1174  0.1022 -0.3318
 9780TIP3   OH253534   5.925   0.085   3.016 -0.4289  0.1482 -0.1782
 9780TIP3    H153535   5.955   0.017   3.077 -0.4083  0.1600 -0.1753
 9780TIP3    H253536   5.951   0.052   2.930  0.9781  0.8696 -0.0667
 9781TIP3   OH253537   6.768   5.922   2.580 -0.6426 -0.3470  0.0022
 9781TIP3    H153538   6.735   5.991   2.523  0.5886 -0.2493 -0.6141
 9781TIP3    H253539   6.737   5.947   2.668  0.3443  1.3821 -0.0901
 9782TIP3   OH253540   4.247   0.810   1.508  0.0812  0.1851 -0.3561
 9782TIP3    H153541   4.302   0.732   1.498  1.1419  0.9417 -0.4430
 9782TIP3    H253542   4.158   0.774   1.519  0.8055 -1.1528  1.9094
 9783TIP3   OH253543   4.033   7.582   0.516  0.1553  0.2948  0.2396
 9783TIP3    H153544   3.980   7.502   0.518  1.2166 -0.4521 -0.3953
 9783TIP3    H253545   4.119   7.553   0.487  0.3376  1.8006 -0.8437
 9784TIP3   OH253546   7.467   0.513   0.553 -0.5554 -0.6422  0.0596
 9784TIP3    H153547   7.388   0.501   0.501 -0.6865 -1.7431  0.4656
 9784TIP3    H253548   7.486   0.425   0.587  1.7885 -0.7823 -1.3805
 9785TIP3   OH253549   6.586   1.772   0.934 -0.4236  0.3225  0.3844
 9785TIP3    H153550   6.579   1.677   0.918 -1.2022  0.5999 -1.0875
 9785TIP3    H253551   6.678   1.792   0.917 -0.7496  0.2087 -1.8526
 9786TIP3   OH253552   4.036   1.795   0.831  0.1947 -0.2126  0.2816
 9786TIP3    H153553   3.958   1.796   0.775  1.3517 -3.6523 -1.7370
 9786TIP3    H253554   4.014   1.853   0.904 -2.3947  2.6651 -2.4499
 9787TIP3   OH253555   5.089   5.346   0.583 -0.0282 -0.1095 -0.1124
 9787TIP3    H153556   5.097   5.290   0.660  1.0086  0.4659  0.2228
 9787TIP3    H253557   5.064   5.286   0.512  2.4794 -1.3086 -0.0939
 9788TIP3   OH253558   4.438   0.058   1.078 -0.0832 -0.8594  0.0320
 9788TIP3    H153559   4.464   0.004   1.153 -2.6159  0.3067  1.8984
 9788TIP3    H253560   4.400   0.136   1.117  2.6750  2.0482 -2.5349
 9789TIP3   OH253561   0.617   3.477   2.809 -0.7058  0.2397  0.6450
 9789TIP3    H153562   0.619   3.536   2.885 -0.7675 -0.4615  1.2071
 9789TIP3    H253563   0.524   3.455   2.799 -1.0144  2.0292 -1.0129
 9790TIP3   OH253564   6.471   3.734   1.005 -0.1552 -0.4861  0.0569
 9790TIP3    H153565   6.422   3.659   1.040 -0.4963 -0.3425 -0.1005
 9790TIP3    H253566   6.477   3.795   1.078 -4.1139  1.4730 -0.9502
 9791TIP3   OH253567   4.252   0.054   2.209  0.1483  0.0158  0.3555
 9791TIP3    H153568   4.190  -0.005   2.252 -0.8937  0.3840 -0.5716
 9791TIP3    H253569   4.324   0.063   2.271 -1.1642  0.3423  1.9070
 9792TIP3   OH253570   2.615   3.854   1.370 -0.1905  1.0010 -0.0171
 9792TIP3    H153571   2.598   3.829   1.280 -0.1961 -0.5451  0.3890
 9792TIP3    H253572   2.678   3.926   1.364  1.3185 -0.3641 -1.2120
 9793TIP3   OH253573   6.144   4.203   0.659  0.1127  0.6904 -0.2767
 9793TIP3    H153574   6.084   4.261   0.706 -1.2830 -0.2543 -0.8319
 9793TIP3    H253575   6.217   4.190   0.720 -1.0158  0.5674  1.0926
 9794TIP3   OH253576   5.580   2.075   2.508 -0.7123 -0.3631 -1.0584
 9794TIP3    H153577   5.593   2.039   2.420  0.6155  0.1156 -1.0707
 9794TIP3    H253578   5.569   1.998   2.564  3.1329 -0.9645 -0.9064
 9795TIP3   OH253579   2.834   6.100   2.606  0.4400  0.3395 -0.4410
 9795TIP3    H153580   2.895   6.160   2.650  1.2315 -1.1818  0.6014
 9795TIP3    H253581   2.747   6.130   2.633  0.7670  1.6196 -0.7487
 9796TIP3   OH253582   4.342   4.123   2.522  0.2223  0.2551 -0.1096
 9796TIP3    H153583   4.320   4.074   2.601  0.7977  0.4481  0.1734
 9796TIP3    H253584   4.362   4.056   2.457 -1.7849  0.0405 -0.5764
 9797TIP3   OH253585   1.088   7.212   1.951  0.7857  0.0235  0.3707
 9797TIP3    H153586   1.022   7.266   1.907  0.2576 -2.0833 -1.6053
 9797TIP3    H253587   1.071   7.224   2.045 -1.8498  0.1927 -0.0760
 9798TIP3   OH253588   0.781   6.422   1.511 -0.3112  0.0901  0.0503
 9798TIP3    H153589   0.847   6.396   1.576 -0.6606 -0.8269  0.0590
 9798TIP3    H253590   0.738   6.498   1.550  0.8282  0.7986 -0.0253
 9799TIP3   OH253591   5.198   0.057   1.435  0.1071  0.2677  0.2508
 9799TIP3    H153592   5.163   0.065   1.524 -0.5363 -2.7486  0.3777
 9799TIP3    H253593   5.155   0.126   1.386 -0.0839  1.5346  2.1045
 9800TIP3   OH253594   5.577   1.756   2.388 -0.1080  0.0648  0.0769
 9800TIP3    H153595   5.604   1.743   2.297 -1.4548 -0.8893 -0.2123
 9800TIP3    H253596   5.639   1.821   2.422  2.8620 -2.3303 -0.3354
 9801TIP3   OH253597   5.782   7.630   2.475  0.0256 -0.3139 -0.2591
 9801TIP3    H153598   5.849   7.611   2.409  1.8351 -2.1288  1.8739
 9801TIP3    H253599   5.832   7.637   2.557 -1.9977  2.6151  0.8849
 9802TIP3   OH253600   2.151   4.262   0.660  0.2405 -0.3856  0.4902
 9802TIP3    H153601   2.138   4.316   0.738 -2.4816 -0.2206  0.0262
 9802TIP3    H253602   2.214   4.311   0.607 -0.8176  1.5034  0.8764
 9803TIP3   OH253603   6.290   0.463   0.744 -0.2590  0.4293  0.1253
 9803TIP3    H153604   6.196   0.477   0.752 -0.5269 -1.2739  0.2458
 9803TIP3    H253605   6.311   0.399   0.812  1.0486  0.9533  0.2564
 9804TIP3   OH253606   0.368   5.089   2.806  0.1279 -0.1423 -0.1883
 9804TIP3    H153607   0.450   5.133   2.830  0.2742 -0.7300  0.4163
 9804TIP3    H253608   0.341   5.043   2.885 -0.1746 -0.9071 -0.7217
 9805TIP3   OH253609   2.568   1.413   2.349  0.1482  0.8637  0.5773
 9805TIP3    H153610   2.611   1.387   2.268  2.1504 -1.8810  2.3376
 9805TIP3    H253611   2.606   1.499   2.370 -0.0573  1.3885 -1.0897
 9806TIP3   OH253612   4.663   3.762   2.194 -0.2380  0.1974  0.6645
 9806TIP3    H153613   4.640   3.693   2.132  1.2269  1.6045 -1.5991
 9806TIP3    H253614   4.582   3.811   2.207 -0.3954  0.3964 -0.8941
 9807TIP3   OH253615   4.695   6.874   3.064  0.5749  0.0239 -0.4554
 9807TIP3    H153616   4.768   6.859   3.124 -0.4585  1.0093  1.1213
 9807TIP3    H253617   4.629   6.918   3.117 -0.0167  1.8879 -2.5886
 9808TIP3   OH253618   6.276   3.576   1.163  0.1971 -0.5546  0.1113
 9808TIP3    H153619   6.330   3.585   1.241  0.0085 -2.0403  0.4404
 9808TIP3    H253620   6.207   3.515   1.188 -1.6493  1.2564 -0.3134
 9809TIP3   OH253621   1.404   2.543   2.337  0.0318 -0.3133 -0.0616
 9809TIP3    H153622   1.383   2.451   2.356 -0.7334 -0.3070 -0.8043
 9809TIP3    H253623   1.480   2.539   2.280  0.4833 -0.4456  0.5349
 9810TIP3   OH253624   4.230   1.552   1.411  0.3496 -0.0253 -0.6872
 9810TIP3    H153625   4.300   1.598   1.456 -0.6739  1.1325 -0.2246
 9810TIP3    H253626   4.197   1.489   1.475 -1.8237  2.3432  0.7323
 9811TIP3   OH253627   7.028   1.693   3.667  0.1046  0.5200 -0.1699
 9811TIP3    H153628   7.088   1.737   3.727 -0.7449 -0.8719  1.7956
 9811TIP3    H253629   7.059   1.718   3.580  2.6149  1.0306  0.7774
 9812TIP3   OH253630   6.952   4.679   2.284  0.3805  0.5495 -0.0513
 9812TIP3    H153631   6.862   4.692   2.257 -0.0213  1.1688  1.4628
 9812TIP3    H253632   6.973   4.590   2.256 -1.0480  0.0197  0.4828
 9813TIP3   OH253633   5.220   5.614   1.911  0.7707 -0.0819  0.3652
 9813TIP3    H153634   5.142   5.658   1.877 -0.3819  0.7739  3.7216
 9813TIP3    H253635   5.187   5.528   1.939  1.1202  0.1090  1.3787
 9814TIP3   OH253636   1.947   3.177   2.802 -0.3231  0.1525 -0.1762
 9814TIP3    H153637   1.932   3.112   2.871  1.2433  0.1499  0.2161
 9814TIP3    H253638   2.027   3.147   2.760 -0.0308  1.3862 -0.5251
 9815TIP3   OH253639   6.665   7.341   2.902  0.5707  0.0731  0.1049
 9815TIP3    H153640   6.588   7.304   2.946  0.3928  0.1615 -0.1335
 9815TIP3    H253641   6.705   7.397   2.969  1.0444 -0.8125  0.5874
 9816TIP3   OH253642   1.043   6.968   1.518 -0.7068  0.0328 -0.4623
 9816TIP3    H153643   0.969   6.907   1.512 -1.7066  1.0680  0.8066
 9816TIP3    H253644   1.014   7.035   1.580  0.0467  2.2218 -2.3130
 9817TIP3   OH253645   5.182   7.155   1.641  0.0094  0.5234  0.7323
 9817TIP3    H153646   5.203   7.092   1.710 -0.7145  0.8613  1.2577
 9817TIP3    H253647   5.140   7.102   1.573  2.0199 -0.0860 -0.1342
 9818TIP3   OH253648   6.024   0.303   2.117  0.1236  0.1493 -0.5296
 9818TIP3    H153649   5.985   0.262   2.194 -1.4930 -0.7368 -1.7769
 9818TIP3    H253650   6.118   0.293   2.130 -0.1167 -0.1984  1.1914
 9819TIP3   OH253651   1.729   1.729   3.701  0.0191 -0.4317 -0.3642
 9819TIP3    H153652   1.799   1.671   3.671  0.0797  0.0882 -1.2547
 9819TIP3    H253653   1.660   1.669   3.730  0.3161 -0.9464 -0.6993
 9820TIP3   OH253654   5.631   3.108   1.951 -0.3582 -0.2671  0.3482
 9820TIP3    H153655   5.600   3.084   1.864 -2.3195 -2.8766  1.6264
 9820TIP3    H253656   5.552   3.111   2.005  0.7530  1.5867  2.0474
 9821TIP3   OH253657   1.957   4.397   0.996  0.0564 -0.4564 -0.2074
 9821TIP3    H153658   1.921   4.420   0.910 -2.0624 -1.1253  0.4509
 9821TIP3    H253659   2.051   4.413   0.987 -0.5619  4.1205 -1.1657
 9822TIP3   OH253660   0.002   1.742   3.290 -0.0604  0.2035 -0.0782
 9822TIP3    H153661  -0.014   1.825   3.334 -0.2097  0.3734 -0.4455
 9822TIP3    H253662  -0.085   1.706   3.272 -0.0963  1.1454 -2.1043
 9823TIP3   OH253663   1.226   2.419   1.752  0.0970 -0.3096 -0.3899
 9823TIP3    H153664   1.282   2.447   1.679  1.0428  1.0116  0.7813
 9823TIP3    H253665   1.205   2.328   1.732 -0.4239  0.2344 -2.7530
 9824TIP3   OH253666   7.055   7.173   2.270  0.5508 -0.4558  0.6606
 9824TIP3    H153667   6.981   7.227   2.300  0.8599 -0.8326  2.1846
 9824TIP3    H253668   7.056   7.098   2.329  1.5621 -0.9540  0.0413
 9825TIP3   OH253669   5.088   1.545   2.505 -0.0173  0.3870  0.0677
 9825TIP3    H153670   5.103   1.541   2.411  0.0948  2.1949 -0.0366
 9825TIP3    H253671   5.171   1.578   2.541 -0.1382 -0.0509  0.7740
 9826TIP3   OH253672   1.775   5.617   2.753 -0.3649 -0.0206 -0.2641
 9826TIP3    H153673   1.826   5.624   2.672  0.5033  0.3844  0.2983
 9826TIP3    H253674   1.746   5.706   2.771 -1.3159 -0.2508 -0.5862
 9827TIP3   OH253675   2.483   0.762   3.342  0.1040 -0.0672 -0.4421
 9827TIP3    H153676   2.468   0.760   3.436 -0.5585 -0.6604 -0.5548
 9827TIP3    H253677   2.578   0.758   3.333  0.1598 -0.3257  0.1958
 9828TIP3   OH253678   5.764   5.056   0.776  0.0847 -0.0082 -0.0560
 9828TIP3    H153679   5.744   5.035   0.685  1.7221  0.7148 -0.6276
 9828TIP3    H253680   5.687   5.101   0.809 -0.0932  0.7527 -1.4500
 9829TIP3   OH253681   6.805   7.086   2.882 -0.2482  0.3134  0.0052
 9829TIP3    H153682   6.729   7.141   2.903  0.0489  1.7356 -2.3431
 9829TIP3    H253683   6.865   7.099   2.956 -1.6838  0.2094  1.2448
 9830TIP3   OH253684   3.388   5.527   1.554 -0.2927  0.4374  0.3636
 9830TIP3    H153685   3.388   5.442   1.510 -0.3608  0.2238  0.7626
 9830TIP3    H253686   3.437   5.511   1.635  0.7080  1.0708 -0.1015
 9831TIP3   OH253687   7.559   6.860   1.262  0.7160 -0.1265 -0.3228
 9831TIP3    H153688   7.576   6.867   1.168  0.3614  0.0105 -0.3786
 9831TIP3    H253689   7.611   6.931   1.301 -2.1481  2.4548 -0.7985
 9832TIP3   OH253690   6.935   7.266   2.043 -0.5951 -0.2590 -0.0340
 9832TIP3    H153691   6.888   7.317   2.109  0.3291 -0.1345  0.5577
 9832TIP3    H253692   7.007   7.226   2.092  0.7613  0.7038 -1.1477
 9833TIP3   OH253693   0.215   3.221   2.091 -0.0870  0.1956 -0.1536
 9833TIP3    H153694   0.262   3.263   2.018  0.0871 -0.6912 -0.5700
 9833TIP3    H253695   0.176   3.293   2.139 -0.7097  0.7799 -1.4737
 9834TIP3   OH253696   1.602   2.263   1.413  0.6431 -0.1993  0.8388
 9834TIP3    H153697   1.581   2.217   1.495 -1.9304 -1.0554 -0.1822
 9834TIP3    H253698   1.679   2.315   1.434 -0.8218  0.8940  4.3111
 9835TIP3   OH253699   0.893   1.911   0.976  0.3681  0.5830  0.1736
 9835TIP3    H153700   0.913   1.937   0.886  0.0798  1.7395  0.4278
 9835TIP3    H253701   0.968   1.858   1.003 -0.7813 -2.1614 -1.6480
 9836TIP3   OH253702   0.997   2.092   0.752 -0.3452 -0.7577 -0.2459
 9836TIP3    H153703   1.004   2.025   0.685  1.8128 -0.3346 -0.5066
 9836TIP3    H253704   1.086   2.102   0.786 -1.0786  0.1893  1.5497
 9837TIP3   OH253705   6.888   5.072   2.094  0.0991 -0.4125 -0.7707
 9837TIP3    H153706   6.807   5.041   2.052 -0.1383 -0.3212 -0.3806
 9837TIP3    H253707   6.939   4.993   2.109 -0.2467 -0.5510 -0.3233
 9838TIP3   OH253708   1.876   7.322   1.556  0.0687  0.1832  0.1616
 9838TIP3    H153709   1.923   7.402   1.577  2.3543 -1.5237  2.0270
 9838TIP3    H253710   1.806   7.318   1.621  1.3721 -0.4367  1.5616
 9839TIP3   OH253711   0.886   7.300   2.804 -0.5026  0.3422 -0.2146
 9839TIP3    H153712   0.910   7.337   2.719  3.8811 -0.2728  0.5023
 9839TIP3    H253713   0.934   7.353   2.868 -0.4232 -1.6488  1.4800
 9840TIP3   OH253714   4.122   0.739   1.097  0.0468  0.2640 -0.6902
 9840TIP3    H153715   4.045   0.794   1.088 -0.5583 -0.6337 -1.2305
 9840TIP3    H253716   4.092   0.663   1.147  1.0637  0.7755  0.7459
 9841TIP3   OH253717   7.358   5.243   1.551  0.3500  0.2037  0.1225
 9841TIP3    H153718   7.344   5.178   1.620 -0.5189 -1.0396 -1.1623
 9841TIP3    H253719   7.274   5.288   1.544  0.0170 -0.5504 -0.9532
 9842TIP3   OH253720   6.495   5.274   3.113 -0.5844 -0.7134 -0.4304
 9842TIP3    H153721   6.416   5.269   3.060 -0.5028  1.0707 -0.7744
 9842TIP3    H253722   6.567   5.270   3.050 -0.4182 -0.9991 -0.2277
 9843TIP3   OH253723   1.456   7.464   3.672  0.0295 -0.1426 -0.0154
 9843TIP3    H153724   1.454   7.377   3.633  0.3374  0.5468 -1.6658
 9843TIP3    H253725   1.364   7.486   3.688 -0.2078 -0.0165 -1.4267
 9844TIP3   OH253726   1.578   2.426   2.123 -0.2536 -0.6374 -0.0494
 9844TIP3    H153727   1.569   2.350   2.065 -0.1282 -0.4591 -0.3061
 9844TIP3    H253728   1.562   2.501   2.066  0.1060 -0.4479  0.0974
 9845TIP3   OH253729   2.315   2.197   0.559 -0.3024 -0.2254  0.4706
 9845TIP3    H153730   2.320   2.126   0.495  1.3627 -0.4919  0.8539
 9845TIP3    H253731   2.335   2.155   0.642  1.8874  0.8480  0.5504
 9846TIP3   OH253732   4.129   7.531   1.978 -0.2784 -0.2507  0.0028
 9846TIP3    H153733   4.192   7.592   1.940 -0.7918  0.1855 -0.1662
 9846TIP3    H253734   4.059   7.587   2.012 -0.1509 -0.6744  0.9919
 9847TIP3   OH253735   6.794   2.653   2.995 -0.2109 -0.2121 -0.0276
 9847TIP3    H153736   6.748   2.683   2.916 -1.7372 -1.4402  0.3457
 9847TIP3    H253737   6.886   2.665   2.975 -0.5640 -0.4263 -1.9992
 9848TIP3   OH253738   2.693   2.681   0.437  0.6979 -0.3820  0.3716
 9848TIP3    H153739   2.767   2.622   0.424  0.6864 -0.4572  0.6580
 9848TIP3    H253740   2.732   2.768   0.442  0.6434 -0.2531 -0.9609
 9849TIP3   OH253741   7.600   2.783   1.110 -0.2351  0.2864 -0.5920
 9849TIP3    H153742   7.606   2.689   1.090 -0.1364  0.5816 -2.0550
 9849TIP3    H253743   7.506   2.801   1.111 -0.2911  0.0174  0.5652
 9850TIP3   OH253744   3.863   0.321   1.364 -0.1545  0.3393 -0.7747
 9850TIP3    H153745   3.790   0.350   1.418 -0.7306  0.6718 -1.7210
 9850TIP3    H253746   3.823   0.273   1.292  0.6833 -1.3379 -0.1845
 9851TIP3   OH253747   0.392   2.134   3.169  0.2554 -0.2265  0.0165
 9851TIP3    H153748   0.405   2.120   3.075 -0.5487  0.0021 -0.1332
 9851TIP3    H253749   0.458   2.078   3.210  1.7998  0.9576 -0.7062
 9852TIP3   OH253750   4.576   0.743   1.469  0.2377 -0.1536 -0.2788
 9852TIP3    H153751   4.535   0.762   1.384 -0.0622  1.3508  0.1756
 9852TIP3    H253752   4.574   0.826   1.516  1.2175 -0.7442  0.8726
 9853TIP3   OH253753   5.822   0.493   2.118 -0.3298 -0.0284 -0.0256
 9853TIP3    H153754   5.771   0.420   2.082  1.1598 -0.2321 -1.9128
 9853TIP3    H253755   5.914   0.466   2.108  0.3285  2.4948 -1.8652
 9854TIP3   OH253756   6.251   2.937   1.905 -0.2629  0.2551  0.2521
 9854TIP3    H153757   6.235   2.879   1.830  1.9528 -0.0954 -0.0062
 9854TIP3    H253758   6.286   2.880   1.973 -0.6369  0.8602  0.9693
 9855TIP3   OH253759   6.053   0.449   0.942 -0.1015 -0.0046 -0.3796
 9855TIP3    H153760   5.970   0.497   0.950  0.2940  0.7117 -0.4181
 9855TIP3    H253761   6.115   0.501   0.994 -0.0978 -1.5871  1.2727
 9856TIP3   OH253762   1.361   6.741   1.855 -0.0395 -0.2769  0.2630
 9856TIP3    H153763   1.425   6.671   1.869 -0.7990 -1.0952 -0.2935
 9856TIP3    H253764   1.360   6.755   1.760  0.2239  0.6223  0.3764
 9857TIP3   OH253765   7.640   7.359   1.616 -0.3074  0.1534 -0.5478
 9857TIP3    H153766   7.611   7.396   1.699  0.6405  0.4795 -0.3379
 9857TIP3    H253767   7.730   7.332   1.633 -0.4106 -0.6248 -1.2143
 9858TIP3   OH253768   0.677   7.345   1.704  0.3195  0.0181 -0.1238
 9858TIP3    H153769   0.596   7.396   1.717  0.3755  0.2680 -0.7294
 9858TIP3    H253770   0.648   7.265   1.660  0.2790 -0.3330  0.5223
 9859TIP3   OH253771   4.171   4.149   2.093 -0.0423 -0.6689  0.0044
 9859TIP3    H153772   4.259   4.121   2.118 -1.1498 -1.1846  4.2255
 9859TIP3    H253773   4.160   4.234   2.136 -1.0291  0.3504 -2.1053
 9860TIP3   OH253774   2.053   0.640   1.641  0.5603 -0.3463 -0.3632
 9860TIP3    H153775   2.146   0.615   1.635  0.8818  0.3822  1.1735
 9860TIP3    H253776   2.033   0.633   1.735 -0.9194 -0.3762 -0.6641
 9861TIP3   OH253777   7.583   0.903   2.507  0.0627 -0.6537  0.5120
 9861TIP3    H153778   7.647   0.890   2.577 -1.7002  1.1695  2.6105
 9861TIP3    H253779   7.581   0.997   2.493  1.2869 -1.0094 -3.0429
 9862TIP3   OH253780   7.555   1.496   2.625  0.0271  0.2096 -0.2384
 9862TIP3    H153781   7.651   1.494   2.629  0.0337 -2.0067 -0.1496
 9862TIP3    H253782   7.529   1.511   2.716  0.3234 -1.5087  0.1643
 9863TIP3   OH253783   4.087   0.711   2.129 -0.2306 -0.5152 -0.4664
 9863TIP3    H153784   4.103   0.756   2.212  0.8397  2.0536 -1.9466
 9863TIP3    H253785   4.031   0.770   2.080 -0.4993 -1.7834 -1.7653
 9864TIP3   OH253786   3.880   2.172   0.715  0.4479 -0.3747  0.2419
 9864TIP3    H153787   3.872   2.260   0.679 -1.4504 -0.8225 -0.5635
 9864TIP3    H253788   3.889   2.185   0.809  1.0306  0.6883  0.0578
 9865TIP3   OH253789   5.614   2.367   1.475  0.2958 -0.0003  0.0539
 9865TIP3    H153790   5.679   2.316   1.426  0.5667 -0.1034  0.5193
 9865TIP3    H253791   5.532   2.354   1.426  0.1421 -1.6663  0.6897
 9866TIP3   OH253792   6.333   7.306   2.270 -0.7664  0.6873 -0.1313
 9866TIP3    H153793   6.324   7.277   2.361 -1.4855 -3.3712 -1.2674
 9866TIP3    H253794   6.265   7.258   2.222  0.7762  1.1719 -3.0798
 9867TIP3   OH253795   6.457   4.908   1.059  0.1761 -0.0808 -0.0124
 9867TIP3    H153796   6.522   4.852   1.101  0.8919 -0.8782 -2.0593
 9867TIP3    H253797   6.497   4.995   1.060  0.5938 -0.2695  0.1327
 9868TIP3   OH253798   2.258   0.776   3.134 -1.1101  0.0036  0.3408
 9868TIP3    H153799   2.175   0.754   3.175 -1.3528 -3.4788 -1.6413
 9868TIP3    H253800   2.322   0.721   3.179 -1.0207 -2.1139 -2.1505
 9869TIP3   OH253801   0.708   3.435   1.475 -0.3570  0.2912 -0.2442
 9869TIP3    H153802   0.682   3.376   1.546 -1.5803  0.6611 -0.3607
 9869TIP3    H253803   0.728   3.378   1.401  3.3655 -0.3228  0.9927
 9870TIP3   OH253804   1.776   4.889   1.241  0.4711 -0.1708 -0.3471
 9870TIP3    H153805   1.753   4.799   1.261 -0.9152  0.0902 -0.7068
 9870TIP3    H253806   1.755   4.938   1.320  2.4924 -0.3183  0.3549
 9871TIP3   OH253807   1.528   0.930   1.293  0.2110 -0.0416 -0.1737
 9871TIP3    H153808   1.534   0.971   1.380 -1.3637  2.0736 -0.9707
 9871TIP3    H253809   1.586   0.983   1.238 -0.0828 -0.3194 -0.7532
 9872TIP3   OH253810   3.560   2.778   0.935  0.3817 -0.6802  0.4171
 9872TIP3    H153811   3.520   2.752   0.852  0.1525 -0.7008  0.5351
 9872TIP3    H253812   3.520   2.862   0.956 -1.7125 -1.9777  1.9547
 9873TIP3   OH253813   3.581   4.739   0.379  0.1773 -0.0733  0.4412
 9873TIP3    H153814   3.620   4.668   0.431  0.8610  1.6103  2.3837
 9873TIP3    H253815   3.619   4.728   0.291  2.7737 -0.3172  1.4859
 9874TIP3   OH253816   1.374   4.446   0.587 -0.0122 -0.7595  0.2223
 9874TIP3    H153817   1.353   4.371   0.532  0.0228  0.0321 -0.8987
 9874TIP3    H253818   1.345   4.522   0.537 -0.6860 -0.0456  1.6282
 9875TIP3   OH253819   3.680   7.566   1.872 -0.2031 -0.0127 -0.1518
 9875TIP3    H153820   3.756   7.614   1.904 -0.7358  0.0441  1.0907
 9875TIP3    H253821   3.713   7.515   1.797  0.4721  1.8820 -1.2055
 9876TIP3   OH253822   5.329   1.416   2.008  0.9069  0.0138 -0.7804
 9876TIP3    H153823   5.424   1.415   2.003  0.8764 -1.8525 -2.0096
 9876TIP3    H253824   5.305   1.508   2.009  2.7455  0.5158  0.4232
 9877TIP3   OH253825   3.451   0.239   3.415 -0.0993  0.2709 -0.4778
 9877TIP3    H153826   3.435   0.314   3.472  0.6830  0.5329 -0.5874
 9877TIP3    H253827   3.541   0.213   3.435 -0.3411 -0.5962 -0.4966
 9878TIP3   OH253828   4.610   4.320   2.594  0.2814  0.1552 -0.2413
 9878TIP3    H153829   4.580   4.249   2.537  0.0804 -0.3478  0.4844
 9878TIP3    H253830   4.705   4.320   2.586  0.4594 -1.5740  1.3439
 9879TIP3   OH253831   0.192   0.683   1.763 -0.5453  0.2012 -0.2588
 9879TIP3    H153832   0.216   0.720   1.847  0.4314  1.4225 -1.0397
 9879TIP3    H253833   0.210   0.589   1.771 -0.1336  0.3635  0.7628
 9880TIP3   OH253834   6.149   5.091   2.542  0.2422 -0.4271 -0.3944
 9880TIP3    H153835   6.116   5.157   2.604  0.2802 -0.3824 -0.4218
 9880TIP3    H253836   6.071   5.043   2.515 -0.0521  0.7113 -1.6965
 9881TIP3   OH253837   3.449   3.728   0.736 -0.2902  0.0858 -0.3912
 9881TIP3    H153838   3.501   3.792   0.785  0.9354 -1.3556  0.2746
 9881TIP3    H253839   3.497   3.716   0.654 -0.3045 -0.2533 -0.3503
 9882TIP3   OH253840   1.608   5.484   2.205  0.1746 -0.4196 -0.3668
 9882TIP3    H153841   1.580   5.573   2.182  1.1176 -0.5152 -2.0476
 9882TIP3    H253842   1.662   5.496   2.283 -0.3349  0.3718 -0.1181
 9883TIP3   OH253843   3.151   2.065   1.357 -0.1557 -0.1460 -0.1582
 9883TIP3    H153844   3.067   2.111   1.360  0.3917  0.8792 -0.1565
 9883TIP3    H253845   3.130   1.979   1.319 -1.1303  0.2481 -0.5381
 9884TIP3   OH253846   1.335   3.961   3.223  0.5578  0.2092  0.0420
 9884TIP3    H153847   1.339   3.920   3.136 -0.9270 -1.1263  0.5774
 9884TIP3    H253848   1.376   3.898   3.282 -1.1524 -0.2557  0.7737
 9885TIP3   OH253849   3.040   5.590   2.194 -0.0765 -0.4364 -0.2178
 9885TIP3    H153850   2.953   5.550   2.190  1.4583 -4.0882 -1.4935
 9885TIP3    H253851   3.067   5.579   2.285 -1.1024  1.2690  0.3325
 9886TIP3   OH253852   6.236   0.119   3.415  0.0408 -0.3778 -0.5701
 9886TIP3    H153853   6.204   0.207   3.437 -0.1130 -0.9177  1.6667
 9886TIP3    H253854   6.330   0.131   3.400 -0.2838  0.4272 -2.1903
 9887TIP3   OH253855   5.597   3.918   0.655 -0.2224  0.8429  0.0245
 9887TIP3    H153856   5.671   3.887   0.708 -0.3839  0.4202  0.0105
 9887TIP3    H253857   5.620   3.893   0.565 -1.0007 -0.5496  0.1860
 9888TIP3   OH253858   5.564   6.055   1.759  0.1875 -0.0083  0.7651
 9888TIP3    H153859   5.475   6.088   1.774 -0.1966 -0.1670 -0.9601
 9888TIP3    H253860   5.579   6.067   1.666  2.2214  0.5470  1.1049
 9889TIP3   OH253861   5.700   5.305   2.434 -0.0361 -0.0308 -0.3799
 9889TIP3    H153862   5.748   5.232   2.396 -0.5742 -0.6606  0.1155
 9889TIP3    H253863   5.764   5.349   2.491 -0.0866 -0.9946  0.4505
 9890TIP3   OH253864   1.956   4.059   0.640  0.2648  0.4661 -0.0690
 9890TIP3    H153865   2.007   4.135   0.613  0.2523  0.8007  0.8270
 9890TIP3    H253866   1.873   4.095   0.672 -0.8713 -0.1115 -2.1382
 9891TIP3   OH253867   5.324   6.100   2.276 -0.3308  0.0150  0.6327
 9891TIP3    H153868   5.288   6.189   2.277  0.6269  0.4449 -0.5760
 9891TIP3    H253869   5.419   6.112   2.286 -0.1623 -0.8397  0.1682
 9892TIP3   OH253870   0.681   6.227   1.136 -0.3574 -0.2414  0.1243
 9892TIP3    H153871   0.764   6.198   1.174 -1.6184 -3.0547  0.9596
 9892TIP3    H253872   0.616   6.214   1.205 -1.7197  0.8503 -0.8757
 9893TIP3   OH253873   6.429   5.888   0.652 -0.5310  0.0764  0.2090
 9893TIP3    H153874   6.381   5.971   0.642 -0.5926  0.0686  0.4381
 9893TIP3    H253875   6.388   5.829   0.588  0.5459  0.6745 -1.0978
 9894TIP3   OH253876   4.713   2.916   0.712 -0.7231 -0.1033 -0.0894
 9894TIP3    H153877   4.691   2.846   0.650 -0.1690  0.5872 -1.1076
 9894TIP3    H253878   4.800   2.894   0.744  0.4388  1.1775 -2.0954
 9895TIP3   OH253879   7.544   4.950   2.198 -0.2172  0.2337  0.2860
 9895TIP3    H153880   7.534   4.964   2.293 -1.5621  0.0737  0.1859
 9895TIP3    H253881   7.532   4.856   2.186 -1.1886  0.4048 -0.1617
 9896TIP3   OH253882   1.315   6.495   2.170  0.1165 -0.2596 -0.4606
 9896TIP3    H153883   1.274   6.409   2.183  0.8529 -0.6814 -0.8693
 9896TIP3    H253884   1.381   6.501   2.238  0.0445  0.0059 -0.4111
 9897TIP3   OH253885   6.436   4.603   0.989  0.8707  0.3981  0.1167
 9897TIP3    H153886   6.372   4.531   0.988  0.2459  0.9417  0.2135
 9897TIP3    H253887   6.403   4.664   0.923  1.6125  0.4225 -0.2448
 9898TIP3   OH253888   0.660   3.271   3.070 -0.6355  0.4848  0.0197
 9898TIP3    H153889   0.581   3.258   3.018 -1.1083 -1.0436  1.0695
 9898TIP3    H253890   0.630   3.266   3.161  0.3303  2.1051  0.4761
 9899TIP3   OH253891   6.716   7.463   2.658 -0.1082 -0.6727  0.4861
 9899TIP3    H153892   6.651   7.424   2.600 -0.2433 -0.6474  0.6231
 9899TIP3    H253893   6.698   7.426   2.744 -0.5666  0.0845  0.7277
 9900TIP3   OH253894   6.564   5.416   1.924 -0.1231  0.7704 -0.4702
 9900TIP3    H153895   6.607   5.341   1.884  0.3741 -0.3990  2.0905
 9900TIP3    H253896   6.470   5.401   1.909 -0.0008 -0.1164 -0.3757
 9901TIP3   OH253897   1.698   0.901   1.042  0.0951 -0.0735 -0.1461
 9901TIP3    H153898   1.717   0.808   1.053 -0.8136 -0.1470  0.9543
 9901TIP3    H253899   1.625   0.905   0.981 -0.7906 -0.1769  0.8847
 9902TIP3   OH253900   3.875   5.796   1.991  0.0026  0.0840  0.1840
 9902TIP3    H153901   3.928   5.867   2.026  0.5081 -0.4077  0.4303
 9902TIP3    H253902   3.899   5.790   1.899 -0.8240  0.9271 -0.0982
 9903TIP3   OH253903   5.973   0.755   1.490 -0.8864 -0.4732  0.0204
 9903TIP3    H153904   5.902   0.792   1.542  1.0465  1.9899  1.0939
 9903TIP3    H253905   5.966   0.798   1.405  0.2127  1.0542  0.6545
 9904TIP3   OH253906   5.120   4.948   1.531  0.4715  0.2665 -0.3165
 9904TIP3    H153907   5.210   4.978   1.546 -0.3026  1.4670  2.7809
 9904TIP3    H253908   5.127   4.852   1.527  1.7517  0.2077  1.7560
 9905TIP3   OH253909   0.676   7.251   2.994 -0.0454  0.5512  0.1615
 9905TIP3    H153910   0.728   7.258   2.913 -2.4080  0.0544 -1.5070
 9905TIP3    H253911   0.690   7.335   3.038  0.8981  1.0520 -1.0192
 9906TIP3   OH253912   4.642   3.571   1.600 -0.8175  0.5826 -0.0207
 9906TIP3    H153913   4.595   3.543   1.522 -1.4638  0.8707  0.2646
 9906TIP3    H253914   4.575   3.578   1.668 -0.5374  1.9798  0.1344
 9907TIP3   OH253915   7.442   6.370   3.196 -0.3610 -0.0452  0.3849
 9907TIP3    H153916   7.350   6.393   3.184 -1.1826 -1.6030  2.8896
 9907TIP3    H253917   7.477   6.441   3.250  0.3423  1.2148 -1.6069
 9908TIP3   OH253918   1.885   1.143   0.804  0.1413  0.1743  0.2930
 9908TIP3    H153919   1.916   1.087   0.875 -0.3481  1.4448  1.5434
 9908TIP3    H253920   1.850   1.082   0.739  1.1247 -1.0381  0.8539
 9909TIP3   OH253921   5.933   4.830   0.591  0.4094 -0.2646 -0.7050
 9909TIP3    H153922   5.914   4.920   0.563 -0.1169 -0.1318  0.0303
 9909TIP3    H253923   6.026   4.831   0.612  0.3761  0.1635 -0.5587
 9910TIP3   OH253924   0.169   2.765   1.247  0.3045 -0.0097 -0.0499
 9910TIP3    H153925   0.103   2.819   1.205  0.6012  1.3986  1.1919
 9910TIP3    H253926   0.120   2.693   1.288 -0.7141  1.7130  1.9769
 9911TIP3   OH253927   0.805   3.537   2.617  0.4860  0.4754  0.3163
 9911TIP3    H153928   0.774   3.535   2.527  1.7058  0.2804 -0.1173
 9911TIP3    H253929   0.728   3.512   2.670 -0.2380  0.5994 -0.6526
 9912TIP3   OH253930   5.528   3.536   1.101  0.2774 -0.2911 -0.2912
 9912TIP3    H153931   5.562   3.548   1.012  0.0701  2.0420 -0.1060
 9912TIP3    H253932   5.561   3.611   1.150 -0.4883 -0.9719  1.3508
 9913TIP3   OH253933   1.840   3.595   2.037 -0.5507  0.0262 -0.2584
 9913TIP3    H153934   1.778   3.537   2.081 -0.2318  1.7325  2.6967
 9913TIP3    H253935   1.792   3.677   2.025  0.5907  0.8511  0.6120
 9914TIP3   OH253936   3.277   0.271   2.567 -0.7761  0.3365  0.8016
 9914TIP3    H153937   3.290   0.201   2.503 -0.4914 -1.4066  2.6831
 9914TIP3    H253938   3.365   0.302   2.588 -0.7555 -0.1095  1.4028
 9915TIP3   OH253939   4.458   6.480   1.843 -0.0118  0.2709 -0.3808
 9915TIP3    H153940   4.400   6.436   1.782 -0.3710  0.7528 -0.3966
 9915TIP3    H253941   4.400   6.535   1.896  0.4686  1.1217 -0.7139
 9916TIP3   OH253942   0.568   1.438   1.314  0.1388  0.4215  0.1368
 9916TIP3    H153943   0.581   1.357   1.264  0.8095  0.6129 -0.0012
 9916TIP3    H253944   0.655   1.461   1.347  0.2816  1.9835 -1.2140
 9917TIP3   OH253945   1.904   5.088   0.766  0.4707 -0.1288 -0.4675
 9917TIP3    H153946   1.890   5.175   0.803 -2.6200 -0.9737  0.6081
 9917TIP3    H253947   1.887   5.028   0.838  0.7729 -1.6856 -1.6350
 9918TIP3   OH253948   3.868   0.511   2.532 -0.4322  0.0003  0.3801
 9918TIP3    H153949   3.811   0.588   2.532 -0.4052  0.0221  0.1095
 9918TIP3    H253950   3.851   0.468   2.616 -2.4475 -1.1873 -0.5578
 9919TIP3   OH253951   1.240   0.193   2.565  0.0252 -0.4317  1.0170
 9919TIP3    H153952   1.319   0.191   2.512 -0.9876 -0.4423 -0.5422
 9919TIP3    H253953   1.193   0.271   2.537 -0.1756  0.0203  2.4884
 9920TIP3   OH253954   3.954   5.646   2.677 -0.0545  0.0770  0.5278
 9920TIP3    H153955   4.006   5.610   2.748  0.0790  0.7230  0.7612
 9920TIP3    H253956   3.948   5.575   2.613 -1.1558 -0.9060  1.6838
 9921TIP3   OH253957   5.770   1.090   1.944 -0.4088  0.3582  0.4756
 9921TIP3    H153958   5.800   1.181   1.956 -1.8220  1.0284 -0.7807
 9921TIP3    H253959   5.814   1.060   1.865 -2.1378  0.9855 -0.7734
 9922TIP3   OH253960   0.494   5.031   2.577 -0.4274  0.1810  0.2737
 9922TIP3    H153961   0.437   5.041   2.653 -0.5273 -0.2447  0.2608
 9922TIP3    H253962   0.581   5.016   2.615 -0.7378 -1.6323  0.3524
 9923TIP3   OH253963   2.163   3.936   0.463 -0.4370 -0.1920  0.5085
 9923TIP3    H153964   2.080   3.971   0.497 -0.3595  1.3901 -0.7802
 9923TIP3    H253965   2.137   3.860   0.411 -0.6050 -2.3009  3.4176
 9924TIP3   OH253966   0.145   3.068   3.058 -0.3033  0.3131  0.3158
 9924TIP3    H153967   0.170   3.160   3.047 -1.6973  0.6532 -0.1695
 9924TIP3    H253968   0.070   3.070   3.117 -0.8023 -0.4513 -0.2816
 9925TIP3   OH253969   4.908   2.495   1.077  0.0546  0.5336  0.2307
 9925TIP3    H153970   4.834   2.435   1.087  0.3792  0.2159  0.7821
 9925TIP3    H253971   4.926   2.526   1.166 -0.4172  1.8356 -0.1002
 9926TIP3   OH253972   0.641   0.207   2.008 -0.1863  0.3707  0.3448
 9926TIP3    H153973   0.723   0.251   1.983  0.0240  0.1239  0.5925
 9926TIP3    H253974   0.607   0.260   2.081  0.8839 -0.7492  1.7182
 9927TIP3   OH253975   7.372   0.014   2.778  0.0809  0.6619 -0.3173
 9927TIP3    H153976   7.290  -0.015   2.818  0.2306  1.4696  0.6098
 9927TIP3    H253977   7.429   0.034   2.852  1.1789 -0.0265 -0.9500
 9928TIP3   OH253978   0.093   1.658   0.923 -0.5102  0.1424 -0.2524
 9928TIP3    H153979   0.058   1.572   0.899 -0.0080  0.2581 -1.4710
 9928TIP3    H253980   0.097   1.657   1.019 -0.7140 -1.1085 -0.2451
 9929TIP3   OH253981   2.303   4.446   1.783  0.1121  0.0553 -0.2117
 9929TIP3    H153982   2.325   4.373   1.841  0.0122  1.6641  2.0058
 9929TIP3    H253983   2.223   4.483   1.821 -0.2087  0.9129 -1.6608
 9930TIP3   OH253984   5.727   6.233   1.916 -0.2112  0.8763  0.0334
 9930TIP3    H153985   5.702   6.189   1.835  2.0349  1.0775 -0.8339
 9930TIP3    H253986   5.823   6.235   1.914 -0.0637  0.5995  2.8569
 9931TIP3   OH253987   5.715   6.367   2.259  0.7241 -0.1981  0.7441
 9931TIP3    H153988   5.805   6.370   2.226  1.1450  0.5201  1.9178
 9931TIP3    H253989   5.723   6.331   2.347  0.1256  1.7783  1.6519
 9932TIP3   OH253990   1.712   7.014   2.394 -0.9830  0.4312  0.3327
 9932TIP3    H153991   1.674   6.953   2.331  1.3498 -1.2849  0.4669
 9932TIP3    H253992   1.720   6.963   2.475 -0.1116  1.2925  0.8044
 9933TIP3   OH253993   2.578   0.336   1.584 -0.5705 -0.4265  0.0092
 9933TIP3    H153994   2.669   0.327   1.613 -0.8290 -1.0229  0.6563
 9933TIP3    H253995   2.526   0.306   1.658 -1.3134  0.2630 -0.2173
 9934TIP3   OH253996   1.852   3.879   2.223 -0.1060  0.2458 -0.8116
 9934TIP3    H153997   1.893   3.868   2.137 -1.5220 -1.0015 -1.3788
 9934TIP3    H253998   1.768   3.834   2.216  1.0840 -2.9433  2.2188
 9935TIP3   OH253999   0.334   1.438   3.389  0.2726 -0.0604 -0.3157
 9935TIP3    H154000   0.406   1.413   3.331  0.3976 -1.2420  0.3243
 9935TIP3    H254001   0.299   1.519   3.350  0.7744 -0.4541 -1.6480
 9936TIP3   OH254002   7.179   7.297   3.295  0.0089  0.6311 -0.7356
 9936TIP3    H154003   7.196   7.229   3.229 -0.1638  1.6091 -1.8287
 9936TIP3    H254004   7.265   7.322   3.326  0.0351 -0.7672  0.4261
 9937TIP3   OH254005   6.138   3.302   1.472  0.0869 -0.0549 -0.3102
 9937TIP3    H154006   6.092   3.355   1.538  0.3629 -0.6797  0.3933
 9937TIP3    H254007   6.132   3.354   1.392  1.0006  1.4246  0.5246
 9938TIP3   OH254008   2.778   5.543   2.215  1.2854 -0.3556  0.0055
 9938TIP3    H154009   2.722   5.516   2.142  0.9348  1.8746 -0.6249
 9938TIP3    H254010   2.770   5.472   2.278 -0.9469 -0.9049 -0.7772
 9939TIP3   OH254011   1.830   2.466   3.264  0.1540 -0.7917 -0.1237
 9939TIP3    H154012   1.863   2.382   3.232  3.1223 -0.0436  0.7243
 9939TIP3    H254013   1.891   2.531   3.230 -1.1178  0.8776  0.6106
 9940TIP3   OH254014   6.882   1.762   1.377  0.7093  0.2747 -0.4272
 9940TIP3    H154015   6.958   1.710   1.401 -0.0474 -0.3298  0.7889
 9940TIP3    H254016   6.807   1.712   1.411 -0.1276  1.5155 -0.3694
 9941TIP3   OH254017   0.965   5.565   1.107 -0.0360 -0.1942 -0.0186
 9941TIP3    H154018   0.891   5.592   1.052  1.3261  3.1821 -0.4449
 9941TIP3    H254019   0.925   5.543   1.191 -1.6399  0.4661 -0.5662
 9942TIP3   OH254020   3.066   0.257   3.978  0.3474 -0.6782  0.3620
 9942TIP3    H154021   3.027   0.244   3.892  0.5002  1.1158 -0.0197
 9942TIP3    H254022   3.002   0.309   4.026 -0.1967 -2.5227  1.7373
 9943TIP3   OH254023   4.807   1.465   0.812 -0.0204 -0.5660 -0.1867
 9943TIP3    H154024   4.783   1.483   0.721 -2.1080 -0.5522  0.3284
 9943TIP3    H254025   4.897   1.497   0.819  0.1495 -0.4740 -2.2072
 9944TIP3   OH254026   0.551   1.443   0.809  0.0128  0.4546 -0.3601
 9944TIP3    H154027   0.587   1.360   0.840  1.2831  1.4362  0.8957
 9944TIP3    H254028   0.627   1.499   0.795 -0.7508  1.1109 -2.1722
 9945TIP3   OH254029   3.191   3.214   2.105  0.1388  0.3656 -0.1205
 9945TIP3    H154030   3.275   3.252   2.082 -1.0412  1.9755 -2.2059
 9945TIP3    H254031   3.133   3.289   2.116 -1.6562 -0.7253 -1.5589
 9946TIP3   OH254032   0.578   2.962   2.516 -0.7267  0.0969 -0.3917
 9946TIP3    H154033   0.550   2.882   2.472 -1.5316  0.1232  0.0525
 9946TIP3    H254034   0.630   3.009   2.451 -1.9152  0.1499 -1.3338
 9947TIP3   OH254035   0.234   3.244   2.653 -0.3561  0.0951 -0.1952
 9947TIP3    H154036   0.287   3.207   2.724 -0.3137  1.1012  0.3113
 9947TIP3    H254037   0.286   3.228   2.574 -0.4174 -1.0661 -0.0240
 9948TIP3   OH254038   6.233   0.972   1.078  0.7834 -0.3957  0.6527
 9948TIP3    H154039   6.203   1.049   1.029 -3.2686 -1.5756  0.9135
 9948TIP3    H254040   6.308   0.940   1.028 -1.1218  0.3066 -3.0348
 9949TIP3   OH254041   0.411   5.393   2.015  0.1749 -0.2981  0.5520
 9949TIP3    H154042   0.347   5.375   1.946 -0.9086  0.2186  1.3829
 9949TIP3    H254043   0.495   5.400   1.969 -0.7444  1.7615 -0.9926
 9950TIP3   OH254044   5.267   6.681   1.955 -0.4085 -0.3553  0.2970
 9950TIP3    H154045   5.238   6.754   2.010 -2.0352 -0.8760  0.2026
 9950TIP3    H254046   5.278   6.719   1.868 -0.6522 -0.0878  0.3816
 9951TIP3   OH254047   4.418   4.629   1.102 -0.0779  0.3655  0.0914
 9951TIP3    H154048   4.357   4.685   1.151 -0.3533  0.8531 -0.7955
 9951TIP3    H254049   4.504   4.668   1.117 -0.3884  1.7162 -1.4105
 9952TIP3   OH254050   6.496   4.949   1.503  0.4908 -0.1563 -0.4529
 9952TIP3    H154051   6.493   4.857   1.526 -0.5385 -0.3263 -1.1939
 9952TIP3    H254052   6.421   4.962   1.446  1.5597  0.7823 -1.7024
 9953TIP3   OH254053   3.859   4.986   1.991 -0.3989 -1.1523  0.0750
 9953TIP3    H154054   3.876   4.892   1.980 -0.8976 -1.0916 -1.5433
 9953TIP3    H254055   3.905   5.027   1.918 -0.2298 -0.1327  0.7405
 9954TIP3   OH254056   0.350   2.592   1.774  0.0891  0.4425 -0.2880
 9954TIP3    H154057   0.346   2.629   1.686  1.6359  2.2073  0.3153
 9954TIP3    H254058   0.421   2.529   1.771 -0.7284 -0.4902 -0.6069
 9955TIP3   OH254059   6.849   6.026   0.958  0.0630 -0.2290 -0.4322
 9955TIP3    H154060   6.865   6.105   0.905  1.4246 -0.2722 -0.1266
 9955TIP3    H254061   6.930   6.014   1.008 -1.3766  0.1435  2.1412
 9956TIP3   OH254062   3.993   2.419   1.676  0.0476 -0.4249  0.0879
 9956TIP3    H154063   4.040   2.493   1.714  0.9777 -1.7399  1.6059
 9956TIP3    H254064   3.927   2.397   1.742  1.3629 -2.4407  0.8099
 9957TIP3   OH254065   2.337   5.694   2.021 -0.4892 -0.5250  0.4036
 9957TIP3    H154066   2.396   5.766   1.998 -0.8439 -0.6331 -0.9206
 9957TIP3    H254067   2.329   5.700   2.116  0.1745  0.6418  0.4144
 9958TIP3   OH254068   0.732   1.640   0.943  0.3760 -0.3116  0.3859
 9958TIP3    H154069   0.800   1.703   0.917  2.0632 -2.1517  0.1258
 9958TIP3    H254070   0.770   1.594   1.017 -0.5535 -1.4594  0.1634
 9959TIP3   OH254071   2.126   6.790   2.959 -0.6645 -0.1108  0.3367
 9959TIP3    H154072   2.219   6.812   2.966 -0.3582 -1.2331 -0.0081
 9959TIP3    H254073   2.125   6.696   2.943 -1.8028  0.0755 -0.8700
 9960TIP3   OH254074   1.860   2.570   0.495 -0.6358  0.0199 -0.1315
 9960TIP3    H154075   1.934   2.510   0.483 -1.2145 -0.5795 -0.7986
 9960TIP3    H254076   1.804   2.528   0.559 -0.7178  0.1721 -0.1020
 9961TIP3   OH254077   3.200   0.687   0.686  0.8616  0.2944 -0.2910
 9961TIP3    H154078   3.249   0.683   0.604  1.8891  0.3966  0.3060
 9961TIP3    H254079   3.265   0.710   0.752  0.5326 -2.1256  0.9726
 9962TIP3   OH254080   2.592   0.655   1.627  0.0586 -0.7906 -0.4730
 9962TIP3    H154081   2.606   0.743   1.592  2.0731 -0.8395  0.0984
 9962TIP3    H254082   2.501   0.655   1.656  0.1069  1.2104 -0.1791
 9963TIP3   OH254083   4.895   3.394   1.898 -0.3485 -0.3598  0.4041
 9963TIP3    H154084   4.985   3.377   1.926 -0.1489 -0.2546 -0.1650
 9963TIP3    H254085   4.867   3.313   1.856 -0.3049 -0.1863  0.0348
 9964TIP3   OH254086   2.931   6.255   1.882 -0.0017  0.0784 -0.3205
 9964TIP3    H154087   2.882   6.251   1.800 -2.2253 -0.9020  0.9541
 9964TIP3    H254088   2.965   6.166   1.893  0.1051  0.1515 -0.0617
 9965TIP3   OH254089   4.045   0.541   1.386 -0.4300 -0.1494 -0.2843
 9965TIP3    H154090   3.992   0.620   1.399 -1.4004 -0.4830 -1.8475
 9965TIP3    H254091   3.981   0.471   1.377  0.4037 -1.0349  0.4835
 9966TIP3   OH254092   6.376   5.582   2.338 -0.1947  0.1388  0.1666
 9966TIP3    H154093   6.451   5.545   2.292  1.2952 -0.9213  3.1812
 9966TIP3    H254094   6.317   5.508   2.351  0.4762 -0.1411  1.8598
 9967TIP3   OH254095   4.533   3.450   2.636  0.3929 -0.2731  0.3786
 9967TIP3    H154096   4.603   3.421   2.694 -0.2149 -3.2898 -0.2494
 9967TIP3    H254097   4.471   3.495   2.693  0.5242 -1.8689  1.8394
 9968TIP3   OH254098   6.693   5.952   1.859  0.1970  0.4132  0.4900
 9968TIP3    H154099   6.738   5.993   1.785  0.3734 -1.1322 -0.3013
 9968TIP3    H254100   6.718   5.860   1.854 -2.3219 -0.3529  0.5409
 9969TIP3   OH254101   0.970   6.172   1.529  0.1350  0.2122  0.6576
 9969TIP3    H154102   1.063   6.162   1.550  0.1528 -1.0466  0.0599
 9969TIP3    H254103   0.969   6.198   1.437 -0.0716  2.0152  1.1263
 9970TIP3   OH254104   3.322   2.323   0.800  0.1583 -0.0514 -0.0144
 9970TIP3    H154105   3.415   2.303   0.789  0.2173  1.3712 -3.7074
 9970TIP3    H254106   3.319   2.416   0.819 -0.5246 -0.1294  0.3029
 9971TIP3   OH254107   1.672   6.791   2.577  0.2188 -0.4240  0.1890
 9971TIP3    H154108   1.694   6.715   2.630 -0.2139 -0.1686  0.7370
 9971TIP3    H254109   1.687   6.762   2.487 -0.7478 -1.4292  0.3339
 9972TIP3   OH254110   2.151   0.121   3.465  0.3417  0.7088 -0.2875
 9972TIP3    H154111   2.126   0.110   3.373  2.0757  1.4911 -0.8920
 9972TIP3    H254112   2.160   0.031   3.498  1.9833  0.3395 -1.5871
 9973TIP3   OH254113   5.282   3.058   2.366 -0.2873  0.3230 -0.2957
 9973TIP3    H154114   5.344   2.988   2.389 -0.0394  0.5620 -0.2214
 9973TIP3    H254115   5.330   3.139   2.386 -0.6591  0.5101 -0.1566
 9974TIP3   OH254116   7.252   6.995   1.404 -0.0392  0.4008 -0.3273
 9974TIP3    H154117   7.316   7.048   1.452  1.2942 -1.6405  0.2724
 9974TIP3    H254118   7.272   7.012   1.312  1.1661  0.0671 -0.1486
 9975TIP3   OH254119   7.126   6.106   0.584 -0.1964 -0.4087  0.6016
 9975TIP3    H154120   7.132   6.201   0.571  1.0794 -0.4440  0.8637
 9975TIP3    H254121   7.155   6.092   0.674  1.9285 -1.2459 -0.1568
 9976TIP3   OH254122   6.882   0.226   2.949 -0.0537 -0.4413  0.1780
 9976TIP3    H154123   6.956   0.189   2.997 -0.9078 -0.7167  1.3518
 9976TIP3    H254124   6.810   0.164   2.964 -0.8276  0.3949  0.0438
 9977TIP3   OH254125   4.500   5.799   0.838  0.0302  0.3752 -0.2560
 9977TIP3    H154126   4.475   5.883   0.877  0.9993  0.3210  0.5529
 9977TIP3    H254127   4.440   5.736   0.878  1.1839  0.2822  1.4388
 9978TIP3   OH254128   4.642   4.138   2.349 -0.2813  0.0127 -0.5736
 9978TIP3    H154129   4.569   4.116   2.292 -0.3665  3.1254 -1.8772
 9978TIP3    H254130   4.720   4.120   2.296 -0.1542 -1.0965 -0.0412
 9979TIP3   OH254131   7.345   0.604   2.094 -0.3217 -0.1854  0.0214
 9979TIP3    H154132   7.320   0.694   2.117 -2.6774 -0.8914  0.5696
 9979TIP3    H254133   7.277   0.576   2.032  0.7399 -1.3944 -0.6285
 9980TIP3   OH254134   1.065   5.641   2.339 -0.4313  0.2813  0.0534
 9980TIP3    H154135   1.145   5.594   2.317  0.5063  1.3736  1.0370
 9980TIP3    H254136   1.065   5.645   2.435 -1.5439  0.4988  0.0614
 9981TIP3   OH254137   5.133   1.108   1.715  0.4430 -0.2526  0.5452
 9981TIP3    H154138   5.171   1.176   1.660  0.7738 -0.3593  0.6359
 9981TIP3    H254139   5.143   1.027   1.665 -0.7347 -0.1089  0.0685
 9982TIP3   OH254140   4.722   7.473   1.912  0.6458 -0.3725 -0.0917
 9982TIP3    H154141   4.733   7.551   1.966  1.5644  0.8390 -1.9335
 9982TIP3    H254142   4.636   7.440   1.936  0.1676  1.2954  0.6510
 9983TIP3   OH254143   6.161   5.202   0.659 -0.3065  0.0448 -0.6426
 9983TIP3    H154144   6.166   5.116   0.618 -0.2146 -1.1553  1.7618
 9983TIP3    H254145   6.117   5.187   0.742  0.0293  2.2705  0.0025
 9984TIP3   OH254146   4.303   6.309   1.203 -0.0432 -0.4733 -0.2148
 9984TIP3    H154147   4.235   6.248   1.230  0.9275 -1.9899 -1.0631
 9984TIP3    H254148   4.318   6.290   1.110  0.9672  0.3724 -0.2518
 9985TIP3   OH254149   3.469   1.308   2.101 -0.7381  0.1425  1.0679
 9985TIP3    H154150   3.436   1.382   2.051  1.4998 -0.1754 -1.0677
 9985TIP3    H254151   3.495   1.244   2.036  1.6483 -0.6096  2.5998
 9986TIP3   OH254152   3.019   2.930   0.473 -0.0061  0.6952  0.2605
 9986TIP3    H154153   3.039   2.866   0.541 -1.7589  0.8054  0.9476
 9986TIP3    H254154   3.074   3.006   0.493 -0.0745  0.5028  1.2135
 9987TIP3   OH254155   3.655   6.524   1.414  0.0359  0.2194  0.3970
 9987TIP3    H154156   3.673   6.464   1.341  3.4668  1.7137 -0.1970
 9987TIP3    H254157   3.568   6.558   1.396  0.3089 -0.3022 -2.4621
 9988TIP3   OH254158   7.491   6.970   1.716 -0.1120  0.1956 -0.3763
 9988TIP3    H154159   7.514   7.043   1.774  1.4048  0.4000 -1.1844
 9988TIP3    H254160   7.480   7.009   1.630 -0.1675 -0.4095 -0.6544
 9989TIP3   OH254161   1.741   6.432   2.241  0.3777 -0.0669 -0.3854
 9989TIP3    H154162   1.699   6.347   2.228 -2.2766  0.9544  0.9632
 9989TIP3    H254163   1.783   6.425   2.327  1.5631 -0.4771 -0.9623
 9990TIP3   OH254164   0.532   0.247   3.074 -0.7120 -0.6821  0.5456
 9990TIP3    H154165   0.438   0.260   3.090 -0.7693 -0.9438  0.4132
 9990TIP3    H254166   0.573   0.325   3.112 -1.2514  1.1390 -2.3749
 9991TIP3   OH254167   3.122   1.160   1.422 -0.0808  0.4531  0.1027
 9991TIP3    H154168   3.111   1.252   1.401  0.7254 -0.2112 -4.0228
 9991TIP3    H254169   3.217   1.147   1.424 -0.0318 -0.8212 -3.2817
 9992TIP3   OH254170   1.062   3.417   0.866 -0.2507 -0.1710  0.1097
 9992TIP3    H154171   1.123   3.358   0.911  0.1162 -1.4571 -1.9692
 9992TIP3    H254172   1.111   3.499   0.857  1.1616 -1.1285 -1.3684
 9993TIP3   OH254173   3.642   1.654   0.372 -0.4511  0.2010 -0.4834
 9993TIP3    H154174   3.610   1.621   0.456 -0.5023 -0.6259 -0.8214
 9993TIP3    H254175   3.652   1.748   0.386 -0.8086  0.1277  0.3366
 9994TIP3   OH254176   5.517   0.122   3.111  0.6529 -0.0336 -0.5292
 9994TIP3    H154177   5.450   0.056   3.128 -0.2374  1.3640  1.7337
 9994TIP3    H254178   5.473   0.189   3.059  1.0131 -0.2520 -1.1337
 9995TIP3   OH254179   3.957   4.102   1.521  0.5048 -0.0289 -0.2151
 9995TIP3    H154180   4.031   4.068   1.472  0.7426  2.6339 -1.8652
 9995TIP3    H254181   3.982   4.190   1.546 -0.2291 -0.6810  3.5142
 9996TIP3   OH254182   2.912   4.163   2.272  0.1114  0.2178  0.1491
 9996TIP3    H154183   2.940   4.249   2.239  0.6237 -0.0866 -0.2319
 9996TIP3    H254184   2.825   4.178   2.307  0.1217  0.8592 -0.0824
 9997TIP3   OH254185   1.799   2.689   2.017  0.5032  0.0073 -0.2391
 9997TIP3    H154186   1.853   2.657   2.089  0.4283 -1.0385 -0.6426
 9997TIP3    H254187   1.710   2.660   2.038  0.7113 -1.6957 -1.5045
 9998TIP3   OH254188   2.333   7.362   2.150  0.1796  0.4616 -0.8523
 9998TIP3    H154189   2.395   7.333   2.217 -0.7276  1.1899  0.3396
 9998TIP3    H254190   2.248   7.329   2.179  0.1651 -2.3533 -3.5377
 9999TIP3   OH254191   2.233   6.174   1.254 -0.0343  0.0328 -0.1150
 9999TIP3    H154192   2.302   6.241   1.252 -0.9604  1.0182  0.1213
 9999TIP3    H254193   2.262   6.109   1.190  0.2956  1.2780 -1.2863
10000TIP3   OH254194   0.644   3.278   2.112 -0.1781  0.1936 -0.2983
10000TIP3    H154195   0.622   3.188   2.089  0.6222 -0.3034  0.7782
10000TIP3    H254196   0.692   3.312   2.036 -1.2530  0.0154 -1.0672
10001TIP3   OH254197   3.633   3.232   2.668 -0.2903 -0.5987  0.1682
10001TIP3    H154198   3.666   3.146   2.645  1.1935 -0.0079 -0.0329
10001TIP3    H254199   3.664   3.247   2.757  1.2041  0.5044 -0.4915
10002TIP3   OH254200   1.451   1.675   2.183  0.2771  0.3676 -0.3110
10002TIP3    H154201   1.425   1.650   2.272 -0.0725  3.0730  0.4465
10002TIP3    H254202   1.396   1.622   2.126 -0.1126 -0.8124  1.1006
10003TIP3   OH254203   2.439   5.686   2.278  0.6404 -0.5984  0.2096
10003TIP3    H154204   2.436   5.637   2.360  3.4511 -1.3539 -0.0231
10003TIP3    H254205   2.529   5.717   2.272 -0.5090  3.1727 -0.5574
10004TIP3   OH254206   5.625   4.459   1.222 -0.0746 -0.0888  0.2191
10004TIP3    H154207   5.663   4.546   1.232 -0.8910  0.3132 -0.0289
10004TIP3    H254208   5.534   4.476   1.197 -0.8004 -0.9893  2.0846
10005TIP3   OH254209   6.449   7.010   2.257 -0.0939  0.2021 -0.1033
10005TIP3    H154210   6.464   6.966   2.173 -2.4390  0.8863 -0.9324
10005TIP3    H254211   6.403   7.091   2.235  0.9143  1.3365  1.7119
10006TIP3   OH254212   0.519   4.699   1.969  0.0686 -0.4728  0.5573
10006TIP3    H154213   0.464   4.665   1.898 -0.4035  0.4022  0.4927
10006TIP3    H254214   0.465   4.765   2.012 -0.4638 -2.4198  3.0893
10007TIP3   OH254215   0.604   5.194   2.836  0.3571 -0.1551  0.7896
10007TIP3    H154216   0.653   5.126   2.790 -0.8232 -0.4624 -0.0532
10007TIP3    H254217   0.669   5.260   2.858  1.2577 -0.8504  0.2858
10008TIP3   OH254218   3.907   4.473   2.423  0.1152  0.4722  0.0568
10008TIP3    H154219   3.867   4.388   2.406  0.1851  0.6205 -0.8910
10008TIP3    H254220   3.898   4.522   2.341  0.2501  1.3130  0.5237
10009TIP3   OH254221   2.880   2.187   2.559  0.8820 -0.2704  0.0872
10009TIP3    H154222   2.884   2.223   2.647  0.9064 -0.1897  0.0537
10009TIP3    H254223   2.970   2.163   2.538  1.4222  2.3760 -1.0038
10010TIP3   OH254224   1.518   1.260   3.293 -0.3939 -0.0861  0.1835
10010TIP3    H154225   1.544   1.332   3.236  0.0633 -0.0249  0.4631
10010TIP3    H254226   1.549   1.181   3.249 -1.2633 -0.1565 -0.3304
10011TIP3   OH254227   1.199   2.319   0.562  0.0239  0.4480 -0.3090
10011TIP3    H154228   1.181   2.368   0.641 -0.4833 -4.4445  3.0342
10011TIP3    H254229   1.294   2.326   0.551  0.4764 -0.7203  2.3033
10012TIP3   OH254230   4.592   3.269   1.997 -0.2211 -0.0019  0.3054
10012TIP3    H154231   4.525   3.300   1.936 -0.4855 -2.0673 -0.5593
10012TIP3    H254232   4.665   3.242   1.941 -0.4887 -1.9993  0.8238
10013TIP3   OH254233   2.887   5.153   2.851  0.2690 -0.0310 -0.3546
10013TIP3    H154234   2.919   5.221   2.910  0.6802 -0.6134  0.1084
10013TIP3    H254235   2.966   5.102   2.829 -0.1208 -0.6867 -0.2563
10014TIP3   OH254236   2.807   0.395   3.218 -0.0556  0.1259 -0.1564
10014TIP3    H154237   2.855   0.376   3.298 -0.5686  0.7729  0.3122
10014TIP3    H254238   2.835   0.327   3.157  0.9659  0.1163  0.3014
10015TIP3   OH254239   4.849   0.041   1.702  0.0260 -0.4089 -0.2633
10015TIP3    H154240   4.838  -0.051   1.726 -2.9353  0.0386  0.5751
10015TIP3    H254241   4.820   0.044   1.610 -0.7408 -0.2237 -0.0268
10016TIP3   OH254242   4.840   3.588   2.404 -0.4703 -0.2116 -0.6140
10016TIP3    H154243   4.868   3.680   2.401 -1.4626  0.1088 -0.4969
10016TIP3    H254244   4.903   3.542   2.350 -0.6440  0.7277 -1.6535
10017TIP3   OH254245   1.717   5.470   3.110 -0.1796  0.2323 -0.3818
10017TIP3    H154246   1.767   5.402   3.155 -1.6451  0.3569  1.5492
10017TIP3    H254247   1.784   5.532   3.079  0.9281  0.6702  2.5538
10018TIP3   OH254248   0.929   4.071   2.410  0.2228 -0.0233 -0.0753
10018TIP3    H154249   0.844   4.056   2.370  0.6670 -1.4105 -0.5395
10018TIP3    H254250   0.909   4.095   2.500 -0.7267  1.7720 -0.7060
10019TIP3   OH254251   3.123   1.919   2.843  0.2194 -0.4473 -0.3604
10019TIP3    H154252   3.128   1.841   2.899 -3.0447  0.7084  1.8637
10019TIP3    H254253   3.205   1.966   2.860  0.0337 -0.9355  2.3067
10020TIP3   OH254254   5.680   3.474   2.322 -0.8049  0.3261 -0.0818
10020TIP3    H154255   5.678   3.447   2.414 -2.3763  1.6904  0.3271
10020TIP3    H254256   5.592   3.509   2.305 -0.5387  0.1318 -2.1033
10021TIP3   OH254257   1.668   7.047   1.820 -0.1884  0.8416 -0.1250
10021TIP3    H154258   1.750   7.026   1.775 -0.9283 -0.4906 -0.8951
10021TIP3    H254259   1.676   7.004   1.905  0.6696  2.3022  0.5929
10022TIP3   OH254260   5.383   7.089   3.194  0.1279 -0.1254 -0.1907
10022TIP3    H154261   5.444   7.063   3.125  0.7348  0.7867 -0.0259
10022TIP3    H254262   5.335   7.009   3.215  1.9439 -1.1462  0.3483
10023TIP3   OH254263   1.007   0.045   2.006  0.0824  0.1321 -0.2282
10023TIP3    H154264   0.974  -0.002   2.082 -0.2097  0.8302  0.0840
10023TIP3    H254265   1.052  -0.021   1.954  0.0684 -0.3963  0.4298
10024TIP3   OH254266   5.111   0.261   1.252 -0.7486  0.3782 -0.2919
10024TIP3    H154267   5.051   0.301   1.315  0.9733  1.7000  0.5929
10024TIP3    H254268   5.163   0.333   1.219  1.5988 -0.9071  0.3579
10025TIP3   OH254269   1.742   1.631   2.320 -0.3628 -0.3869  0.2551
10025TIP3    H154270   1.727   1.701   2.255 -0.5435 -0.0483  0.6586
10025TIP3    H254271   1.683   1.561   2.293 -1.6144  0.3631  0.9639
10026TIP3   OH254272   3.672   1.911   1.489  1.0397 -0.7828 -0.0096
10026TIP3    H154273   3.722   1.831   1.471  0.4132 -1.4705  1.2385
10026TIP3    H254274   3.686   1.928   1.582  1.8297  1.0457 -0.4122
10027TIP3   OH254275   0.977   3.451   2.249  0.1228  0.0453 -0.1420
10027TIP3    H154276   1.059   3.500   2.240 -0.3211  0.5766 -1.6082
10027TIP3    H254277   1.003   3.359   2.238  0.4918  0.2422 -1.0439
10028TIP3   OH254278   5.021   0.781   2.299 -0.6184 -0.2711 -0.2571
10028TIP3    H154279   5.103   0.824   2.275 -0.9733  0.4282 -0.2205
10028TIP3    H254280   5.049   0.701   2.344  0.0437 -0.5503 -1.1349
10029TIP3   OH254281   7.008   5.551   3.064  0.1151  0.1845 -0.3469
10029TIP3    H154282   7.062   5.615   3.020 -0.1067  0.0906 -0.7607
10029TIP3    H254283   6.978   5.493   2.994 -0.2651  0.0553 -0.0785
10030TIP3   OH254284   3.980   3.751   1.982  0.7552 -0.0790 -0.1671
10030TIP3    H154285   4.054   3.738   2.042  1.7369  1.7345 -0.9116
10030TIP3    H254286   3.906   3.769   2.040  1.5937  1.2166  0.5423
10031TIP3   OH254287   2.016   2.145   1.969 -0.3604  0.5214 -0.1397
10031TIP3    H154288   2.026   2.097   1.886 -0.8925 -0.7754  0.5241
10031TIP3    H254289   2.103   2.182   1.985  0.2584 -0.7910 -0.3390
10032TIP3   OH254290   0.471   1.138   0.864  0.6597  0.2025 -0.0535
10032TIP3    H154291   0.425   1.191   0.799  1.7326  0.6058 -0.5047
10032TIP3    H254292   0.402   1.086   0.905 -0.0828  0.1270 -1.3309
10033TIP3   OH254293   0.734   5.242   2.210  0.0593 -0.1739 -0.4984
10033TIP3    H154294   0.657   5.272   2.258 -0.9348 -0.8502 -1.6077
10033TIP3    H254295   0.794   5.318   2.210 -1.6539  1.2806 -1.7524
10034TIP3   OH254296   4.712   4.031   1.861  0.0888  0.3059  0.1290
10034TIP3    H154297   4.763   3.964   1.815  0.4298 -0.0726  1.0335
10034TIP3    H254298   4.729   4.111   1.811 -1.4280 -0.4767 -1.8075
10035TIP3   OH254299   5.718   0.740   0.909  0.0120 -0.0333  0.1617
10035TIP3    H154300   5.623   0.744   0.894 -0.3152 -2.1175  1.3060
10035TIP3    H254301   5.743   0.654   0.876  1.4558  0.3417  0.2228
10036TIP3   OH254302   1.640   4.049   1.301  0.4450 -0.2784 -0.5889
10036TIP3    H154303   1.716   4.077   1.249  0.1370  0.5532 -0.6167
10036TIP3    H254304   1.583   4.005   1.238 -0.1014  1.0594 -1.0696
10037TIP3   OH254305   7.313   6.884   2.520 -0.0063 -0.7089  0.1837
10037TIP3    H154306   7.305   6.893   2.615 -2.1597 -0.0710  0.0008
10037TIP3    H254307   7.250   6.947   2.485  0.9758 -0.7078 -1.6894
10038TIP3   OH254308   3.444   3.052   0.698  0.3694  0.0497 -0.2777
10038TIP3    H154309   3.438   3.145   0.675 -1.3076  0.0097 -0.1032
10038TIP3    H254310   3.450   3.051   0.794  1.6616  0.0112 -0.3489
10039TIP3   OH254311   3.810   3.924   2.612 -0.1320  0.0379 -0.0002
10039TIP3    H154312   3.875   3.903   2.680 -0.5358 -1.3028  0.0096
10039TIP3    H254313   3.734   3.955   2.661 -1.1612 -2.7939  0.4173
10040TIP3   OH254314   4.618   2.443   2.356 -0.0305  0.8936  0.6695
10040TIP3    H154315   4.529   2.411   2.340 -0.3201  0.9027  2.1427
10040TIP3    H254316   4.654   2.460   2.268 -1.0031 -0.3732 -0.0125
10041TIP3   OH254317   4.780   6.445   1.827 -0.0355  0.1353 -0.1617
10041TIP3    H154318   4.832   6.507   1.777 -1.0789  2.8465  1.8064
10041TIP3    H254319   4.704   6.427   1.772  0.5758  0.0955 -1.0095
10042TIP3   OH254320   1.986   3.891   1.041 -0.1661  0.1827  0.1307
10042TIP3    H154321   1.964   3.847   0.959 -1.6572 -1.0498  1.1476
10042TIP3    H254322   2.020   3.977   1.014 -1.7698  0.2941 -1.7184
10043TIP3   OH254323   3.147   6.030   1.476  0.4959  0.0164  0.1761
10043TIP3    H154324   3.167   6.002   1.565 -1.0222  0.1063  0.5773
10043TIP3    H254325   3.169   5.955   1.421  1.5507  0.0035  0.6008
10044TIP3   OH254326   5.971   3.880   1.181 -0.0189  0.5017 -0.5773
10044TIP3    H154327   6.055   3.889   1.226  0.2048  0.5713 -1.0108
10044TIP3    H254328   5.980   3.931   1.101 -0.1093 -0.3548 -1.1372
10045TIP3   OH254329   1.950   6.133   1.807  0.4312 -0.4273  0.3250
10045TIP3    H154330   1.993   6.179   1.879  0.7841  0.1375 -0.2311
10045TIP3    H254331   1.918   6.203   1.750 -3.7328 -0.6167  2.0418
10046TIP3   OH254332   0.475   1.222   2.203  0.5590  0.0160 -0.3332
10046TIP3    H154333   0.472   1.317   2.195 -2.5490  0.4128  2.9487
10046TIP3    H254334   0.406   1.191   2.145  0.9062 -0.1987 -0.6402
10047TIP3   OH254335   1.825   0.272   2.114 -0.1423  0.2650 -0.4299
10047TIP3    H154336   1.868   0.187   2.125 -0.1128  0.0255 -2.1455
10047TIP3    H254337   1.871   0.313   2.041 -2.3343  0.2872 -1.8784
10048TIP3   OH254338   3.345   2.328   3.316 -0.4773 -0.1376 -0.0160
10048TIP3    H154339   3.325   2.265   3.386  0.8554 -1.2830 -0.6225
10048TIP3    H254340   3.440   2.322   3.305 -0.4392  1.3531 -0.7144
10049TIP3   OH254341   1.610   4.103   1.037 -0.6601 -0.0577 -0.2978
10049TIP3    H154342   1.519   4.076   1.052 -0.5343  0.6754  2.1419
10049TIP3    H254343   1.607   4.198   1.041 -0.1587  0.1431 -2.9951
10050TIP3   OH254344   7.479   0.329   2.093  0.5608 -0.1277 -0.0541
10050TIP3    H154345   7.454   0.260   2.031  0.4663 -1.5731  1.5164
10050TIP3    H254346   7.417   0.399   2.077  1.6170  0.3042 -2.7724
10051TIP3   OH254347   5.332   0.771   1.275 -0.2260 -0.2421 -0.0213
10051TIP3    H154348   5.381   0.698   1.312 -0.8313 -1.4908 -1.5774
10051TIP3    H254349   5.240   0.745   1.285 -0.4426  0.1929 -0.7993
10052TIP3   OH254350   4.973   1.041   1.051  0.3821  0.0623 -0.0087
10052TIP3    H154351   4.995   1.058   1.142 -0.1617  0.3272  0.0827
10052TIP3    H254352   4.892   0.990   1.055 -2.2273  3.7162 -0.3060
10053TIP3   OH254353   5.673   5.604   2.825  0.3080 -0.4854  0.0758
10053TIP3    H154354   5.627   5.531   2.868 -1.7634  0.4969 -0.3292
10053TIP3    H254355   5.764   5.577   2.823  0.0449 -1.8745  2.4160
10054TIP3   OH254356   3.074   4.232   1.853  0.6430  0.4965 -0.2016
10054TIP3    H154357   3.018   4.309   1.862 -0.7045 -0.6731  2.9751
10054TIP3    H254358   3.018   4.168   1.808  0.2793  0.1522  0.7068
10055TIP3   OH254359   5.237   1.641   0.968 -0.2897 -0.3040  0.4058
10055TIP3    H154360   5.177   1.676   0.901  0.3811 -0.4338 -0.2844
10055TIP3    H254361   5.180   1.606   1.036 -1.0203 -1.3976 -0.7372
10056TIP3   OH254362   2.988   1.234   2.214 -0.7907  0.2273 -0.4948
10056TIP3    H154363   2.991   1.323   2.179  0.3709  1.4192  2.3532
10056TIP3    H254364   3.077   1.216   2.241 -1.4045 -0.9688  0.8584
10057TIP3   OH254365   2.018   3.291   0.944 -0.1772  0.4102 -0.2257
10057TIP3    H154366   2.049   3.381   0.935 -1.1050  0.7269 -0.2622
10057TIP3    H254367   2.097   3.242   0.970  0.6123  0.9907 -1.4177
10058TIP3   OH254368   3.583   4.695   0.896  0.0849 -0.3899  0.2223
10058TIP3    H154369   3.496   4.661   0.873 -0.1676  0.3836 -0.0017
10058TIP3    H254370   3.627   4.707   0.812  0.6222 -1.3074  0.3620
10059TIP3   OH254371   7.517   7.662   1.582 -0.1431  0.1851 -0.1282
10059TIP3    H154372   7.433   7.672   1.537  0.2107  1.3994 -0.5475
10059TIP3    H254373   7.564   7.596   1.531 -0.6291 -0.1225 -0.1864
10060TIP3   OH254374   0.590   6.338   2.510 -0.4153 -0.3719 -0.3193
10060TIP3    H154375   0.617   6.430   2.510  1.1982 -0.8034  0.4196
10060TIP3    H254376   0.529   6.331   2.437  1.4723  0.7432 -2.1334
10061TIP3   OH254377   7.562   0.050   2.957  0.0524  0.6758  0.4402
10061TIP3    H154378   7.603  -0.032   2.985 -0.2431  0.8972  1.6011
10061TIP3    H254379   7.626   0.118   2.980 -0.6592  0.9665  1.7159
10062TIP3   OH254380   3.798   6.364   1.951  0.4010  0.1820  0.1558
10062TIP3    H154381   3.881   6.341   1.994  0.8824 -0.0969 -0.8936
10062TIP3    H254382   3.814   6.347   1.858 -0.6889  0.5743 -0.1122
10063TIP3   OH254383   0.447   6.136   0.850  0.3304 -0.3139 -0.1439
10063TIP3    H154384   0.538   6.110   0.834  0.6767  0.3311  0.7044
10063TIP3    H254385   0.414   6.071   0.912 -0.5457 -1.9275 -2.1770
10064TIP3   OH254386   7.546   2.189   3.214 -0.9475 -0.0573  0.2621
10064TIP3    H154387   7.486   2.204   3.142  0.7883  3.3300 -0.6581
10064TIP3    H254388   7.503   2.226   3.291 -0.1282  2.4549 -0.4133
10065TIP3   OH254389   1.064   3.860   2.357  0.1219  0.3185 -0.1173
10065TIP3    H154390   1.009   3.824   2.288  0.2977  0.5884 -0.3999
10065TIP3    H254391   1.034   3.950   2.368  0.0468  0.2573  0.2108
10066TIP3   OH254392   3.862   4.799   1.366  0.0365  0.2699  0.0696
10066TIP3    H154393   3.819   4.749   1.297 -0.2527  0.8186 -0.1446
10066TIP3    H254394   3.888   4.881   1.325 -0.0585  0.5627  0.5927
10067TIP3   OH254395   1.849   0.599   1.950 -0.2336 -0.2892  0.2248
10067TIP3    H154396   1.882   0.512   1.972 -0.0908 -1.2308 -3.1358
10067TIP3    H254397   1.925   0.656   1.962  1.5547 -1.6912 -2.9795
10068TIP3   OH254398   5.158   3.578   1.681  0.4541  0.0590 -0.1254
10068TIP3    H154399   5.066   3.593   1.701  0.7849  2.5091 -0.1216
10068TIP3    H254400   5.205   3.614   1.756  1.4383 -0.5369 -0.4375
10069TIP3   OH254401   2.334   1.494   1.203 -0.3904  0.1829 -0.2743
10069TIP3    H154402   2.340   1.589   1.190 -0.7745 -0.0396 -2.4612
10069TIP3    H254403   2.362   1.481   1.294  1.3328  2.1988 -0.4280
10070TIP3   OH254404   0.668   1.321   4.114  0.2468  0.4291 -0.2022
10070TIP3    H154405   0.576   1.310   4.090  0.8612 -0.6226 -2.3278
10070TIP3    H254406   0.701   1.385   4.052  0.8471  1.2683  0.9440
10071TIP3   OH254407   2.186   1.576   1.521 -0.1156  0.4552 -0.0126
10071TIP3    H154408   2.192   1.669   1.543  0.4594  0.3849  0.1485
10071TIP3    H254409   2.277   1.545   1.523 -0.4245 -0.4866  1.6205
10072TIP3   OH254410   2.084   0.358   2.574 -0.1317 -0.3188  0.4134
10072TIP3    H154411   2.034   0.381   2.653 -1.6824  0.6356 -0.7722
10072TIP3    H254412   2.053   0.270   2.551  1.5572 -1.3242  1.7385
10073TIP3   OH254413   1.883   4.496   0.761 -0.2278 -0.5157  0.0668
10073TIP3    H154414   1.791   4.471   0.749 -0.2145  0.0495 -1.3134
10073TIP3    H254415   1.899   4.564   0.695  1.2981 -0.9056 -0.0043
10074TIP3   OH254416   0.016   3.613   2.634  0.3939  0.2721  0.0187
10074TIP3    H154417   0.059   3.596   2.718  1.0253  2.1452  0.1232
10074TIP3    H254418   0.056   3.551   2.573  0.8396 -0.2558  0.8229
10075TIP3   OH254419   0.077   5.868   0.946  0.1464  0.4889 -0.2868
10075TIP3    H154420   0.011   5.831   1.004  0.9712 -0.3656  0.1326
10075TIP3    H254421   0.027   5.901   0.871 -0.7759  0.0860  0.1347
10076TIP3   OH254422   0.035   5.414   1.440 -0.2146 -0.0860 -0.4707
10076TIP3    H154423   0.001   5.345   1.498 -0.7138  0.6097  0.0720
10076TIP3    H254424   0.086   5.470   1.497  1.9111 -1.1000 -1.2685
10077TIP3   OH254425   5.419   5.585   2.380  0.1318 -0.2818 -0.7302
10077TIP3    H154426   5.406   5.491   2.397 -0.1873 -0.1107  0.0037
10077TIP3    H254427   5.474   5.615   2.453  0.0206  0.1589 -0.8261
10078TIP3   OH254428   3.168   0.833   2.514  0.7037 -0.5353 -0.0385
10078TIP3    H154429   3.087   0.874   2.544  2.1368  0.9400  2.1507
10078TIP3    H254430   3.155   0.739   2.529 -0.1593 -0.1989  1.4838
10079TIP3   OH254431   0.817   4.362   2.942  0.0443 -0.1711  0.1987
10079TIP3    H154432   0.861   4.277   2.950 -1.2194 -1.1240 -1.8328
10079TIP3    H254433   0.871   4.412   2.881 -0.0018 -0.1182  0.2013
10080TIP3   OH254434   0.923   2.967   1.511  0.1614  0.3796 -0.1515
10080TIP3    H154435   0.859   2.897   1.500  0.5040 -0.1620  1.1293
10080TIP3    H254436   0.980   2.959   1.435 -0.3502 -0.1482 -0.4905
10081TIP3   OH254437   5.171   1.146   1.283 -0.3310 -0.3192  0.3264
10081TIP3    H154438   5.218   1.228   1.300  0.7547 -0.9470  0.4518
10081TIP3    H254439   5.104   1.141   1.351  1.4794 -0.9352  2.1562
10082TIP3   OH254440   4.264   2.848   1.355 -0.1397 -0.5866  0.1235
10082TIP3    H154441   4.281   2.858   1.448 -1.2910 -0.1540  0.3115
10082TIP3    H254442   4.350   2.840   1.315  0.5010  1.3487  0.9843
10083TIP3   OH254443   6.525   1.725   3.009  0.2000  0.0574 -0.6143
10083TIP3    H154444   6.469   1.802   2.995  0.8651  0.7612  0.4304
10083TIP3    H254445   6.464   1.655   3.032 -0.4035  0.2918 -1.4413
10084TIP3   OH254446   6.647   0.267   2.299  0.4823 -0.1452 -0.3478
10084TIP3    H154447   6.574   0.284   2.238  1.0329 -1.3732 -1.3721
10084TIP3    H254448   6.672   0.177   2.282  0.8957 -0.4098  1.4844
10085TIP3   OH254449   4.207   3.923   0.627  0.1726 -0.4755 -0.2059
10085TIP3    H154450   4.204   3.948   0.535 -3.1512 -1.8485 -0.6105
10085TIP3    H254451   4.153   3.988   0.671  2.5919  0.8057  1.0707
10086TIP3   OH254452   6.066   1.323   1.067 -0.2481  0.2767 -0.3847
10086TIP3    H154453   6.087   1.231   1.051  0.5877  0.1879  1.0884
10086TIP3    H254454   6.005   1.346   0.996  2.2724 -0.3818 -2.9618
10087TIP3   OH254455   3.188   5.215   0.747 -0.0934  0.6843 -0.0517
10087TIP3    H154456   3.128   5.218   0.673 -0.3013 -0.9654  0.0102
10087TIP3    H254457   3.173   5.129   0.787  2.5770  0.0209 -0.2779
10088TIP3   OH254458   3.914   6.303   1.162 -0.1426  0.6970 -0.0439
10088TIP3    H154459   3.823   6.283   1.187  0.0439 -0.1509 -0.0098
10088TIP3    H254460   3.955   6.335   1.242 -0.0170 -0.3490  0.3245
10089TIP3   OH254461   7.330   7.310   1.891 -0.0913  0.3224 -0.2603
10089TIP3    H154462   7.399   7.374   1.875  0.1574 -0.0247 -0.5991
10089TIP3    H254463   7.305   7.323   1.983  0.7468  0.1334 -0.0038
10090TIP3   OH254464   1.406   5.465   0.734 -0.4403 -0.5238  0.3436
10090TIP3    H154465   1.332   5.503   0.782 -1.3644 -0.3020 -1.1736
10090TIP3    H254466   1.384   5.372   0.727 -0.7338 -0.4095 -0.3457
10091TIP3   OH254467   3.711   6.844   1.178  0.3622 -0.1987 -0.1793
10091TIP3    H154468   3.650   6.866   1.108  0.4657 -0.4630 -0.3528
10091TIP3    H254469   3.709   6.749   1.183  0.9611 -0.2258 -0.3645
10092TIP3   OH254470   3.636   1.967   2.818 -0.1984  0.5742  0.1818
10092TIP3    H154471   3.671   2.036   2.876 -0.4555  0.0410  0.9878
10092TIP3    H254472   3.563   1.929   2.867 -0.0597 -0.2738 -0.2463
10093TIP3   OH254473   5.422   3.941   2.586 -0.2726  0.5800  1.0442
10093TIP3    H154474   5.394   4.026   2.620 -1.8875  0.2536  0.6188
10093TIP3    H254475   5.340   3.894   2.569  0.4076  0.3342 -2.2890
10094TIP3   OH254476   4.063   3.777   0.807  0.0483 -0.3628 -0.1816
10094TIP3    H154477   4.129   3.829   0.761  0.0355 -0.6202 -0.4923
10094TIP3    H254478   4.109   3.740   0.882  0.0359  0.1643  0.0866
10095TIP3   OH254479   6.601   1.056   1.465 -0.2855 -0.4961 -1.0989
10095TIP3    H154480   6.591   1.012   1.550  0.1394 -1.3644 -1.4913
10095TIP3    H254481   6.514   1.048   1.425 -0.9200  1.2331 -0.1435
10096TIP3   OH254482   7.056   4.963   1.807 -0.3320  0.1932 -0.1825
10096TIP3    H154483   7.128   5.026   1.803  0.0232 -0.1700 -4.0553
10096TIP3    H254484   7.099   4.879   1.821 -0.1516  0.1934 -0.6924
10097TIP3   OH254485   4.724   0.882   2.465 -0.3423  0.2347 -0.8349
10097TIP3    H154486   4.795   0.828   2.500 -0.2890 -1.3260 -3.1576
10097TIP3    H254487   4.762   0.928   2.391 -1.1136  1.4473 -0.5151
10098TIP3   OH254488   7.515   4.693   2.164  0.6804  0.2819 -0.3289
10098TIP3    H154489   7.559   4.631   2.106  0.1543 -2.9291  2.3732
10098TIP3    H254490   7.422   4.670   2.159  0.7495 -1.1569  2.6852
10099TIP3   OH254491   3.794   6.587   0.786  0.8764 -0.0472  0.2992
10099TIP3    H154492   3.723   6.523   0.792  0.2021  0.6563 -0.0468
10099TIP3    H254493   3.853   6.551   0.719  0.1787  0.0049 -0.3504
10100TIP3   OH254494   6.463   3.698   2.370  0.4127 -0.2739 -0.3571
10100TIP3    H154495   6.552   3.667   2.386  0.2690 -1.0516 -0.9713
10100TIP3    H254496   6.433   3.646   2.295 -0.3275  0.4364 -0.5688
10101TIP3   OH254497   4.674   1.922   1.087  0.0577 -0.3700  0.1302
10101TIP3    H154498   4.602   1.985   1.095  0.1801 -0.2428  0.2292
10101TIP3    H254499   4.645   1.861   1.019 -0.3871 -0.6459  0.5586
10102TIP3   OH254500   2.361   6.727   2.368  0.2293 -0.2670 -0.0050
10102TIP3    H154501   2.332   6.818   2.359 -3.1224 -1.2774 -0.6651
10102TIP3    H254502   2.356   6.709   2.462 -0.2611 -0.1093 -0.0005
10103TIP3   OH254503   5.685   5.977   0.572  0.1641  0.1598 -0.2491
10103TIP3    H154504   5.595   5.956   0.545  0.7695 -1.8543 -0.9332
10103TIP3    H254505   5.683   5.973   0.667 -0.9131  2.3716 -0.1081
10104TIP3   OH254506   1.481   1.679   3.230  0.1528 -0.1396 -0.3739
10104TIP3    H154507   1.439   1.747   3.282  1.0549  0.7412 -0.7598
10104TIP3    H254508   1.567   1.667   3.271 -0.1936 -1.4508  0.0228
10105TIP3   OH254509   6.974   3.643   2.143 -0.1090  0.3008  0.1628
10105TIP3    H154510   7.052   3.606   2.185  0.8513  0.8116 -1.1148
10105TIP3    H254511   6.931   3.692   2.213  0.3393 -0.5440  1.0615
10106TIP3   OH254512   6.960   3.935   2.061  0.1200 -0.2624  0.6865
10106TIP3    H154513   6.993   3.846   2.071  1.8255  0.3835  1.0408
10106TIP3    H254514   6.971   3.955   1.968 -2.5557 -1.2224  0.0481
10107TIP3   OH254515   1.401   2.644   1.250 -0.0058 -0.5003 -0.1672
10107TIP3    H154516   1.369   2.625   1.162 -2.5189  1.4590  0.2289
10107TIP3    H254517   1.491   2.611   1.250 -0.1324 -1.1415 -3.2301
10108TIP3   OH254518   6.124   6.600   0.599 -0.0168 -0.5291 -0.3204
10108TIP3    H154519   6.180   6.664   0.555  1.0271 -1.3362 -0.1895
10108TIP3    H254520   6.177   6.521   0.604 -0.2529 -0.5973  2.0304
10109TIP3   OH254521   5.853   1.425   1.570  0.1508  0.3985 -0.0612
10109TIP3    H154522   5.913   1.499   1.561  1.5505 -0.3727  2.1371
10109TIP3    H254523   5.867   1.373   1.491  2.8500 -0.0241  0.5838
10110TIP3   OH254524   4.095   1.279   2.418  0.5728  0.2220 -0.4701
10110TIP3    H154525   4.031   1.209   2.428  0.9798 -0.0519  0.3464
10110TIP3    H254526   4.118   1.278   2.325 -1.0281  0.7235 -0.8982
10111TIP3   OH254527   0.842   4.059   0.884  0.1558 -0.9400  0.3418
10111TIP3    H154528   0.786   4.065   0.961  1.2303 -3.9596  1.5402
10111TIP3    H254529   0.783   4.037   0.812 -0.9071  2.2127  0.0684
10112TIP3   OH254530   5.312   6.830   3.156 -0.1487  1.0465 -0.1872
10112TIP3    H154531   5.261   6.768   3.208  1.8207 -0.6034 -0.0963
10112TIP3    H254532   5.288   6.812   3.065  1.4714 -0.9683 -0.2771
10113TIP3   OH254533   6.750   2.752   2.706 -0.6010  0.4363  0.5464
10113TIP3    H154534   6.814   2.722   2.641 -1.2458 -0.2236  0.1956
10113TIP3    H254535   6.702   2.823   2.662 -2.0311 -0.9820 -0.2939
10114TIP3   OH254536   4.342   4.662   2.565 -0.1293  0.6099 -0.7258
10114TIP3    H154537   4.307   4.579   2.533  3.3384 -0.9526 -0.9025
10114TIP3    H254538   4.388   4.639   2.646  0.6361  2.4327 -0.5913
10115TIP3   OH254539   0.960   2.474   1.087  0.1806  0.6349 -0.1776
10115TIP3    H154540   0.923   2.400   1.039  1.8413  0.4214 -1.1932
10115TIP3    H254541   1.029   2.435   1.141  1.3383  1.4727 -1.0193
10116TIP3   OH254542   4.615   2.111   1.546 -0.0068 -0.3345 -0.2443
10116TIP3    H154543   4.581   2.030   1.506  0.2501 -0.3806 -0.3731
10116TIP3    H254544   4.708   2.091   1.563 -0.1512 -0.3663  0.5080
10117TIP3   OH254545   5.983   7.210   0.487  0.3136  0.1497 -0.2693
10117TIP3    H154546   6.002   7.180   0.576 -0.8053  1.0698  0.3221
10117TIP3    H254547   6.044   7.283   0.473 -1.0871  1.5997  0.7344
10118TIP3   OH254548   0.231   7.488   0.708 -0.0423  0.5378 -0.0095
10118TIP3    H154549   0.314   7.453   0.742 -0.3845  0.1059  0.3973
10118TIP3    H254550   0.247   7.581   0.695  0.4788  0.4716  0.1520
10119TIP3   OH254551   5.402   0.857   1.779 -0.0583  0.2763  0.1363
10119TIP3    H154552   5.446   0.941   1.794  1.0711  0.3031 -2.6989
10119TIP3    H254553   5.350   0.872   1.700 -1.2430 -1.2226  0.6033
10120TIP3   OH254554   0.988   2.264   1.968  0.2322 -0.0598 -0.6193
10120TIP3    H154555   0.996   2.346   1.919 -0.9342  0.7565  0.4721
10120TIP3    H254556   1.057   2.269   2.034 -0.1551  0.2992 -0.2336
10121TIP3   OH254557   2.871   5.925   0.861  0.1362 -0.2707 -0.0341
10121TIP3    H154558   2.889   6.015   0.832  2.0405 -0.1153  1.4473
10121TIP3    H254559   2.906   5.870   0.790  0.3763  0.1470 -0.2471
10122TIP3   OH254560   5.511   5.218   1.797 -0.1395 -0.1230  0.5188
10122TIP3    H154561   5.527   5.305   1.833  0.0477  0.0878 -0.0610
10122TIP3    H254562   5.457   5.174   1.863 -0.6094  0.5849  0.6221
10123TIP3   OH254563   7.291   1.181   1.601 -0.4272  0.4498 -0.1383
10123TIP3    H154564   7.218   1.237   1.574 -1.2738 -0.2651  0.5975
10123TIP3    H254565   7.369   1.235   1.590 -1.1092  1.3684 -0.5429
10124TIP3   OH254566   3.893   2.955   1.727 -0.1367  0.1380 -0.5084
10124TIP3    H154567   3.892   3.028   1.789 -2.2654  0.0995 -0.4373
10124TIP3    H254568   3.929   2.882   1.776 -0.9570  0.3463  0.4271
10125TIP3   OH254569   2.056   7.473   1.839  0.0458  0.2746 -0.5142
10125TIP3    H154570   1.973   7.505   1.875 -0.7156 -0.9392 -1.1111
10125TIP3    H254571   2.123   7.525   1.883 -1.0438  1.5517 -0.2974
10126TIP3   OH254572   1.646   7.405   0.651 -0.3069 -0.0569 -0.1590
10126TIP3    H154573   1.577   7.342   0.630 -1.6268  1.1191  0.4919
10126TIP3    H254574   1.641   7.416   0.746  0.7654  0.0695 -0.1075
10127TIP3   OH254575   2.563   3.856   1.095 -0.4128 -0.1936 -0.6975
10127TIP3    H154576   2.473   3.886   1.102 -0.2997  0.2529 -1.1038
10127TIP3    H254577   2.583   3.862   1.001  0.9818  2.5725 -0.3167
10128TIP3   OH254578   7.434   6.677   3.106 -0.2433  0.0277 -0.2706
10128TIP3    H154579   7.478   6.595   3.085  1.5038  0.7811  0.2426
10128TIP3    H254580   7.503   6.743   3.101 -0.8925  1.0299  2.2628
10129TIP3   OH254581   1.059   4.976   2.491  0.3656  0.1769  0.2363
10129TIP3    H154582   1.044   5.002   2.582 -0.4869  0.4360  0.0276
10129TIP3    H254583   0.983   4.922   2.468  0.7262 -0.1393 -0.2255
10130TIP3   OH254584   0.168   7.341   1.856  0.2582  0.4909  0.4843
10130TIP3    H154585   0.217   7.283   1.914  0.4309  0.5922  0.4403
10130TIP3    H254586   0.221   7.420   1.849  1.4694 -0.4163 -1.7267
10131TIP3   OH254587   3.133   3.585   1.169 -0.5486  0.3694  0.1104
10131TIP3    H154588   3.086   3.625   1.095  0.4919  0.2947 -0.6011
10131TIP3    H254589   3.213   3.549   1.131 -0.6881 -0.9941  1.0152
10132TIP3   OH254590   0.728   7.674   1.879 -0.5325  0.0274  0.1357
10132TIP3    H154591   0.818   7.699   1.898 -0.2705  0.6924 -1.7500
10132TIP3    H254592   0.675   7.746   1.915 -0.1704  0.4814 -0.2185
10133TIP3   OH254593   4.488   5.298   0.903 -0.0164  0.2898 -0.1925
10133TIP3    H154594   4.455   5.327   0.818  1.2163  1.7278 -0.2052
10133TIP3    H254595   4.453   5.362   0.965  0.4094  0.1700  0.1695
10134TIP3   OH254596   5.530   7.483   0.826  0.4327  0.0422  0.5243
10134TIP3    H154597   5.440   7.469   0.854 -0.5052  0.5976 -2.0056
10134TIP3    H254598   5.576   7.402   0.851 -0.9405 -0.5724  1.1446
10135TIP3   OH254599   3.898   0.759   1.524  0.3714 -0.1750 -0.5096
10135TIP3    H154600   3.833   0.791   1.587  0.9289 -0.5077  0.2492
10135TIP3    H254601   3.917   0.835   1.469  1.2407  0.6760  0.8953
10136TIP3   OH254602   4.971   5.535   1.793  0.3734 -0.2854  0.0980
10136TIP3    H154603   4.983   5.559   1.702 -0.0423 -0.1070  0.0898
10136TIP3    H254604   4.950   5.441   1.791 -0.5557 -0.0799 -0.0620
10137TIP3   OH254605   7.356   0.551   0.816  0.4229 -0.0027 -0.1953
10137TIP3    H154606   7.451   0.565   0.809  0.3556  0.3234 -0.4259
10137TIP3    H254607   7.344   0.460   0.788  0.8532 -0.5550  1.3116
10138TIP3   OH254608   1.540   2.045   2.563 -0.0136  0.0022  0.2978
10138TIP3    H154609   1.541   1.972   2.625 -1.8761 -0.5272 -0.2368
10138TIP3    H254610   1.505   2.008   2.482 -0.6323  1.3846 -0.1054
10139TIP3   OH254611   5.771   7.278   1.160 -0.2101 -0.2159  0.3143
10139TIP3    H154612   5.818   7.341   1.105 -1.2599  1.1623  0.9454
10139TIP3    H254613   5.683   7.273   1.122 -0.5970 -0.1183  1.1631
10140TIP3   OH254614   2.251   5.303   0.366 -0.4124  1.1423 -0.1578
10140TIP3    H154615   2.204   5.227   0.330  1.5047 -0.1416 -0.1135
10140TIP3    H254616   2.182   5.361   0.397 -1.9951 -0.0306 -1.2845
10141TIP3   OH254617   0.747   7.397   2.410  0.3136  0.3311 -0.5181
10141TIP3    H154618   0.688   7.384   2.484  0.1097  2.2468 -0.2910
10141TIP3    H254619   0.834   7.406   2.448  0.1851  1.4956 -0.4670
10142TIP3   OH254620   4.215   5.169   1.049  0.6830 -0.1583 -0.0733
10142TIP3    H154621   4.279   5.196   0.983 -0.8167 -0.9841 -1.9793
10142TIP3    H254622   4.242   5.214   1.129  2.8643  0.5205 -1.1147
10143TIP3   OH254623   2.256   4.552   2.236  0.3639  0.3496 -0.0066
10143TIP3    H154624   2.337   4.599   2.219  0.9936 -0.2396  1.2340
10143TIP3    H254625   2.283   4.477   2.289 -0.3714 -2.2041 -2.9352
10144TIP3   OH254626   4.178   2.232   2.818  0.0868 -0.0639  0.2667
10144TIP3    H154627   4.216   2.144   2.821  1.5651  0.4735 -0.9489
10144TIP3    H254628   4.106   2.229   2.880  0.0608 -2.1454  0.2343
10145TIP3   OH254629   4.112   1.518   0.957  0.1679 -0.2759 -0.5382
10145TIP3    H154630   4.118   1.589   0.893  0.5370  1.6391  1.5020
10145TIP3    H254631   4.024   1.483   0.945  0.2527 -0.0253 -2.1233
10146TIP3   OH254632   1.136   4.870   1.270  0.2276 -0.2226  0.0863
10146TIP3    H154633   1.185   4.788   1.258 -0.3004 -0.9531  2.3684
10146TIP3    H254634   1.072   4.850   1.338  0.2372  2.1547  0.8989
10147TIP3   OH254635   2.969   1.050   2.566  0.6137 -0.5765 -0.5471
10147TIP3    H154636   3.059   1.051   2.599  1.3268  0.7077 -2.4077
10147TIP3    H254637   2.940   1.140   2.573 -0.1467 -0.7801 -0.9748
10148TIP3   OH254638   7.346   3.326   2.076  0.2474 -0.1196  0.0152
10148TIP3    H154639   7.360   3.308   2.169 -0.0141  0.3113  0.1406
10148TIP3    H254640   7.270   3.385   2.074 -0.4026 -0.9513 -0.5377
10149TIP3   OH254641   7.144   2.019   2.890  0.2522  0.6862 -0.4635
10149TIP3    H154642   7.064   2.028   2.940  0.0631  0.4155 -0.7142
10149TIP3    H254643   7.168   1.927   2.898  1.3036  1.0382  0.7613
10150TIP3   OH254644   5.711   1.853   1.320 -0.4189  0.0722 -0.5109
10150TIP3    H154645   5.626   1.813   1.342 -0.1788 -0.0096  0.3024
10150TIP3    H254646   5.739   1.806   1.241 -0.7371 -0.4870 -0.2996
10151TIP3   OH254647   4.951   2.821   0.840 -0.1941  0.3747  0.1974
10151TIP3    H154648   5.037   2.786   0.816  0.1355  1.4993 -0.3611
10151TIP3    H254649   4.971   2.892   0.901 -0.6840  0.8983 -0.2390
10152TIP3   OH254650   3.294   7.214   2.165  0.1866  0.1486  0.4070
10152TIP3    H154651   3.242   7.204   2.085  1.7728 -0.1740 -0.6165
10152TIP3    H254652   3.285   7.129   2.210 -1.3564  0.5918  1.0387
10153TIP3   OH254653   1.207   4.587   1.263  0.4619  0.0623 -0.4596
10153TIP3    H154654   1.222   4.496   1.240 -0.0532 -0.3951  0.9239
10153TIP3    H254655   1.263   4.602   1.339  0.4614  0.8825 -0.6072
10154TIP3   OH254656   6.268   6.129   0.681  0.1284  0.1001  0.1638
10154TIP3    H154657   6.197   6.162   0.626 -0.1597  3.0336  2.0873
10154TIP3    H254658   6.306   6.207   0.722  2.4679 -1.6314  1.5887
10155TIP3   OH254659   4.035   5.330   2.079 -0.1017  0.2782  0.1919
10155TIP3    H154660   3.941   5.344   2.090 -0.0907 -0.8567  2.2272
10155TIP3    H254661   4.064   5.404   2.026 -1.9919  1.1187  0.2392
10156TIP3   OH254662   0.449   5.977   1.637 -0.1659  0.6223  0.3107
10156TIP3    H154663   0.526   5.955   1.585 -0.4850 -0.0289  0.1031
10156TIP3    H254664   0.422   5.894   1.676 -1.9746  0.3997 -1.2609
10157TIP3   OH254665   0.096   2.554   1.875 -0.1910  0.0704 -0.5495
10157TIP3    H154666   0.081   2.606   1.796 -0.8397  0.9202  0.1179
10157TIP3    H254667   0.191   2.551   1.885 -0.1343  2.2087  0.0733
10158TIP3   OH254668   7.217   1.131   2.660 -0.1943 -0.4299  0.5736
10158TIP3    H154669   7.296   1.136   2.715  0.2372 -0.2766 -0.0459
10158TIP3    H254670   7.200   1.038   2.651  0.5816 -0.5184 -0.1956
10159TIP3   OH254671   5.978   0.929   2.894 -0.2782  0.2814 -0.3736
10159TIP3    H154672   6.000   0.895   2.807  2.2107  0.8056 -0.0319
10159TIP3    H254673   5.968   0.851   2.948  0.0161 -0.0139 -0.7393
10160TIP3   OH254674   0.297   0.022   2.944  0.0852  0.2565 -0.0600
10160TIP3    H154675   0.290  -0.048   3.008  2.0299  0.3408  0.2966
10160TIP3    H254676   0.257   0.098   2.986 -0.8164 -0.2838  0.0787
10161TIP3   OH254677   2.462   5.922   0.716  0.1184 -0.0952  0.5949
10161TIP3    H154678   2.493   6.002   0.674 -1.6359  0.5954  0.5341
10161TIP3    H254679   2.379   5.947   0.757 -0.7350 -2.0019  0.1551
10162TIP3   OH254680   6.292   2.136   2.761 -0.1345 -0.3081  0.1207
10162TIP3    H154681   6.218   2.083   2.732 -2.4396  1.2949  2.6003
10162TIP3    H254682   6.252   2.214   2.799  2.9066  0.9991  0.9379
10163TIP3   OH254683   3.366   3.094   3.363  0.0164  0.1998 -0.2101
10163TIP3    H154684   3.283   3.048   3.379 -0.4508  1.5950  1.6937
10163TIP3    H254685   3.340   3.185   3.348  1.0112  0.1489 -2.6773
10164TIP3   OH254686   4.380   2.333   2.655 -0.1842 -0.1316 -0.0974
10164TIP3    H154687   4.308   2.299   2.707 -0.4102  0.8785  0.2729
10164TIP3    H254688   4.352   2.320   2.564  0.4059 -2.3090 -0.0317
10165TIP3   OH254689   0.643   4.274   3.239  0.2161 -0.2127  0.6365
10165TIP3    H154690   0.736   4.285   3.259  0.1524 -2.1035  2.2718
10165TIP3    H254691   0.606   4.237   3.319 -1.6222 -1.0148 -0.5296
10166TIP3   OH254692   6.504   2.894   1.379  0.5445 -0.0869 -0.2918
10166TIP3    H154693   6.534   2.813   1.419 -0.2849  0.2429  1.0534
10166TIP3    H254694   6.582   2.950   1.375  0.9688 -0.6944 -0.6043
10167TIP3   OH254695   7.650   0.632   1.306  0.8931 -0.0704  0.2383
10167TIP3    H154696   7.696   0.652   1.388  1.3930  1.2684 -0.3392
10167TIP3    H254697   7.604   0.713   1.284 -0.6668 -0.9634  0.0790
10168TIP3   OH254698   0.048   6.923   1.485  0.0333  0.4287 -0.5315
10168TIP3    H154699   0.069   6.966   1.568  1.3697 -0.2942 -0.4641
10168TIP3    H254700   0.108   6.962   1.422  0.7153 -0.7244 -0.6299
10169TIP3   OH254701   1.403   3.004   1.025 -0.0441 -0.3636 -0.4998
10169TIP3    H154702   1.374   3.090   0.995 -1.9296 -0.0061  2.0088
10169TIP3    H254703   1.339   2.943   0.988  0.2384 -0.4863 -0.7954
10170TIP3   OH254704   5.534   1.633   2.839  0.2574  0.3349  0.1578
10170TIP3    H154705   5.503   1.545   2.818  0.1003  0.8440 -1.9561
10170TIP3    H254706   5.582   1.622   2.921 -1.4345 -1.3407  1.0055
10171TIP3   OH254707   4.451   2.906   3.018 -0.1563  0.2888  0.4060
10171TIP3    H154708   4.496   2.880   2.937 -1.1086 -0.1884  0.0167
10171TIP3    H254709   4.509   2.876   3.088  0.9336  1.1499 -0.0723
10172TIP3   OH254710   7.636   2.068   1.355  0.1426 -0.0215  0.2620
10172TIP3    H154711   7.577   1.996   1.334  1.0424 -0.4837 -0.7570
10172TIP3    H254712   7.711   2.026   1.397  0.0277  0.4957  1.0106
10173TIP3   OH254713   3.785   2.990   0.835 -0.5606  0.7339 -0.1383
10173TIP3    H154714   3.693   2.976   0.856 -0.3074  0.5290  0.9189
10173TIP3    H254715   3.817   3.047   0.905  0.8285 -1.6343  1.3103
10174TIP3   OH254716   7.525   2.746   1.650 -0.7309 -0.2666  0.3682
10174TIP3    H154717   7.512   2.769   1.558  0.7915 -0.0235  0.1847
10174TIP3    H254718   7.619   2.761   1.665 -0.8006 -1.0788  1.7434
10175TIP3   OH254719   0.622   1.926   2.634  0.5550  0.3442  0.6982
10175TIP3    H154720   0.646   1.976   2.556  0.1019 -0.1500  0.2354
10175TIP3    H254721   0.536   1.959   2.659  1.6216  2.0908  2.3423
10176TIP3   OH254722   4.367   4.129   0.796  0.0755 -0.5619  0.2513
10176TIP3    H154723   4.331   4.054   0.747 -2.0349 -0.1359  1.0363
10176TIP3    H254724   4.290   4.171   0.835  1.5571 -0.5914  3.5597
10177TIP3   OH254725   6.052   7.509   1.923  0.0548 -0.0444  0.1175
10177TIP3    H154726   6.116   7.462   1.869  0.8789 -0.1730  1.1827
10177TIP3    H254727   6.101   7.583   1.960 -1.2182  1.7524 -1.5652
10178TIP3   OH254728   1.687   6.107   1.234 -0.2211 -0.3293 -0.4726
10178TIP3    H154729   1.782   6.098   1.234 -0.2429 -0.5760 -0.4326
10178TIP3    H254730   1.654   6.018   1.252 -0.4547 -0.1992 -0.2453
10179TIP3   OH254731   0.860   3.873   1.829  0.1225 -0.1203  0.3749
10179TIP3    H154732   0.802   3.798   1.846 -0.0886 -0.2963 -1.0413
10179TIP3    H254733   0.903   3.853   1.746  2.0157  0.1579  1.2232
10180TIP3   OH254734   6.881   1.387   1.231 -0.3725  1.2018 -0.1316
10180TIP3    H154735   6.946   1.446   1.193 -0.7982  1.5399 -0.3408
10180TIP3    H254736   6.798   1.414   1.192 -0.7329  1.1711  0.5881
10181TIP3   OH254737   7.088   4.157   2.817  0.2369 -0.1639  0.3664
10181TIP3    H154738   7.056   4.076   2.776  0.4431 -0.4893  0.8299
10181TIP3    H254739   7.180   4.138   2.838  0.0713 -0.0917  1.1821
10182TIP3   OH254740   4.120   3.040   1.229 -0.0997 -0.6636 -0.3924
10182TIP3    H154741   4.062   2.985   1.177 -0.7017 -0.8235  0.4279
10182TIP3    H254742   4.186   2.981   1.265 -0.7844 -0.8792  0.5418
10183TIP3   OH254743   2.672   2.215   2.052 -0.0896 -0.3667 -0.3413
10183TIP3    H154744   2.699   2.203   2.143 -0.9619  1.9900  0.2905
10183TIP3    H254745   2.665   2.126   2.017 -1.7578 -1.4731  2.5063
10184TIP3   OH254746   2.733   3.176   0.631  0.1519 -0.0805  0.9772
10184TIP3    H154747   2.768   3.172   0.720 -3.8220 -1.2728  2.7582
10184TIP3    H254748   2.711   3.269   0.618  0.1245 -0.0072  1.5360
10185TIP3   OH254749   1.173   3.972   1.335  0.3249 -0.1679 -0.2824
10185TIP3    H154750   1.125   3.970   1.253 -0.7012 -2.8575  0.2697
10185TIP3    H254751   1.105   3.970   1.403  1.1587  1.2003  0.6385
10186TIP3   OH254752   5.567   7.186   1.684 -0.5215  0.6043  0.4593
10186TIP3    H154753   5.524   7.255   1.634  0.4491 -0.5224 -2.1090
10186TIP3    H254754   5.653   7.176   1.642  0.2894 -0.5669  2.2831
10187TIP3   OH254755   5.974   4.022   0.940 -0.3551 -0.3841 -1.2849
10187TIP3    H154756   5.997   4.094   0.999 -1.2331  0.4078 -1.8723
10187TIP3    H254757   6.058   3.992   0.905  0.0762 -0.0960 -0.5244
10188TIP3   OH254758   4.371   1.188   1.077 -0.1976  0.1600  0.0128
10188TIP3    H154759   4.360   1.104   1.121 -3.2168  0.7932  0.6430
10188TIP3    H254760   4.329   1.252   1.134  0.5466  1.8806 -1.2520
10189TIP3   OH254761   1.933   6.310   1.099  0.2735  0.3097 -0.4785
10189TIP3    H154762   1.976   6.224   1.101 -0.4974 -0.0987  2.0960
10189TIP3    H254763   1.859   6.298   1.038 -0.6566 -1.3464  0.8665
10190TIP3   OH254764   6.676   3.303   1.464 -0.4329 -0.7012 -0.5896
10190TIP3    H154765   6.588   3.276   1.489 -0.0081 -1.6523 -0.0728
10190TIP3    H254766   6.705   3.362   1.534 -0.5212 -0.6702 -0.5792
10191TIP3   OH254767   5.988   3.781   1.774  0.4911  0.7392  0.2275
10191TIP3    H154768   6.009   3.851   1.713 -0.2598 -0.5612 -1.6170
10191TIP3    H254769   5.893   3.769   1.766  0.6660 -0.8435  0.0557
10192TIP3   OH254770   2.305   2.770   1.347 -0.5471 -0.0217 -0.0303
10192TIP3    H154771   2.222   2.728   1.322 -0.9894  0.5413  0.4801
10192TIP3    H254772   2.309   2.848   1.292 -1.5683  1.2745  1.6556
10193TIP3   OH254773   3.318   4.757   0.530 -0.4665 -0.2647  0.1030
10193TIP3    H154774   3.304   4.704   0.451  1.7696 -0.7396 -0.0400
10193TIP3    H254775   3.379   4.705   0.582 -0.2568  1.0274  1.1679
10194TIP3   OH254776   2.647   7.655   1.753 -0.0669 -0.3641  0.1420
10194TIP3    H154777   2.731   7.610   1.751 -1.0430 -2.4590  1.8318
10194TIP3    H254778   2.594   7.603   1.814 -2.1533  1.6516  0.1586
10195TIP3   OH254779   0.990   3.392   3.255  0.5768  0.2915 -0.0459
10195TIP3    H154780   0.962   3.467   3.307 -1.7882 -1.0566  0.7354
10195TIP3    H254781   1.073   3.365   3.294 -0.2570  0.4114  1.9067
10196TIP3   OH254782   4.643   5.715   1.540 -0.0967  0.2220 -0.0046
10196TIP3    H154783   4.713   5.714   1.475  0.0569 -1.8830  0.1227
10196TIP3    H254784   4.592   5.636   1.521 -1.8068  1.1454  0.5786
10197TIP3   OH254785   7.612   5.326   1.159 -0.1297  0.1120 -0.0856
10197TIP3    H154786   7.635   5.392   1.093 -2.4826 -0.9700 -2.1492
10197TIP3    H254787   7.661   5.352   1.237  2.4730  1.7313 -2.0885
10198TIP3   OH254788   4.983   2.723   1.938 -0.6933 -0.5007  0.2477
10198TIP3    H154789   5.018   2.641   1.972 -0.2174 -0.8700 -1.0564
10198TIP3    H254790   5.053   2.757   1.881 -0.9211  0.7580  0.6722
10199TIP3   OH254791   2.400   3.333   0.591  0.2117 -0.7314 -0.6269
10199TIP3    H154792   2.317   3.340   0.543  0.8785  0.8518 -1.6473
10199TIP3    H254793   2.427   3.242   0.579 -0.8607 -1.0009 -1.1577
10200TIP3   OH254794   2.142   2.516   2.661  0.0433  0.6418  0.2366
10200TIP3    H154795   2.174   2.486   2.746  1.1609 -0.2444 -0.4615
10200TIP3    H254796   2.062   2.465   2.646 -0.0636  0.6761  0.6726
10201TIP3   OH254797   5.013   5.433   0.954  0.5490 -0.0955 -0.0692
10201TIP3    H154798   4.955   5.478   0.892  1.4276 -1.0154 -1.6297
10201TIP3    H254799   5.003   5.482   1.036 -1.3063  0.6468 -0.6827
10202TIP3   OH254800   0.736   2.495   2.718 -0.0531  0.1905  0.6262
10202TIP3    H154801   0.779   2.580   2.723 -0.6930  0.5070  0.7555
10202TIP3    H254802   0.744   2.459   2.806 -0.6672  0.5523  0.8325
10203TIP3   OH254803   6.611   2.867   0.985  0.1911  0.0600  1.0662
10203TIP3    H154804   6.689   2.882   1.038  1.3816  1.6974 -0.9485
10203TIP3    H254805   6.561   2.949   0.992 -0.1308 -0.0805  0.4834
10204TIP3   OH254806   2.937   4.456   1.824 -0.6418  0.4864 -0.1592
10204TIP3    H154807   2.861   4.443   1.880 -0.8859 -1.7129 -0.9377
10204TIP3    H254808   2.917   4.536   1.775 -1.0661  1.6270  1.7462
10205TIP3   OH254809   2.531   4.054   1.535 -0.0664 -0.1243 -0.4462
10205TIP3    H154810   2.553   3.967   1.501 -1.7532 -1.1001  0.7784
10205TIP3    H254811   2.533   4.043   1.630 -1.0492  0.9866 -0.2800
10206TIP3   OH254812   4.069   5.348   0.613 -0.0173 -0.3913 -0.1787
10206TIP3    H154813   4.050   5.285   0.542  0.7952 -0.1596 -0.6133
10206TIP3    H254814   3.992   5.344   0.669 -0.0823 -1.6111 -0.3247
10207TIP3   OH254815   1.586   2.641   0.386 -0.7473 -0.2370 -0.1807
10207TIP3    H154816   1.670   2.611   0.421 -1.4333 -0.4080  1.4055
10207TIP3    H254817   1.601   2.733   0.364  0.1800 -0.5814 -1.0664
10208TIP3   OH254818   7.526   6.283   1.366  0.2642 -0.0928 -0.4433
10208TIP3    H154819   7.559   6.204   1.324 -0.1392 -1.1552  1.1372
10208TIP3    H254820   7.544   6.270   1.459 -1.7852  0.6779  0.1076
10209TIP3   OH254821   2.085   1.341   0.859 -0.7776  0.5128  0.4718
10209TIP3    H154822   2.076   1.328   0.953 -0.9993 -1.3799  0.2347
10209TIP3    H254823   2.014   1.289   0.820  0.0747  0.2243 -0.7745
10210TIP3   OH254824   5.729   5.173   1.957  0.2821  0.5910 -0.3129
10210TIP3    H154825   5.661   5.155   1.893  0.5505  1.0149 -0.7224
10210TIP3    H254826   5.702   5.124   2.035 -0.0815  0.1270 -0.7227
10211TIP3   OH254827   4.543   7.056   0.664  0.3625  1.0169  0.2553
10211TIP3    H154828   4.565   7.093   0.750 -0.1530  0.1420  0.7841
10211TIP3    H254829   4.510   6.969   0.684  1.2729  0.3778 -0.9390
10212TIP3   OH254830   3.959   2.413   0.634 -0.2239  0.3720  0.3428
10212TIP3    H154831   4.015   2.468   0.578  0.4893  1.3250  1.9398
10212TIP3    H254832   3.943   2.466   0.712 -0.4444 -1.2608  1.4494
10213TIP3   OH254833   1.691   1.116   3.033 -0.1759 -0.6030 -0.5182
10213TIP3    H154834   1.741   1.063   3.095  0.1440  0.1346 -0.1316
10213TIP3    H254835   1.628   1.055   2.994 -1.2083 -0.8414  1.4020
10214TIP3   OH254836   6.484   0.129   1.554  0.5404 -0.5507 -0.4722
10214TIP3    H154837   6.439   0.209   1.526  0.9379 -0.8307 -2.0010
10214TIP3    H254838   6.421   0.060   1.537 -0.0095 -0.5565  1.3503
10215TIP3   OH254839   2.942   7.631   1.216 -0.3484 -0.0297  0.2768
10215TIP3    H154840   3.001   7.562   1.184 -0.7306 -0.5788  0.7421
10215TIP3    H254841   2.873   7.636   1.150 -0.5881 -0.4466  0.4930
10216TIP3   OH254842   0.684   4.463   3.438  0.4939 -0.0076 -0.3770
10216TIP3    H154843   0.654   4.388   3.490  0.9626  0.0883  0.0320
10216TIP3    H254844   0.761   4.496   3.484  1.1764 -0.1844 -1.3644
10217TIP3   OH254845   3.586   6.894   2.025 -0.0302 -0.2844  0.4098
10217TIP3    H154846   3.565   6.828   1.959  0.6831 -1.3141  1.1702
10217TIP3    H254847   3.533   6.868   2.101 -0.9408  0.9550  0.2245
10218TIP3   OH254848   1.693   1.937   1.740 -0.6399  0.1756 -0.1538
10218TIP3    H154849   1.640   1.861   1.760 -1.3977  0.7261 -0.0458
10218TIP3    H254850   1.718   1.926   1.648  0.0493 -0.6643  0.1199
10219TIP3   OH254851   5.194   5.683   2.274  0.2185 -0.0138  0.5022
10219TIP3    H154852   5.266   5.625   2.298  0.2408 -0.6061 -0.8652
10219TIP3    H254853   5.230   5.738   2.204 -0.4124  0.2497  0.3746
10220TIP3   OH254854   3.993   4.350   1.638 -0.2690 -0.0392  0.2662
10220TIP3    H154855   4.085   4.375   1.651  0.4459 -1.5120 -1.6238
10220TIP3    H254856   3.950   4.432   1.614  0.7516  0.4981  0.1993
10221TIP3   OH254857   1.641   1.669   2.578  0.0870  0.6350 -0.0391
10221TIP3    H154858   1.676   1.675   2.490 -0.9267  0.1487 -0.4942
10221TIP3    H254859   1.673   1.585   2.612  0.2313  0.6848 -0.0519
10222TIP3   OH254860   5.994   4.607   2.406  0.4863 -0.1362  0.1446
10222TIP3    H154861   5.929   4.653   2.459 -0.5036  0.0597 -1.1592
10222TIP3    H254862   5.945   4.535   2.366  0.6669  0.7905 -1.9089
10223TIP3   OH254863   1.310   1.064   1.786  0.6466 -0.8759  0.1585
10223TIP3    H154864   1.231   1.095   1.830  2.2053 -1.6368  3.9021
10223TIP3    H254865   1.294   0.970   1.773 -0.0802 -0.5293 -1.6800
10224TIP3   OH254866   4.609   4.068   0.909  0.0703  0.6188  0.0224
10224TIP3    H154867   4.578   3.999   0.967  0.0958  2.5426  2.5115
10224TIP3    H254868   4.534   4.088   0.853 -0.4715 -0.3102  0.3960
10225TIP3   OH254869   6.057   2.668   1.076 -0.3863 -0.2266  0.5337
10225TIP3    H154870   6.112   2.593   1.053  0.5725  0.0072  1.9486
10225TIP3    H254871   6.091   2.740   1.023  0.7148 -0.0850  1.3959
10226TIP3   OH254872   0.123   0.338   1.001  0.6282  0.0881  0.0260
10226TIP3    H154873   0.100   0.254   1.040 -0.6354  0.1008 -0.6612
10226TIP3    H254874   0.129   0.398   1.075 -1.0216 -0.0527  0.2986
10227TIP3   OH254875   7.006   5.819   0.654  0.2822  0.1130  0.2295
10227TIP3    H154876   7.042   5.878   0.720  0.6322  0.0677  0.0792
10227TIP3    H254877   6.913   5.843   0.648  0.6600  1.4511 -0.6803
10228TIP3   OH254878   5.619   6.938   2.912  0.3864  0.0816 -0.0456
10228TIP3    H154879   5.608   7.017   2.859  1.2153  0.2721  0.0475
10228TIP3    H254880   5.664   6.969   2.991 -1.3280 -0.0964  1.0614
10229TIP3   OH254881   2.789   2.751   3.181 -0.0794  0.2711  0.7823
10229TIP3    H154882   2.747   2.707   3.255  1.0270 -1.0554  0.6464
10229TIP3    H254883   2.878   2.717   3.180  0.1281  0.7911 -0.7513
10230TIP3   OH254884   2.933   4.998   0.953  1.2114 -0.2545 -0.3163
10230TIP3    H154885   2.928   4.955   1.038  1.8793  2.1796  1.0624
10230TIP3    H254886   3.018   4.971   0.918  1.2308 -0.7481  0.1006
10231TIP3   OH254887   6.725   7.257   1.594 -0.2004 -0.4612  0.0589
10231TIP3    H154888   6.675   7.209   1.527  1.9126 -3.2956  0.3343
10231TIP3    H254889   6.702   7.213   1.676  1.4567 -0.7816  0.3839
10232TIP3   OH254890   3.396   2.929   1.625 -0.1298 -0.5482 -0.3825
10232TIP3    H154891   3.384   2.898   1.714 -0.4382 -1.2626 -0.6689
10232TIP3    H254892   3.490   2.944   1.617 -0.0616 -0.7821 -0.0363
10233TIP3   OH254893   3.568   5.934   2.965  0.0059 -0.3745  0.1895
10233TIP3    H154894   3.632   6.002   2.943 -1.1988  0.5368 -0.6174
10233TIP3    H254895   3.621   5.855   2.978  1.2770  0.3108 -0.5918
10234TIP3   OH254896   6.542   0.672   1.210 -0.7427 -0.2324 -0.3162
10234TIP3    H154897   6.554   0.761   1.177  1.7192  0.1643  1.3666
10234TIP3    H254898   6.538   0.682   1.306  1.4251 -2.0036  0.0511
10235TIP3   OH254899   0.403   5.124   2.051  0.2165 -0.3421  0.1620
10235TIP3    H154900   0.310   5.104   2.056  0.4251 -1.1526  1.4725
10235TIP3    H254901   0.407   5.219   2.053 -0.5561 -0.3112  1.3947
10236TIP3   OH254902   0.618   5.522   0.543 -0.0229 -0.3290  0.3239
10236TIP3    H154903   0.583   5.493   0.628  3.9031 -1.7227  1.6789
10236TIP3    H254904   0.709   5.545   0.561  1.7346 -2.8748 -3.8845
10237TIP3   OH254905   2.057   3.029   1.839  0.2945  0.7023  0.2090
10237TIP3    H154906   2.103   3.095   1.890 -0.0561  0.6723  0.5708
10237TIP3    H254907   2.116   3.008   1.766  1.0635  0.3021  0.9371
10238TIP3   OH254908   0.251   2.149   2.858 -0.3683 -0.1316 -0.2376
10238TIP3    H154909   0.311   2.075   2.871  0.0953  0.1313 -0.8285
10238TIP3    H254910   0.178   2.112   2.807 -0.2025 -0.2107 -0.4180
10239TIP3   OH254911   1.178   4.819   0.830  0.2417 -0.8489  0.0924
10239TIP3    H154912   1.264   4.849   0.799  1.0530 -1.0583  2.0094
10239TIP3    H254913   1.184   4.724   0.829 -0.2930 -0.8889 -0.5364
10240TIP3   OH254914   0.145   2.846   0.683  0.2425  0.9054 -0.1448
10240TIP3    H154915   0.142   2.938   0.710 -1.7225  0.8602 -0.1115
10240TIP3    H254916   0.227   2.813   0.720  1.6564  2.9432 -1.2561
10241TIP3   OH254917   3.477   2.548   0.549 -0.1982 -0.0660  0.0181
10241TIP3    H154918   3.476   2.630   0.598 -0.4683 -0.7160  1.1198
10241TIP3    H254919   3.384   2.524   0.541 -0.0672 -0.7857  0.5987
10242TIP3   OH254920   1.061   6.393   1.694 -0.2574 -0.4393  0.2561
10242TIP3    H154921   1.059   6.332   1.621 -0.6955  0.8496 -0.8479
10242TIP3    H254922   1.134   6.452   1.675 -1.0541  0.5736  0.2845
10243TIP3   OH254923   3.582   3.734   1.150  0.2764  0.1544 -0.5012
10243TIP3    H154924   3.667   3.693   1.138  0.2948  0.0612 -0.0475
10243TIP3    H254925   3.571   3.789   1.072  0.2211 -0.7612 -1.1569
10244TIP3   OH254926   0.765   1.132   2.126  0.2828 -0.2255  0.0426
10244TIP3    H154927   0.784   1.163   2.038  0.0290 -0.0326  0.0567
10244TIP3    H254928   0.673   1.155   2.141  0.9022  1.7521  1.1864
10245TIP3   OH254929   4.704   5.036   2.620 -0.0947 -0.3986 -0.1066
10245TIP3    H154930   4.614   5.047   2.590 -0.0183 -0.2067 -0.2686
10245TIP3    H254931   4.712   5.092   2.696 -0.9114 -2.4676  1.6112
10246TIP3   OH254932   6.881   1.886   1.932 -0.4146  0.2225  0.2966
10246TIP3    H154933   6.953   1.919   1.985 -0.6343  0.3612  0.5145
10246TIP3    H254934   6.806   1.941   1.956 -0.5100  0.3071 -0.1827
10247TIP3   OH254935   2.984   0.875   0.846  0.2258  0.3762 -0.0266
10247TIP3    H154936   3.039   0.806   0.808 -0.6406  0.7286 -1.9831
10247TIP3    H254937   2.899   0.833   0.858 -0.0108  0.8111 -0.1998
10248TIP3   OH254938   6.591   0.437   0.917  0.3422 -0.8024  0.1006
10248TIP3    H154939   6.677   0.403   0.894  1.6524  1.7122  0.8557
10248TIP3    H254940   6.529   0.374   0.881  2.4904 -3.0495  0.1170
10249TIP3   OH254941   4.897   5.175   1.195 -0.0825  0.4646 -0.4050
10249TIP3    H154942   4.890   5.130   1.280  0.6330  0.4251 -0.3634
10249TIP3    H254943   4.806   5.180   1.164 -0.2112 -0.7688 -0.2830
10250TIP3   OH254944   3.482   1.109   1.019 -0.1766  0.4843  0.0255
10250TIP3    H154945   3.398   1.145   0.992 -1.4056 -0.6744  2.0041
10250TIP3    H254946   3.522   1.179   1.071 -0.6359  0.4976  0.3676
10251TIP3   OH254947   5.742   4.874   1.471  0.5607 -0.2196  0.1271
10251TIP3    H154948   5.714   4.929   1.544 -0.5781 -0.5384 -0.0584
10251TIP3    H254949   5.678   4.891   1.403  0.7710 -1.0466 -0.2801
10252TIP3   OH254950   0.160   6.284   1.048  0.2507  0.1244  0.1854
10252TIP3    H154951   0.219   6.333   0.990 -0.7225  0.5421 -0.4799
10252TIP3    H254952   0.211   6.270   1.128  1.1651  0.6808 -0.2834
10253TIP3   OH254953   5.746   3.919   2.454  0.4655  0.3711  0.0066
10253TIP3    H154954   5.833   3.959   2.462  0.1237  1.0006  0.6975
10253TIP3    H254955   5.752   3.863   2.376  2.2054 -1.4552  1.3754
10254TIP3   OH254956   0.210   3.690   1.208  0.0538  0.0111  0.0988
10254TIP3    H154957   0.144   3.636   1.164 -0.0693  1.7971 -2.1361
10254TIP3    H254958   0.167   3.775   1.221  0.8850  0.2295  1.5952
10255TIP3   OH254959   4.711   6.725   1.123 -0.2110 -0.3578 -0.2249
10255TIP3    H154960   4.647   6.782   1.166  0.7910  0.1987  0.5706
10255TIP3    H254961   4.696   6.740   1.029 -1.4873 -0.5301 -0.0643
10256TIP3   OH254962   6.773   3.567   0.445 -0.0945  0.1291 -0.4370
10256TIP3    H154963   6.842   3.602   0.502  1.1157 -0.0766 -1.7189
10256TIP3    H254964   6.795   3.599   0.357 -0.1506 -2.0366 -1.3067
10257TIP3   OH254965   4.188   6.666   1.866  0.0609 -0.6604 -0.3034
10257TIP3    H154966   4.127   6.599   1.836 -1.1892 -0.2466  1.1314
10257TIP3    H254967   4.146   6.702   1.945  2.0388 -0.1487  0.5728
10258TIP3   OH254968   0.222   5.272   2.663  0.4178  1.3631 -0.6556
10258TIP3    H154969   0.263   5.201   2.713 -2.5337 -0.8961 -1.2205
10258TIP3    H254970   0.254   5.352   2.705  0.3665 -0.3511  3.0172
10259TIP3   OH254971   5.186   0.384   3.088  0.1282  0.5001  0.5577
10259TIP3    H154972   5.258   0.445   3.095  1.2231 -0.5595 -0.7482
10259TIP3    H254973   5.227   0.297   3.097 -0.6193 -0.2105 -2.0030
10260TIP3   OH254974   7.601   5.989   0.712  0.4351  0.1326 -0.0270
10260TIP3    H154975   7.530   5.925   0.703 -0.3815  0.9301  0.4839
10260TIP3    H254976   7.671   5.956   0.656  0.3531 -1.6256  0.8119
10261TIP3   OH254977   5.123   4.298   0.849 -0.1917  0.4605  0.0169
10261TIP3    H154978   5.080   4.364   0.796  3.0015  2.5422 -0.2872
10261TIP3    H254979   5.055   4.266   0.908 -2.3968  2.4759 -1.2698
10262TIP3   OH254980   7.453   0.946   0.917 -0.0969 -0.5730  0.3105
10262TIP3    H154981   7.397   1.014   0.878  1.1711 -0.0649 -0.7055
10262TIP3    H254982   7.471   0.886   0.845 -0.9491 -1.8470  1.1273
10263TIP3   OH254983   5.388   0.317   2.117  0.5231  1.0286 -0.3284
10263TIP3    H154984   5.322   0.289   2.054  0.6943  0.6449 -0.3344
10263TIP3    H254985   5.346   0.306   2.202  0.6705  0.5499 -0.3195
10264TIP3   OH254986   0.980   4.164   2.959 -0.3791 -0.2265 -0.0856
10264TIP3    H154987   1.074   4.183   2.948 -0.2760  0.7011  2.0411
10264TIP3    H254988   0.978   4.090   3.020 -1.0233  0.9457  1.3719
10265TIP3   OH254989   1.299   4.744   0.580 -0.2479 -0.6307 -0.0739
10265TIP3    H154990   1.254   4.807   0.523 -1.0040  0.0926  1.2745
10265TIP3    H254991   1.229   4.701   0.628  0.3914 -0.8959  0.6367
10266TIP3   OH254992   2.261   5.787   2.997 -0.1167  0.0981  0.2229
10266TIP3    H154993   2.221   5.734   3.066  1.8879 -0.8137  0.7562
10266TIP3    H254994   2.312   5.853   3.044 -2.2005  2.3294 -0.4307
10267TIP3   OH254995   4.308   4.802   2.972  0.1216 -0.4247  0.2493
10267TIP3    H154996   4.308   4.709   2.951  0.4237 -0.5805  0.8933
10267TIP3    H254997   4.275   4.845   2.893  1.8034 -0.9236 -0.7769
10268TIP3   OH254998   3.955   2.843   0.491  0.0328  0.0179  1.0463
10268TIP3    H154999   4.025   2.794   0.447 -0.9256  0.4499 -1.1245
10268TIP3    H255000   3.890   2.777   0.514 -0.6375  0.0270 -0.6429
10269TIP3   OH255001   2.998   2.533   1.927 -0.5754  0.0966 -0.1925
10269TIP3    H155002   3.008   2.521   1.832  1.3794 -0.4100  0.0298
10269TIP3    H255003   3.042   2.457   1.965 -2.2773 -0.2717  1.1417
10270TIP3   OH255004   6.867   0.342   0.897  0.3723 -0.7443 -0.4107
10270TIP3    H155005   6.893   0.266   0.845 -2.1308 -2.6148  0.8922
10270TIP3    H255006   6.862   0.310   0.987 -1.3615  0.7888  0.1002
10271TIP3   OH255007   6.255   7.042   3.410 -0.1347  0.7409 -0.2072
10271TIP3    H155008   6.326   7.089   3.367  0.6439 -0.2682 -0.0750
10271TIP3    H255009   6.218   7.105   3.471  0.1569  1.5185 -0.8254
10272TIP3   OH255010   4.135   0.438   2.087 -0.6142 -0.8126 -0.1036
10272TIP3    H155011   4.137   0.423   2.182 -3.7321  0.7141  0.3252
10272TIP3    H255012   4.114   0.531   2.078 -0.2815 -0.8930 -2.3265
10273TIP3   OH255013   7.159   3.836   0.682 -0.0205  0.1337 -0.1429
10273TIP3    H155014   7.208   3.811   0.604 -0.0822 -0.7683  0.0893
10273TIP3    H255015   7.156   3.931   0.680 -2.0425  0.1110 -2.4968
10274TIP3   OH255016   6.082   1.050   0.590  0.1107 -0.0722  0.1395
10274TIP3    H155017   5.992   1.077   0.575  0.1273 -0.4029 -0.6197
10274TIP3    H255018   6.134   1.109   0.536  0.2358 -0.7829 -0.5449
10275TIP3   OH255019   3.273   6.996   1.147  0.6641 -0.4037  0.2286
10275TIP3    H155020   3.222   7.074   1.124  1.0111 -0.3237 -0.2773
10275TIP3    H255021   3.351   7.030   1.190  0.9378 -0.4562 -0.2217
10276TIP3   OH255022   7.317   1.814   1.415  0.5642  0.3427 -0.2898
10276TIP3    H155023   7.237   1.769   1.439 -0.7937  3.6080  2.0903
10276TIP3    H255024   7.368   1.819   1.495  2.0757  0.3626 -1.2075
10277TIP3   OH255025   7.429   7.429   2.319  0.4121  0.1633 -0.5468
10277TIP3    H155026   7.397   7.487   2.388 -0.6873 -0.5374 -0.4232
10277TIP3    H255027   7.373   7.448   2.244  0.0605 -0.6646 -0.5173
10278TIP3   OH255028   7.467   6.257   0.737 -0.3468 -0.4210 -0.1664
10278TIP3    H155029   7.503   6.322   0.676 -0.5453  0.7239  0.8964
10278TIP3    H255030   7.523   6.180   0.726  1.1556  0.6123 -0.0337
10279TIP3   OH255031   0.954   6.055   3.078  0.3649  0.5042 -0.1251
10279TIP3    H155032   0.911   6.011   3.152  0.8840  1.2733  0.6490
10279TIP3    H255033   0.998   5.984   3.031 -0.0015 -0.0027  0.2710
10280TIP3   OH255034   0.054   3.376   2.470  0.3537  0.2928  0.3403
10280TIP3    H155035  -0.032   3.340   2.489 -0.0013  1.4996  1.1660
10280TIP3    H255036   0.112   3.333   2.533 -0.0295  0.9778  1.1828
10281TIP3   OH255037   0.106   6.364   1.939 -0.1542  0.2846 -0.2506
10281TIP3    H155038   0.035   6.424   1.918 -1.2063 -0.8747 -0.1167
10281TIP3    H255039   0.157   6.358   1.857 -0.3533  0.9083 -0.4286
10282TIP3   OH255040   4.030   1.777   1.514 -0.4010 -0.3836  0.1428
10282TIP3    H155041   4.102   1.794   1.453  0.3348  0.4875  1.1858
10282TIP3    H255042   4.073   1.737   1.590 -0.9160  0.6328  0.9998
10283TIP3   OH255043   6.829   6.252   2.035  0.0122 -0.1513 -0.7812
10283TIP3    H155044   6.778   6.234   1.956 -0.8149 -0.6156 -0.1656
10283TIP3    H255045   6.907   6.197   2.026  1.2424  1.7342 -2.4721
10284TIP3   OH255046   0.491   6.271   3.529  0.0305  0.7032 -0.7495
10284TIP3    H155047   0.493   6.328   3.453 -1.6047  0.0887 -1.2956
10284TIP3    H255048   0.460   6.187   3.495  1.2623 -0.1907  0.2372
10285TIP3   OH255049   2.038   3.490   2.529 -0.1066  0.0621 -0.1427
10285TIP3    H155050   1.985   3.544   2.471 -0.1507 -2.1683 -2.3327
10285TIP3    H255051   1.999   3.403   2.523  2.3100 -1.1286  0.0556
10286TIP3   OH255052   2.964   3.852   1.257 -0.3824  0.2784 -0.7981
10286TIP3    H155053   2.930   3.921   1.315  0.1828 -0.3768  0.3610
10286TIP3    H255054   2.941   3.771   1.301  2.4889 -0.2156  0.0203
10287TIP3   OH255055   6.436   0.958   2.026  1.2630  0.5853 -0.2314
10287TIP3    H155056   6.403   0.996   1.944  1.4774  0.0130 -0.5932
10287TIP3    H255057   6.469   0.872   2.000  0.8823  0.1992  0.5554
10288TIP3   OH255058   6.811   3.059   2.966  0.2870  0.2425  0.1264
10288TIP3    H155059   6.879   3.110   3.010 -0.1168  1.4274 -0.5777
10288TIP3    H255060   6.801   2.981   3.020  0.6801  1.0692  1.4389
10289TIP3   OH255061   2.439   2.248   1.602 -0.2100  0.1407  0.0767
10289TIP3    H155062   2.516   2.230   1.548 -1.1607 -0.9247 -0.9685
10289TIP3    H255063   2.404   2.330   1.568 -0.4979 -0.2491 -0.5783
10290TIP3   OH255064   6.265   7.328   1.793 -0.7958 -0.0659 -0.4585
10290TIP3    H155065   6.266   7.235   1.814 -1.1455 -0.0620 -0.4123
10290TIP3    H255066   6.324   7.368   1.856 -1.2268 -0.1566  0.0047
10291TIP3   OH255067   0.621   0.662   2.283  1.3245 -0.4538  0.3911
10291TIP3    H155068   0.676   0.687   2.358  1.8881 -0.6338  0.0484
10291TIP3    H255069   0.624   0.738   2.225  1.3079 -0.5072  0.3198
10292TIP3   OH255070   0.185   1.119   1.495  0.2796 -0.0158  0.2890
10292TIP3    H155071   0.148   1.078   1.573 -1.1030  0.1196 -0.2782
10292TIP3    H255072   0.144   1.206   1.492  1.7827  0.7379  0.4660
10293TIP3   OH255073   5.766   0.823   1.635 -0.1000 -0.1072 -0.5635
10293TIP3    H155074   5.735   0.808   1.725 -0.3386 -0.6248 -0.7269
10293TIP3    H255075   5.717   0.759   1.583  2.5890 -2.3128 -0.6017
10294TIP3   OH255076   3.872   3.820   1.451  0.1620 -0.3036 -0.2787
10294TIP3    H155077   3.792   3.858   1.413 -0.5870 -0.5357  1.0243
10294TIP3    H255078   3.890   3.874   1.528  0.5665 -1.0212  0.1353
10295TIP3   OH255079   4.699   2.768   3.118 -0.1805 -0.2607  0.3507
10295TIP3    H155080   4.701   2.716   3.199  3.3866  2.2477  2.1551
10295TIP3    H255081   4.753   2.719   3.056  0.3289 -0.3626  0.8702
10296TIP3   OH255082   4.333   5.159   2.828 -0.0055  0.0789 -0.1638
10296TIP3    H155083   4.251   5.110   2.830 -0.8668  1.4509  2.1214
10296TIP3    H255084   4.388   5.117   2.895  0.3918  0.3587 -0.3102
10297TIP3   OH255085   4.991   5.972   1.035  0.1616  0.3049  0.0675
10297TIP3    H155086   5.039   6.014   1.107 -1.0698  1.4547  0.2472
10297TIP3    H255087   4.899   5.990   1.054 -0.2249 -0.0114 -1.4170
10298TIP3   OH255088   5.417   6.150   1.105  0.4173 -0.0469  0.6602
10298TIP3    H155089   5.380   6.184   1.024  0.1708 -1.7262  0.0444
10298TIP3    H255090   5.489   6.210   1.125 -0.9619  1.7560  0.5045
10299TIP3   OH255091   6.153   0.979   1.443 -0.2356  0.3552  0.4505
10299TIP3    H155092   6.123   0.976   1.352 -1.0562  0.2173  0.7141
10299TIP3    H255093   6.200   0.896   1.455  2.2318  1.5262 -0.6009
10300TIP3   OH255094   5.292   2.365   2.160  0.1586 -0.2272  0.1591
10300TIP3    H155095   5.377   2.364   2.117  0.1086 -1.3034  0.0679
10300TIP3    H255096   5.308   2.408   2.244  0.3450  1.4839 -0.7190
10301TIP3   OH255097   7.028   2.201   0.860  0.2063 -0.1980  0.0826
10301TIP3    H155098   6.955   2.223   0.803 -0.3853 -0.1812  0.8398
10301TIP3    H255099   7.062   2.286   0.890 -1.0240 -0.2293  1.6752
10302TIP3   OH255100   3.068   0.044   1.937 -0.1892  0.5135 -0.3566
10302TIP3    H155101   3.050  -0.049   1.925  1.2098  0.2036 -0.1957
10302TIP3    H255102   3.070   0.056   2.032  0.5182  0.5118 -0.3655
10303TIP3   OH255103   3.053   1.959   3.183 -0.2764 -0.3759 -0.7836
10303TIP3    H155104   2.980   2.018   3.201  1.0079  1.2256 -0.6600
10303TIP3    H255105   3.011   1.876   3.159 -2.1255  0.5134 -0.7768
10304TIP3   OH255106   6.110   2.076   1.511  0.3335  0.3455 -0.2512
10304TIP3    H155107   6.045   2.011   1.483  0.5961 -0.9866  1.9744
10304TIP3    H255108   6.061   2.137   1.566  0.1737  1.8855 -2.0088
10305TIP3   OH255109   6.819   1.670   2.159  0.8124  0.6107 -0.0213
10305TIP3    H155110   6.816   1.749   2.213  0.1817 -0.1401  1.0738
10305TIP3    H255111   6.855   1.700   2.075  0.2540  2.1170  0.2479
10306TIP3   OH255112   3.205   4.959   0.854  0.3219 -0.7867  0.0043
10306TIP3    H155113   3.213   4.863   0.850 -0.2355 -0.8079 -1.7815
10306TIP3    H255114   3.295   4.989   0.864  0.5862 -1.4846 -0.1630
10307TIP3   OH255115   4.330   0.922   1.755 -0.0018 -0.4591  0.4177
10307TIP3    H155116   4.401   0.932   1.692 -0.2820  3.6198  0.5010
10307TIP3    H255117   4.254   0.894   1.703  0.9496 -2.3216 -0.0625
10308TIP3   OH255118   5.244   5.909   1.584  0.2123  0.5800 -0.3826
10308TIP3    H155119   5.169   5.891   1.528 -0.7423 -1.1031  1.3446
10308TIP3    H255120   5.278   5.992   1.551 -1.5427  0.6940 -2.1078
10309TIP3   OH255121   2.980   6.207   1.358  0.2392 -0.2244 -0.1068
10309TIP3    H155122   3.033   6.150   1.414  1.4038 -0.3914 -1.3240
10309TIP3    H255123   3.009   6.187   1.269 -1.7013 -0.1146 -0.8097
10310TIP3   OH255124   2.952   2.198   3.410 -0.2854 -0.4799  0.4314
10310TIP3    H155125   2.954   2.245   3.327 -0.4663  0.9390  1.2113
10310TIP3    H255126   2.860   2.195   3.435 -0.1835 -0.4921  0.8158
10311TIP3   OH255127   2.782   5.624   0.519 -0.3688 -0.0256 -0.8338
10311TIP3    H155128   2.735   5.551   0.560  0.7501 -0.2730  0.0629
10311TIP3    H255129   2.715   5.671   0.471 -1.6238 -0.1549  0.7054
10312TIP3   OH255130   6.207   7.189   2.727 -0.4548 -0.3655 -0.7099
10312TIP3    H155131   6.243   7.273   2.757  0.9271 -0.0270 -3.0011
10312TIP3    H255132   6.114   7.206   2.715 -0.4923  0.3254  0.4211
10313TIP3   OH255133   3.815   1.409   1.632 -0.2618  0.3859  0.6558
10313TIP3    H155134   3.835   1.371   1.546 -0.5781  0.0723  0.7207
10313TIP3    H255135   3.851   1.347   1.695  0.4214  0.8658  0.7500
10314TIP3   OH255136   4.096   5.385   2.639  0.0674 -0.4215  0.1724
10314TIP3    H155137   4.037   5.418   2.571  1.4534  1.1546 -0.3172
10314TIP3    H255138   4.075   5.291   2.645 -0.6054 -0.4520 -1.8954
10315TIP3   OH255139   1.612   0.620   1.043  0.4520  0.0855 -0.5842
10315TIP3    H155140   1.583   0.659   1.126  1.6964 -0.8145  0.3128
10315TIP3    H255141   1.555   0.543   1.033 -0.9801  1.2187 -1.5807
10316TIP3   OH255142   3.851   4.938   0.875  0.1897 -0.7363 -0.3463
10316TIP3    H155143   3.945   4.942   0.859  0.2226 -1.0903 -0.2547
10316TIP3    H255144   3.822   4.863   0.824 -0.1673 -0.1867 -0.9655
10317TIP3   OH255145   3.649   0.970   1.365 -0.3847  0.1147  0.1028
10317TIP3    H155146   3.561   1.006   1.373  0.4391  2.4136 -0.3054
10317TIP3    H255147   3.699   1.039   1.320  1.9953 -0.4565  1.6945
10318TIP3   OH255148   5.917   6.483   1.613 -0.3883  0.6429 -1.2647
10318TIP3    H155149   5.968   6.550   1.568 -1.0611  1.3852 -0.9659
10318TIP3    H255150   5.934   6.497   1.706  0.5113 -0.4807 -1.2427
10319TIP3   OH255151   2.697   2.168   1.506 -0.1974  0.2713 -0.3476
10319TIP3    H155152   2.758   2.225   1.552 -0.3577  0.1790 -0.0187
10319TIP3    H255153   2.686   2.209   1.420  1.7634 -0.6875 -1.1186
10320TIP3   OH255154   2.420   3.058   2.099 -0.3869  0.0220 -0.0888
10320TIP3    H155155   2.503   3.083   2.059  0.8019 -1.0764  1.5637
10320TIP3    H255156   2.416   3.110   2.180 -0.5986 -0.9692  0.5520
10321TIP3   OH255157   0.591   0.800   3.124 -0.6156 -0.3542  0.6380
10321TIP3    H155158   0.679   0.791   3.159 -0.8244  1.1899  1.6425
10321TIP3    H255159   0.603   0.838   3.037 -0.3114  3.4276  2.1293
10322TIP3   OH255160   5.678   2.051   1.908  0.2224  0.1187 -0.6064
10322TIP3    H155161   5.648   2.140   1.928 -1.8769 -0.4367 -1.0549
10322TIP3    H255162   5.687   2.009   1.994 -0.8369  0.1484 -0.4737
10323TIP3   OH255163   5.497   6.926   0.681  0.1818 -0.5033 -0.2107
10323TIP3    H155164   5.428   6.985   0.709  1.6498  0.6865  1.0578
10323TIP3    H255165   5.503   6.940   0.586 -0.6050  0.1630 -0.1721
10324TIP3   OH255166   4.862   1.044   1.632  0.4384 -0.4313 -0.5736
10324TIP3    H155167   4.857   0.962   1.584  1.9975 -0.9576  0.0716
10324TIP3    H255168   4.912   1.022   1.711  1.1968  1.2003 -0.5617
10325TIP3   OH255169   3.738   1.779   0.841  0.2228  0.1769  0.0101
10325TIP3    H155170   3.795   1.845   0.882 -0.0466 -0.3963  1.3440
10325TIP3    H255171   3.664   1.771   0.900 -0.9121  0.3702 -1.3430
10326TIP3   OH255172   5.832   4.879   1.806  0.2840  0.3046 -0.0181
10326TIP3    H155173   5.806   4.924   1.726  1.5706  0.4926 -0.3564
10326TIP3    H255174   5.752   4.872   1.857 -0.1380  2.1595 -0.3515
10327TIP3   OH255175   0.470   4.083   2.070  0.6577  0.4903  0.5941
10327TIP3    H155176   0.376   4.102   2.067  0.2311 -1.5354 -0.2416
10327TIP3    H255177   0.511   4.167   2.051 -1.0548  0.9352 -1.6940
10328TIP3   OH255178   2.400   4.914   1.948 -0.4531  0.3172 -0.4176
10328TIP3    H155179   2.434   4.994   1.909 -1.0853 -0.0995 -1.8901
10328TIP3    H255180   2.378   4.939   2.038  1.2071  1.2589 -0.2186
10329TIP3   OH255181   3.741   0.288   1.986  0.9592 -0.5622 -0.3033
10329TIP3    H155182   3.817   0.290   1.927  0.9436  2.2834 -0.3727
10329TIP3    H255183   3.670   0.325   1.934  0.1500 -0.8595  0.5634
10330TIP3   OH255184   1.991   3.290   1.589  0.3883  0.5620  0.2696
10330TIP3    H155185   2.085   3.277   1.604  0.2807 -1.0765 -0.2685
10330TIP3    H255186   1.950   3.261   1.671  0.2815  0.1180  0.0570
10331TIP3   OH255187   6.387   6.267   2.200 -0.5710  0.4510  0.1676
10331TIP3    H155188   6.456   6.209   2.168 -0.7117 -0.1407  0.8982
10331TIP3    H255189   6.432   6.348   2.225 -0.2937  0.4504 -0.3282
10332TIP3   OH255190   6.930   6.722   2.245  0.3636  0.0792  0.2741
10332TIP3    H155191   6.884   6.645   2.212 -0.8195 -0.0804  2.1688
10332TIP3    H255192   7.013   6.689   2.277  0.4698 -0.1682 -0.2546
10333TIP3   OH255193   1.971   6.392   1.672  0.0302  0.1319 -0.3203
10333TIP3    H155194   2.008   6.358   1.591  0.1269 -1.8950  0.5097
10333TIP3    H255195   2.047   6.421   1.723  0.1411 -0.3072 -0.2301
10334TIP3   OH255196   3.009   3.147   3.264  0.3349  0.1798 -0.4766
10334TIP3    H155197   2.961   3.205   3.323  1.9537  1.4539 -0.3427
10334TIP3    H255198   3.077   3.109   3.319  1.2858  0.6581 -1.2955
10335TIP3   OH255199   4.240   4.834   2.129 -0.4712  0.3705 -0.0811
10335TIP3    H155200   4.200   4.844   2.216  1.1641  1.6804  0.5766
10335TIP3    H255201   4.219   4.916   2.084  0.3977  0.5438 -0.1761
10336TIP3   OH255202   5.158   2.146   2.125  0.3721 -0.5022 -0.4230
10336TIP3    H155203   5.204   2.230   2.133 -1.2219  0.3822 -0.2591
10336TIP3    H255204   5.201   2.103   2.051  0.1293  1.1804 -1.6010
10337TIP3   OH255205   0.908   2.867   3.476 -0.4110 -0.1779  0.0489
10337TIP3    H155206   0.813   2.883   3.472 -0.0787  1.9764 -0.4386
10337TIP3    H255207   0.947   2.949   3.448  1.6410 -0.8923  0.6590
10338TIP3   OH255208   1.280   0.209   1.922 -0.4158 -0.1504 -0.2367
10338TIP3    H155209   1.322   0.191   2.007 -0.5145  0.4732 -0.0489
10338TIP3    H255210   1.189   0.184   1.935 -1.1309  2.5742  0.8014
10339TIP3   OH255211   1.318   5.935   1.439  0.2676  0.4808  0.0296
10339TIP3    H155212   1.401   5.905   1.476 -0.1775  0.5361  1.1103
10339TIP3    H255213   1.337   6.021   1.402  0.8355  0.2105 -0.3089
10340TIP3   OH255214   2.696   0.001   1.087 -0.5603  0.0751 -0.3414
10340TIP3    H155215   2.613  -0.004   1.134 -1.6753 -0.4121 -2.2617
10340TIP3    H255216   2.700   0.091   1.055  0.0328  0.3085  0.3497
10341TIP3   OH255217   1.846   5.404   1.697 -0.3212 -0.3391  0.2955
10341TIP3    H155218   1.864   5.310   1.687  0.1849 -0.2225  0.1053
10341TIP3    H255219   1.932   5.445   1.696 -0.6260  0.3474 -1.8903
10342TIP3   OH255220   7.616   1.769   2.107  0.1422 -0.2153  0.3153
10342TIP3    H155221   7.527   1.769   2.143  0.5692  1.2804  1.4678
10342TIP3    H255222   7.636   1.861   2.093  0.8636 -0.6243 -1.6845
10343TIP3   OH255223   0.439   6.394   1.063  0.1737 -0.6564  0.1934
10343TIP3    H155224   0.410   6.356   1.146  2.0263  0.5532  1.4639
10343TIP3    H255225   0.522   6.350   1.044  0.5650  0.2145 -0.1627
10344TIP3   OH255226   0.666   4.694   1.201 -0.4557 -0.1354  0.1684
10344TIP3    H155227   0.660   4.775   1.252 -0.3281  0.4758 -0.7693
10344TIP3    H255228   0.750   4.655   1.227  0.6621  1.2782 -1.1369
10345TIP3   OH255229   2.262   5.725   1.238 -0.0851 -0.2722  0.1082
10345TIP3    H155230   2.283   5.655   1.176  0.2840 -0.2542  0.2101
10345TIP3    H255231   2.279   5.806   1.189  1.5569 -0.2501  0.6627
10346TIP3   OH255232   3.728   6.307   2.530  0.4241 -0.2020  0.8511
10346TIP3    H155233   3.749   6.246   2.460  0.7775  0.2412  0.5637
10346TIP3    H255234   3.663   6.261   2.583  0.0944 -0.5119  0.1949
10347TIP3   OH255235   4.811   7.283   0.756  0.1944  0.0398  0.2108
10347TIP3    H155236   4.759   7.363   0.762  0.6861  0.3774  0.0460
10347TIP3    H255237   4.789   7.234   0.835  1.2014  1.1402  1.2012
10348TIP3   OH255238   6.508   6.533   1.912  0.5218 -0.2346 -0.2453
10348TIP3    H155239   6.523   6.439   1.903 -0.8306 -0.4585 -0.4309
10348TIP3    H255240   6.456   6.557   1.835  1.1552  0.7473 -0.3897
10349TIP3   OH255241   7.150   0.545   1.042 -0.4535 -0.2004 -0.1633
10349TIP3    H155242   7.227   0.547   0.985  0.8326  0.2638  1.5008
10349TIP3    H255243   7.091   0.483   1.000  0.9773 -0.8401 -1.3317
10350TIP3   OH255244   4.492   7.474   1.700  0.8887 -0.5285 -0.0447
10350TIP3    H155245   4.463   7.561   1.673  0.7229 -0.8595 -0.9709
10350TIP3    H255246   4.454   7.462   1.786  0.4061  0.0727 -0.1663
10351TIP3   OH255247   4.274   4.664   0.651  0.5096  0.5289  0.5287
10351TIP3    H155248   4.270   4.731   0.583  0.8580 -1.0752 -1.1517
10351TIP3    H255249   4.368   4.654   0.669  0.4868  0.1633  0.4412
10352TIP3   OH255250   1.080   3.615   1.295  0.0101  0.4246  0.2318
10352TIP3    H155251   1.039   3.556   1.232  1.1910  0.4341 -0.5751
10352TIP3    H255252   1.007   3.665   1.332 -1.1779 -2.2460  1.7678
10353TIP3   OH255253   6.516   4.796   2.516  0.5590 -0.6309  0.2657
10353TIP3    H155254   6.452   4.840   2.572 -0.1849 -0.7850 -0.4364
10353TIP3    H255255   6.473   4.793   2.430  1.9186  0.1528 -0.4724
10354TIP3   OH255256   6.402   0.988   0.872  0.1392 -0.0825 -0.3991
10354TIP3    H155257   6.465   0.963   0.804 -0.4234 -0.1297 -0.9139
10354TIP3    H255258   6.318   0.992   0.826 -0.4707 -1.3987  0.5662
10355TIP3   OH255259   7.061   4.417   2.195  0.0334  0.2865  0.3703
10355TIP3    H155260   7.062   4.328   2.228 -1.3683  0.9184  2.2818
10355TIP3    H255261   7.012   4.412   2.113  0.4167 -0.7726  0.1953
10356TIP3   OH255262   2.587   4.850   2.809 -0.2433 -0.6343 -0.2096
10356TIP3    H155263   2.531   4.840   2.732 -0.0448 -0.7044 -0.3454
10356TIP3    H255264   2.676   4.845   2.775 -0.1478 -0.0359 -0.0563
10357TIP3   OH255265   6.085   2.751   1.510 -0.0399 -0.6691 -0.2740
10357TIP3    H155266   6.003   2.761   1.558 -0.7222 -1.7153 -1.1820
10357TIP3    H255267   6.089   2.826   1.451 -1.1290 -1.4022 -1.3204
10358TIP3   OH255268   0.002   0.073   1.008 -0.6717  0.3243  0.3029
10358TIP3    H155269  -0.004  -0.021   0.993 -0.5397  0.3862 -0.1710
10358TIP3    H255270  -0.052   0.089   1.085  1.8406 -0.5893  2.3864
10359TIP3   OH255271   4.444   3.036   0.670  0.6163  0.0286 -0.4494
10359TIP3    H155272   4.536   3.017   0.651  0.5901  0.3088 -0.8651
10359TIP3    H255273   4.403   2.950   0.680  0.8172 -0.1045 -0.7692
10360TIP3   OH255274   5.988   5.433   0.528 -0.4272  0.4569 -0.1031
10360TIP3    H155275   6.044   5.361   0.556 -0.3389  0.2919 -0.6905
10360TIP3    H255276   6.017   5.508   0.580  0.4406  0.4110 -0.5058
10361TIP3   OH255277   2.348   3.533   2.065 -0.1014 -0.5757 -0.6150
10361TIP3    H155278   2.299   3.559   1.987 -0.1474 -0.7833 -0.6546
10361TIP3    H255279   2.358   3.615   2.115 -1.6462 -0.7495  0.0496
10362TIP3   OH255280   5.164   6.671   0.346  0.1505  0.5975 -0.5402
10362TIP3    H155281   5.224   6.687   0.273 -1.7077  1.6954 -1.8937
10362TIP3    H255282   5.162   6.753   0.394 -0.1192  0.5081 -0.3964
10363TIP3   OH255283   0.480   5.559   2.242  0.5936  0.0244  0.2926
10363TIP3    H155284   0.569   5.526   2.230  0.7586  0.5949 -0.0670
10363TIP3    H255285   0.427   5.511   2.178  0.2924 -1.6221  1.6863
10364TIP3   OH255286   0.372   5.872   0.691 -0.4650  0.5362 -0.2005
10364TIP3    H155287   0.450   5.853   0.638 -1.1618  1.8693 -1.7987
10364TIP3    H255288   0.401   5.934   0.757  0.3760 -0.9837  0.9015
10365TIP3   OH255289   0.532   3.488   1.008 -0.1051 -0.1186 -0.2941
10365TIP3    H155290   0.552   3.405   1.051 -1.3606 -0.1581  0.2748
10365TIP3    H255291   0.485   3.539   1.075 -2.0582 -0.1627 -1.5496
10366TIP3   OH255292   0.313   4.166   2.631  0.2933  0.7391  0.5263
10366TIP3    H155293   0.225   4.201   2.646 -0.9535 -2.2682  0.7638
10366TIP3    H255294   0.342   4.135   2.717  0.2484 -1.0716 -0.0671
10367TIP3   OH255295   0.567   5.388   1.697  0.7930 -0.6811  0.0381
10367TIP3    H155296   0.635   5.384   1.765  1.8203  0.7111 -0.8601
10367TIP3    H255297   0.519   5.469   1.717  1.1432 -0.2314 -0.9248
10368TIP3   OH255298   4.389   3.205   1.709  0.0802  0.2102  0.2196
10368TIP3    H155299   4.475   3.241   1.690  0.4176 -0.1752  0.9778
10368TIP3    H255300   4.328   3.265   1.666  0.7821 -0.7951 -2.3368
10369TIP3   OH255301   3.017   0.708   2.166  0.1847 -0.0458  0.0837
10369TIP3    H155302   3.051   0.620   2.184  0.4783  0.2075  0.8367
10369TIP3    H255303   2.957   0.696   2.093 -0.0401 -0.9361  0.3952
10370TIP3   OH255304   5.875   5.162   2.295 -0.3503  0.1891  0.5202
10370TIP3    H155305   5.913   5.081   2.329 -0.5189 -0.3787 -0.6116
10370TIP3    H255306   5.929   5.183   2.219 -1.7740 -0.1781 -0.6197
10371TIP3   OH255307   6.191   1.342   2.489 -0.4922  0.2616  0.4565
10371TIP3    H155308   6.213   1.272   2.550 -0.9223 -0.6032 -0.3684
10371TIP3    H255309   6.267   1.346   2.430  0.7097  2.2321  1.9977
10372TIP3   OH255310   5.911   3.036   1.941 -0.1231  0.1415  0.0188
10372TIP3    H155311   5.826   3.073   1.965 -0.9056 -1.8343  0.5173
10372TIP3    H255312   5.924   3.062   1.850 -2.1123 -0.9142 -0.6406
10373TIP3   OH255313   0.826   1.783   2.786  0.4270 -0.1149  0.2216
10373TIP3    H155314   0.774   1.818   2.714  0.6645  1.9529  0.9937
10373TIP3    H255315   0.917   1.796   2.757  0.5293  1.1124  1.0222
10374TIP3   OH255316   4.194   5.583   0.806 -0.4964 -0.2900  0.1634
10374TIP3    H155317   4.232   5.564   0.720  0.0875  1.0551  0.1082
10374TIP3    H255318   4.252   5.537   0.867 -1.2063 -1.6762 -0.1683
10375TIP3   OH255319   4.664   7.626   2.382  0.7283  0.1964  0.2318
10375TIP3    H155320   4.684   7.665   2.467  1.8456  0.1565  0.0016
10375TIP3    H255321   4.687   7.534   2.391  1.8929  0.4037 -0.4255
10376TIP3   OH255322   5.706   0.474   2.401  0.3284  0.1631 -0.1582
10376TIP3    H155323   5.616   0.497   2.378  0.3375 -0.3747 -0.7592
10376TIP3    H255324   5.746   0.448   2.318  0.4834 -1.4334  0.3799
10377TIP3   OH255325   7.319   2.044   2.204 -0.6204  0.3033  0.2845
10377TIP3    H155326   7.356   2.021   2.289  2.0949  0.4480 -0.7493
10377TIP3    H255327   7.392   2.083   2.156 -2.0272  0.1399 -2.1663
10378TIP3   OH255328   0.816   6.492   0.678  0.0545  0.0609  0.1152
10378TIP3    H155329   0.768   6.474   0.597  0.9690 -0.3968 -0.3459
10378TIP3    H255330   0.758   6.463   0.748 -0.0491 -1.1848 -0.4601
10379TIP3   OH255331   1.697   7.665   2.275 -0.5016  0.5356  0.3012
10379TIP3    H155332   1.701   7.572   2.254 -0.3376  0.3089  1.2703
10379TIP3    H255333   1.787   7.688   2.300 -0.1991  1.3403 -1.4190
10380TIP3   OH255334   0.728   3.533   2.333  0.0269 -0.1935 -0.5245
10380TIP3    H155335   0.717   3.561   2.242  0.1807 -0.4662 -0.6279
10380TIP3    H255336   0.813   3.489   2.334 -0.1838 -0.5980 -0.3451
10381TIP3   OH255337   0.486   2.205   2.663 -0.0629  0.4669  0.5134
10381TIP3    H155338   0.403   2.169   2.695 -0.0425  1.4237  1.7372
10381TIP3    H255339   0.481   2.298   2.685  0.3930  0.9988 -1.4457
10382TIP3   OH255340   0.824   3.330   0.765  0.3316 -0.0448  0.1798
10382TIP3    H155341   0.830   3.236   0.779 -0.6577 -0.1130  0.1733
10382TIP3    H255342   0.904   3.365   0.804 -0.3334 -0.6687  2.2200
10383TIP3   OH255343   3.641   5.290   1.275 -0.0056 -0.1416  0.2073
10383TIP3    H155344   3.641   5.218   1.211 -2.6499  0.9094 -1.0925
10383TIP3    H255345   3.702   5.261   1.343  2.8835 -1.3684 -2.6659
10384TIP3   OH255346   4.198   4.894   2.718  0.1297  0.2806 -0.1352
10384TIP3    H155347   4.122   4.839   2.698 -1.3214  2.5376 -1.2699
10384TIP3    H255348   4.261   4.874   2.649 -0.6925  0.5230 -0.9880
10385TIP3   OH255349   1.059   6.141   0.941 -0.2816  0.0927 -0.1699
10385TIP3    H155350   1.039   6.072   1.004  0.1211 -0.2629 -0.4246
10385TIP3    H255351   1.056   6.222   0.992  0.0417 -0.1925  0.3108
10386TIP3   OH255352   6.271   0.636   1.076 -0.1488 -0.3066 -0.0484
10386TIP3    H155353   6.365   0.634   1.095  0.4164 -2.4960 -2.5302
10386TIP3    H255354   6.265   0.682   0.992 -1.3174 -0.1583  0.1039
10387TIP3   OH255355   0.823   3.007   2.304  0.2842 -0.7395 -0.2999
10387TIP3    H155356   0.918   3.013   2.294  0.1338  0.8312 -0.9865
10387TIP3    H255357   0.793   2.963   2.224  0.2597  0.6155 -1.0587
10388TIP3   OH255358   5.866   3.701   2.332 -0.9279  0.2389 -0.4409
10388TIP3    H155359   5.888   3.695   2.240  2.0077 -0.7048  0.2203
10388TIP3    H255360   5.805   3.628   2.347  0.5495 -1.2281 -1.1952
10389TIP3   OH255361   5.476   4.816   1.657 -0.0030 -0.1838 -0.8608
10389TIP3    H155362   5.466   4.909   1.636  0.6693  0.0589 -0.1761
10389TIP3    H255363   5.404   4.796   1.716  1.0812  0.4907  0.7602
10390TIP3   OH255364   2.882   0.776   1.106  0.4142  0.0463  0.1691
10390TIP3    H155365   2.816   0.768   1.037 -0.0750 -0.1845  0.6561
10390TIP3    H255366   2.869   0.697   1.160 -0.0463  0.8365  1.2426
10391TIP3   OH255367   4.212   3.556   0.974 -0.7802  0.5327 -0.1761
10391TIP3    H155368   4.207   3.485   0.910 -0.5049  0.5957 -0.2673
10391TIP3    H255369   4.176   3.519   1.054 -1.8215  0.6843 -0.5658
10392TIP3   OH255370   2.893   5.924   2.397 -0.5585  0.0484 -0.0410
10392TIP3    H155371   2.877   5.995   2.459  1.6870  1.4941 -1.0028
10392TIP3    H255372   2.984   5.934   2.372 -0.6251 -2.2205 -1.4694
10393TIP3   OH255373   3.582   1.303   0.513  0.4901  0.3181 -0.5220
10393TIP3    H155374   3.543   1.389   0.527  0.5604  0.2357  0.2278
10393TIP3    H255375   3.646   1.317   0.443  0.7056  0.9382 -0.2089
10394TIP3   OH255376   6.188   1.363   0.770  0.0674 -0.1621  0.0559
10394TIP3    H155377   6.221   1.451   0.791 -0.5999  0.1362 -0.0844
10394TIP3    H255378   6.265   1.313   0.746  0.5355  0.2084  0.7581
10395TIP3   OH255379   7.206   1.301   1.334  0.2667 -0.3267 -0.4238
10395TIP3    H155380   7.130   1.242   1.338  0.3913 -0.8034 -2.8669
10395TIP3    H255381   7.169   1.389   1.331 -0.1718 -0.5169 -0.7055
10396TIP3   OH255382   3.540   1.004   2.350 -0.1463  0.1025 -0.3783
10396TIP3    H155383   3.501   0.979   2.433 -0.9209  0.8985 -0.4793
10396TIP3    H255384   3.590   0.927   2.322  0.7650  0.0921  1.1793
10397TIP3   OH255385   6.589   1.544   2.064  1.0602  0.1688  0.3547
10397TIP3    H155386   6.506   1.571   2.103  0.4211 -1.5969  0.3119
10397TIP3    H255387   6.656   1.579   2.122  0.1737 -2.2738  3.1420
10398TIP3   OH255388   3.081   7.394   1.434 -0.1588 -0.2020 -0.3206
10398TIP3    H155389   3.002   7.449   1.431 -0.0325  0.0126  0.1509
10398TIP3    H255390   3.080   7.347   1.351 -0.4390  0.2825 -0.5989
10399TIP3   OH255391   7.352   4.939   1.297 -0.0818  0.3244 -0.0285
10399TIP3    H155392   7.446   4.956   1.303 -0.2132  1.0570  0.0947
10399TIP3    H255393   7.315   5.023   1.268 -0.5898 -0.2412 -1.0784
10400TIP3   OH255394   0.083   6.628   1.494 -0.0236 -0.4021  0.4305
10400TIP3    H155395  -0.010   6.605   1.504 -0.2650  0.4479  0.2359
10400TIP3    H255396   0.083   6.723   1.482  1.0669  0.0015  3.0318
10401TIP3   OH255397   7.118   5.609   2.212 -0.4836  0.4246 -0.2080
10401TIP3    H155398   7.061   5.537   2.240  0.3526 -0.1770 -0.0119
10401TIP3    H255399   7.171   5.572   2.142  1.3407  0.2181  1.2074
10402TIP3   OH255400   4.065   6.461   2.753 -0.1642 -0.1511  0.2412
10402TIP3    H155401   4.028   6.375   2.770  1.2306 -0.7937  0.1309
10402TIP3    H255402   4.160   6.447   2.752  0.0506  0.9439 -2.0320
10403TIP3   OH255403   3.872   1.842   2.152  0.1798  0.1155 -0.6111
10403TIP3    H155404   3.776   1.844   2.159  0.2755  0.0400  1.4126
10403TIP3    H255405   3.897   1.764   2.201  1.2625 -0.1813 -1.6172
10404TIP3   OH255406   7.021   5.797   1.064 -0.3290 -0.9102  0.2099
10404TIP3    H155407   7.094   5.812   1.004  0.9658 -2.0102  1.4535
10404TIP3    H255408   7.014   5.701   1.070 -0.7103 -0.8240  1.4800
10405TIP3   OH255409   0.592   4.248   0.492  0.4635  0.1470  0.3389
10405TIP3    H155410   0.665   4.289   0.537 -0.1710  1.2383  0.4144
10405TIP3    H255411   0.602   4.275   0.400 -1.7345  3.3623  0.8634
10406TIP3   OH255412   2.153   2.988   0.894  0.2297  0.3655 -0.3166
10406TIP3    H155413   2.240   2.972   0.857  0.9488  3.2057 -0.1474
10406TIP3    H255414   2.164   3.068   0.946 -2.2292  0.1165  0.7257
10407TIP3   OH255415   3.274   6.083   2.417 -0.0673  0.3331  0.3329
10407TIP3    H155416   3.219   6.158   2.437 -0.3594 -0.1320  1.3081
10407TIP3    H255417   3.337   6.116   2.352 -0.6660  1.2057  0.1803
10408TIP3   OH255418   6.871   7.373   2.291 -0.4366  0.2866  0.0814
10408TIP3    H155419   6.916   7.455   2.311  0.7332 -0.0171 -1.1512
10408TIP3    H255420   6.778   7.396   2.295 -0.1762  1.3126  1.1392
10409TIP3   OH255421   0.624   3.292   1.714 -0.0784 -0.4548 -0.0329
10409TIP3    H155422   0.548   3.234   1.707 -0.7658  0.2783  1.0904
10409TIP3    H255423   0.664   3.271   1.798  2.0651 -2.0724 -1.3421
10410TIP3   OH255424   1.518   0.007   2.689  0.1290 -0.3696 -0.1476
10410TIP3    H155425   1.465   0.061   2.630 -0.8093 -0.3826  0.6466
10410TIP3    H255426   1.507  -0.082   2.657 -1.5625 -0.5760  0.8288
10411TIP3   OH255427   2.841   1.615   1.560 -0.0049 -0.6680  0.1075
10411TIP3    H155428   2.823   1.570   1.477  1.1614 -0.6185 -0.1951
10411TIP3    H255429   2.851   1.544   1.624 -1.0023 -0.7020  0.2321
10412TIP3   OH255430   6.948   7.305   0.824 -0.8434  0.0083  0.3377
10412TIP3    H155431   6.920   7.237   0.886  1.8715 -0.4605  1.1507
10412TIP3    H255432   6.911   7.277   0.740 -3.3383 -0.1370  1.3691
10413TIP3   OH255433   2.153   7.211   1.531  0.3306  0.0294  0.3817
10413TIP3    H155434   2.214   7.265   1.581 -0.0286  1.2062 -0.4032
10413TIP3    H255435   2.209   7.150   1.483  1.0197  1.6924 -1.0354
10414TIP3   OH255436   6.291   3.488   1.790 -0.0609  0.1365  0.0503
10414TIP3    H155437   6.268   3.410   1.841  0.7960  0.8796  1.6710
10414TIP3    H255438   6.223   3.495   1.723 -0.6323 -1.5064  0.4239
10415TIP3   OH255439   7.622   6.956   2.100 -0.2470 -0.1462 -0.4347
10415TIP3    H155440   7.700   6.972   2.045 -0.6935 -1.4126 -1.4875
10415TIP3    H255441   7.619   7.031   2.159  0.0638  1.5046 -2.3841
10416TIP3   OH255442   5.951   1.100   2.218 -0.4364  0.1643  0.5987
10416TIP3    H155443   5.892   1.041   2.170 -1.4200  0.4225  1.4658
10416TIP3    H255444   5.973   1.168   2.154 -0.3329 -0.4231 -0.0110
10417TIP3   OH255445   2.288   4.921   0.408  0.3668 -0.0127  0.5119
10417TIP3    H155446   2.359   4.984   0.396 -0.2568  0.5368 -0.4465
10417TIP3    H255447   2.244   4.951   0.488  1.1367 -0.3050  1.0634
10418TIP3   OH255448   0.284   4.378   1.548 -0.4840  0.1610 -1.2835
10418TIP3    H155449   0.340   4.391   1.472 -0.1438 -1.2895 -1.3147
10418TIP3    H255450   0.302   4.289   1.577 -0.6436  0.6506  0.4870
10419TIP3   OH255451   1.931   5.499   2.505 -0.3165  0.2255  0.0806
10419TIP3    H155452   1.936   5.408   2.536  1.4802 -0.0979 -1.0210
10419TIP3    H255453   1.987   5.501   2.428 -1.0876  2.0782 -0.4785
10420TIP3   OH255454   2.165   7.525   2.384 -0.3473  0.2637  0.2929
10420TIP3    H155455   2.138   7.435   2.369 -0.5855  0.4241 -0.2656
10420TIP3    H255456   2.106   7.558   2.452 -0.2296 -0.0119  0.5308
10421TIP3   OH255457   0.887   6.782   1.112  0.6741 -0.1578 -0.4736
10421TIP3    H155458   0.948   6.732   1.167  3.9466  3.8695  0.0354
10421TIP3    H255459   0.902   6.747   1.024  0.9373 -1.6977  0.1337
10422TIP3   OH255460   7.379   1.705   3.250  0.1049  0.2610 -0.4905
10422TIP3    H155461   7.385   1.786   3.199 -1.6800  0.0634 -1.0722
10422TIP3    H255462   7.316   1.651   3.203 -0.1920 -0.6847  0.9343
10423TIP3   OH255463   1.758   4.516   1.422  0.0330 -0.4442  0.0852
10423TIP3    H155464   1.797   4.524   1.335  0.9536 -0.9720  0.4249
10423TIP3    H255465   1.751   4.422   1.436 -0.4171 -0.3564  0.4478
10424TIP3   OH255466   7.265   4.852   2.923 -0.8495 -0.4024  0.4375
10424TIP3    H155467   7.241   4.767   2.961 -0.7174 -0.5662  0.1576
10424TIP3    H255468   7.303   4.830   2.838 -2.1396  0.0333 -0.2687
10425TIP3   OH255469   4.071   3.522   3.224  0.5597  0.5765  0.1514
10425TIP3    H155470   4.081   3.443   3.276  0.5097  0.3326 -0.2089
10425TIP3    H255471   4.065   3.491   3.133  2.9120  1.1113 -0.2602
10426TIP3   OH255472   3.964   1.584   1.918 -0.1954 -0.4120 -0.4506
10426TIP3    H155473   4.004   1.499   1.935  0.7235  0.4510  2.0707
10426TIP3    H255474   3.870   1.569   1.931 -0.1312 -1.1911 -0.8030
10427TIP3   OH255475   1.312   0.473   2.013  0.2151  0.8932 -0.1471
10427TIP3    H155476   1.304   0.390   1.967 -0.6773  0.5449  0.6272
10427TIP3    H255477   1.223   0.507   2.017  0.6042  2.0302 -0.6878
10428TIP3   OH255478   4.963   2.354   2.315 -0.4960 -0.0222 -0.2850
10428TIP3    H155479   4.912   2.432   2.339 -0.0196 -0.0282  0.8021
10428TIP3    H255480   4.899   2.283   2.316 -0.4811 -0.0534  1.2129
10429TIP3   OH255481   3.416   4.387   0.963 -0.3357 -0.0197  0.2838
10429TIP3    H155482   3.402   4.295   0.986  0.7354 -0.6956 -1.4803
10429TIP3    H255483   3.365   4.436   1.026 -1.2162 -1.8475  1.0693
10430TIP3   OH255484   5.985   6.330   2.221 -0.2083  0.3124  0.0416
10430TIP3    H155485   5.995   6.390   2.147 -1.6283  1.1684  0.4977
10430TIP3    H255486   6.064   6.342   2.272  0.1740  0.7275 -0.6317
10431TIP3   OH255487   7.152   2.446   0.911 -0.1917 -0.1160  0.6798
10431TIP3    H155488   7.150   2.495   0.829 -0.4089  1.2755  1.4855
10431TIP3    H255489   7.243   2.416   0.919 -0.3589 -0.9536 -0.4456
10432TIP3   OH255490   1.934   7.318   2.648  0.7324  0.6496 -0.1967
10432TIP3    H155491   1.971   7.231   2.665 -2.8826 -0.6554  2.5647
10432TIP3    H255492   1.940   7.363   2.732 -0.5700  1.6771 -0.6256
10433TIP3   OH255493   1.228   2.967   0.567 -0.1169 -0.7031 -0.5228
10433TIP3    H155494   1.234   3.044   0.624 -0.4438 -0.8758 -0.2544
10433TIP3    H255495   1.313   2.962   0.524 -0.3562  0.2840 -1.1493
10434TIP3   OH255496   1.486   0.927   0.862 -0.2022  0.4792  0.0812
10434TIP3    H155497   1.498   0.856   0.798 -0.7151 -0.6646  1.2126
10434TIP3    H255498   1.400   0.911   0.899 -0.3794  1.8028  0.2693
10435TIP3   OH255499   4.521   3.025   3.340 -0.1246  0.0671  0.4837
10435TIP3    H155500   4.483   3.035   3.427 -0.1957  0.1420  0.4449
10435TIP3    H255501   4.500   3.108   3.296  0.0249  0.0821  0.4399
10436TIP3   OH255502   1.055   5.291   1.114  0.3543 -0.2338 -0.2382
10436TIP3    H155503   1.052   5.299   1.019  0.1041 -0.2386 -0.2314
10436TIP3    H255504   1.039   5.379   1.146 -0.1768 -0.3443 -0.1932
10437TIP3   OH255505   3.370   3.303   0.627  0.2789  0.1071 -1.0465
10437TIP3    H155506   3.277   3.283   0.617  0.3591  0.2449 -2.1420
10437TIP3    H255507   3.372   3.391   0.663 -0.0092  0.4219 -1.7898
10438TIP3   OH255508   5.929   6.901   1.350  0.3710  0.1385 -0.4400
10438TIP3    H155509   5.993   6.884   1.281 -0.1842  0.7370 -1.1178
10438TIP3    H255510   5.865   6.960   1.310  0.5475  1.2676  0.8687
10439TIP3   OH255511   7.319   5.342   1.865 -0.3481 -0.3918 -0.2259
10439TIP3    H155512   7.326   5.352   1.960 -0.1155 -1.2557 -0.1386
10439TIP3    H255513   7.331   5.248   1.851 -0.5798 -0.2937 -1.0936
   7.68049   7.68049  30.00000
